 Gaussian 16, Revision A.03,
 Gaussian 16:  ES64L-G16RevA.03 25-Dec-2016

 --------------------------
 # td=(NStates=1) B3LYP/SVP
 --------------------------

 --
 TD
 --
 Symbolic Z-matrix:
 Charge =  0 Multiplicity = 1

                         Standard orientation:
 ---------------------------------------------------------------------
 Center     Atomic      Atomic             Coordinates (Angstroms)
 Number     Number       Type             X           Y           Z
 ---------------------------------------------------------------------
      1          8           0       -4.553343   -4.625879    2.009219
      2          8           0        2.949237   -4.811070    1.215166
      3          8           0        7.060956   -1.366063    2.003475
      4          8           0        3.864856   -3.140477    0.128655
      5          8           0        7.519708   -0.700725   -0.098469
      6          8           0       -2.979118    2.454243   -0.228669
      7          7           0       -0.259222   -0.602865   -0.467782
      8          7           0        1.560953    1.842313   -0.398771
      9          7           0       -3.369552   -3.152884    0.611815
     10          7           0       -0.744411    2.902304   -0.004650
     11          6           0        0.598321   -2.542785   -1.316568
     12          6           0        0.951398   -1.182174   -0.939540
     13          6           0       -0.712618   -2.692220   -1.298627
     14          6           0       -1.243539   -1.471533   -0.675062
     15          6           0        3.840281    1.426464   -0.406609
     16          6           0        2.481388    0.810668   -0.674682
     17          6           0        2.176137   -0.502365   -0.905049
     18          6           0        3.495566    2.811498   -0.089218
     19          6           0        1.616768   -3.428688   -1.908547
     20          6           0       -5.628096   -2.550629    1.298985
     21          6           0       -3.613700   -1.868690    0.201918
     22          6           0        2.204224    2.960257   -0.048150
     23          6           0       -5.075041   -1.500910    0.338847
     24          6           0        5.126107    0.616987   -0.448314
     25          6           0       -2.631902   -1.072504   -0.426447
     26          6           0       -1.397763   -3.922531   -1.845311
     27          6           0       -4.548280   -3.663014    1.385241
     28          6           0        2.135695   -4.513259   -1.032745
     29          6           0        5.385064   -0.112890    0.868960
     30          6           0        4.514260    3.974858    0.342078
     31          6           0        1.363236    4.102956    0.263503
     32          6           0       -6.962211   -3.053118    1.263651
     33          6           0       -5.761236   -0.559936   -0.273932
     34          6           0       -0.023051    4.009684    0.239325
     35          6           0       -0.960215    5.195091    0.566714
     36          6           0       -2.256225    4.746237    0.243791
     37          6           0        3.033873   -4.059573    0.109171
     38          6           0       -5.432015    0.338858   -1.237065
     39          6           0        6.738048   -0.738110    0.818554
     40          6           0       -3.645723    5.343386    0.344411
     41          6           0       -2.100958    3.207166    0.023318
     42          6           0       -0.533398    6.543260    0.841374
     43          6           0       -4.308956    5.525407   -0.941639
     44          1           0       -0.417207    0.422165   -0.189910
     45          1           0        3.069612   -1.221272   -1.038693
     46          1           0        2.383736   -2.770617   -2.409465
     47          1           0        1.255715   -3.837450   -2.838440
     48          1           0       -5.483942   -2.072195    2.298804
     49          1           0        5.125622    0.031896   -1.298474
     50          1           0        6.354335    1.253977   -0.681210
     51          1           0       -2.992834    0.009757   -0.764104
     52          1           0        0.481168    1.828991   -0.424556
     53          1           0       -1.313482   -5.066270   -1.326397
     54          1           0       -2.661624   -3.868872   -1.570470
     55          1           0       -1.385799   -4.083861   -2.914374
     56          1           0       -2.516304   -3.496209    0.773018
     57          1           0        1.415637   -5.033641   -0.454992
     58          1           0        2.627934   -5.534592   -1.439152
     59          1           0        4.501865   -0.816540    1.042889
     60          1           0        5.339505    0.525776    1.664667
     61          1           0        4.245162    4.906094   -0.181179
     62          1           0        5.587041    3.381843    0.151731
     63          1           0        4.464648    4.263126    1.293604
     64          1           0        1.919026    5.033684    0.626987
     65          1           0       -7.701752   -2.323941    1.653492
     66          1           0       -7.307587   -4.100175    1.802634
     67          1           0       -7.092088   -3.522488    0.081568
     68          1           0       -6.944240   -0.553905   -0.050612
     69          1           0       -5.133449    1.328001   -0.923001
     70          1           0       -6.298599    0.669473   -2.038430
     71          1           0       -4.632106   -0.205755   -1.944758
     72          1           0       -3.636472    6.356511    0.877504
     73          1           0       -4.147939    4.642240    1.062575
     74          1           0        0.274415    6.647445    1.675276
     75          1           0       -1.504235    7.222864    1.091833
     76          1           0       -0.170826    7.142157   -0.013511
     77          1           0       -3.842864    6.091085   -1.617913
     78          1           0       -5.374726    5.846932   -0.715777
     79          1           0       -4.308270    4.522598   -1.457371
     80          1           0        3.694247   -4.451751    1.818118
     81          1           0        7.961296   -1.636490    1.864770
 ---------------------------------------------------------------------

 SCF Done:  E(RB3LYP) =  -1949.05034754     A.U. after   17 cycles

 Excitation energies and oscillator strengths:

 Excited State   1:      Singlet-A      1.9372 eV  640.02 nm  f=0.3876  <S**2>=0.000
     156 ->157         0.70733
     156 <-157        -0.11066
 This state for optimization and/or second-order correction.
 Total Energy, E(TD-HF/TD-DFT) =  -1948.97915657
 Copying the excited state density for this state as the 1-particle RhoCI density.

 The electronic state is 1-A.
 Alpha  occ. eigenvalues --  -19.19778 -19.17621 -19.14174 -19.13686 -19.13252
 Alpha  occ. eigenvalues --  -19.09485 -14.39286 -14.36546 -14.34553 -14.27939
 Alpha  occ. eigenvalues --  -10.33558 -10.32127 -10.30924 -10.25475 -10.25141
 Alpha  occ. eigenvalues --  -10.25034 -10.23435 -10.23183 -10.23182 -10.22723
 Alpha  occ. eigenvalues --  -10.21916 -10.21912 -10.21797 -10.21704 -10.21687
 Alpha  occ. eigenvalues --  -10.21573 -10.21500 -10.21346 -10.20714 -10.20522
 Alpha  occ. eigenvalues --  -10.20269 -10.20197 -10.20121 -10.19717 -10.19622
 Alpha  occ. eigenvalues --  -10.19581 -10.19265 -10.19129 -10.19050 -10.18495
 Alpha  occ. eigenvalues --  -10.18188 -10.18106 -10.16376  -1.10922  -1.09594
 Alpha  occ. eigenvalues --   -1.08904  -1.02407  -1.00827  -0.99893  -0.99263
 Alpha  occ. eigenvalues --   -0.97155  -0.95786  -0.90041  -0.84421  -0.83541
 Alpha  occ. eigenvalues --   -0.81408  -0.80688  -0.79220  -0.79048  -0.78810
 Alpha  occ. eigenvalues --   -0.77502  -0.76316  -0.75297  -0.74062  -0.72038
 Alpha  occ. eigenvalues --   -0.70506  -0.70293  -0.69308  -0.67946  -0.67155
 Alpha  occ. eigenvalues --   -0.66889  -0.65471  -0.64334  -0.61399  -0.60853
 Alpha  occ. eigenvalues --   -0.60338  -0.58958  -0.58554  -0.57670  -0.57097
 Alpha  occ. eigenvalues --   -0.55742  -0.55283  -0.54628  -0.53595  -0.53138
 Alpha  occ. eigenvalues --   -0.51907  -0.51460  -0.51005  -0.50345  -0.49952
 Alpha  occ. eigenvalues --   -0.49613  -0.49437  -0.48734  -0.48310  -0.48162
 Alpha  occ. eigenvalues --   -0.47260  -0.46767  -0.46424  -0.45888  -0.45668
 Alpha  occ. eigenvalues --   -0.45217  -0.44953  -0.44715  -0.44157  -0.43723
 Alpha  occ. eigenvalues --   -0.43626  -0.43470  -0.43064  -0.42600  -0.42519
 Alpha  occ. eigenvalues --   -0.42221  -0.42193  -0.41599  -0.41423  -0.41153
 Alpha  occ. eigenvalues --   -0.40790  -0.40709  -0.40324  -0.40099  -0.39678
 Alpha  occ. eigenvalues --   -0.39499  -0.39040  -0.38720  -0.38548  -0.38279
 Alpha  occ. eigenvalues --   -0.37884  -0.37846  -0.37594  -0.37254  -0.36773
 Alpha  occ. eigenvalues --   -0.36506  -0.36226  -0.35632  -0.34931  -0.33212
 Alpha  occ. eigenvalues --   -0.33060  -0.32925  -0.32752  -0.32453  -0.31843
 Alpha  occ. eigenvalues --   -0.31658  -0.31103  -0.30888  -0.30112  -0.29045
 Alpha  occ. eigenvalues --   -0.28817  -0.28738  -0.27630  -0.26830  -0.26113
 Alpha  occ. eigenvalues --   -0.24654  -0.24153  -0.23076  -0.22301  -0.21100
 Alpha  occ. eigenvalues --   -0.17767
 Alpha virt. eigenvalues --   -0.10021  -0.04742  -0.03579  -0.02143  -0.00739
 Alpha virt. eigenvalues --   -0.00125   0.01195   0.02170   0.03224   0.03571
 Alpha virt. eigenvalues --    0.04310   0.04473   0.05158   0.05348   0.05562

 Mulliken charges:
               1
     1  O   -0.102512
     2  O   -0.193716
     3  O   -0.192609
     4  O   -0.265434
     5  O   -0.220500
     6  O   -0.183688
     7  N   -0.075595
     8  N   -0.124331
     9  N   -0.119935
    10  N   -0.325216
    11  C   -0.065269
    12  C    0.018820
    13  C   -0.072113
    14  C    0.031050
    15  C   -0.067373
    16  C    0.080488
    17  C   -0.061276
    18  C   -0.184827
    19  C    0.146401
    20  C   -0.011965
    21  C    0.047362
    22  C    0.118092
    23  C    0.024333
    24  C   -0.021347
    25  C   -0.157907
    26  C   -0.081323
    27  C    0.109414
    28  C    0.047908
    29  C    0.063165
    30  C    0.105666
    31  C   -0.154833
    32  C   -0.051157
    33  C   -0.151635
    34  C    0.122495
    35  C   -0.075125
    36  C   -0.203456
    37  C    0.103159
    38  C   -0.000821
    39  C    0.153471
    40  C    0.057161
    41  C    0.137538
    42  C    0.014106
    43  C    0.058457
    44  H    0.166119
    45  H    0.044351
    46  H    0.022993
    47  H   -0.009310
    48  H    0.049033
    49  H    0.012969
    50  H    0.050866
    51  H    0.078421
    52  H    0.158298
    53  H    0.046759
    54  H    0.044640
    55  H    0.039218
    56  H    0.094114
    57  H    0.006170
    58  H    0.068380
    59  H    0.065371
    60  H    0.003515
    61  H    0.021809
    62  H    0.043479
    63  H   -0.010906
    64  H   -0.018203
    65  H    0.036515
    66  H    0.056925
    67  H    0.027811
    68  H    0.015147
    69  H    0.066994
    70  H    0.019395
    71  H    0.047183
    72  H   -0.007541
    73  H    0.021664
    74  H    0.034653
    75  H    0.020509
    76  H    0.029887
    77  H   -0.024915
    78  H    0.013714
    79  H    0.014687
    80  H    0.212242
    81  H    0.161916
 Sum of Mulliken charges =  -0.00000

 Dipole moment (field-independent basis, Debye):
    X=              0.4118    Y=             -2.7205    Z=              0.5055  Tot=              2.7976
 Quadrupole moment (field-independent basis, Debye-Ang):
   XX=           -250.4816   YY=           -239.6127   ZZ=           -253.5077
   XY=             -9.4053   XZ=             12.8586   YZ=             10.9147

 Normal termination of Gaussian 16 at Sat Jul  6 08:43:15 2019.
