 Gaussian 16, Revision A.03,
 Gaussian 16:  ES64L-G16RevA.03 25-Dec-2016

 --------------------------
 # td=(NStates=1) B3LYP/SVP
 --------------------------

 --
 TD
 --
 Symbolic Z-matrix:
 Charge =  0 Multiplicity = 1

                         Standard orientation:
 ---------------------------------------------------------------------
 Center     Atomic      Atomic             Coordinates (Angstroms)
 Number     Number       Type             X           Y           Z
 ---------------------------------------------------------------------
      1          8           0        4.773568   -4.773893   -1.711441
      2          8           0       -2.833045   -4.845249   -1.267439
      3          8           0       -7.015950   -1.630574   -1.928691
      4          8           0       -3.551223   -3.057515   -0.184858
      5          8           0       -7.553674   -0.802416   -0.032981
      6          8           0        2.920036    2.595688    0.142298
      7          7           0        0.282490   -0.654829    0.603811
      8          7           0       -1.637189    1.779944    0.428262
      9          7           0        3.517280   -3.155155   -0.610111
     10          7           0        0.652093    2.924619    0.107873
     11          6           0       -0.609014   -2.528377    1.355377
     12          6           0       -0.938654   -1.257984    0.940243
     13          6           0        0.795766   -2.633791    1.279186
     14          6           0        1.346817   -1.532292    0.694714
     15          6           0       -3.864365    1.381775    0.351582
     16          6           0       -2.508428    0.739858    0.574631
     17          6           0       -2.278659   -0.588637    0.885315
     18          6           0       -3.677498    2.653314    0.124237
     19          6           0       -1.522318   -3.518295    1.957093
     20          6           0        5.620682   -2.471277   -1.370399
     21          6           0        3.695172   -1.818671   -0.086894
     22          6           0       -2.275403    2.960765    0.071326
     23          6           0        5.081924   -1.380819   -0.439444
     24          6           0       -5.174166    0.546907    0.411438
     25          6           0        2.674597   -1.043579    0.401983
     26          6           0        1.620467   -3.846775    1.913814
     27          6           0        4.658674   -3.622138   -1.324364
     28          6           0       -1.963303   -4.589315    0.970867
     29          6           0       -5.423690   -0.217114   -0.867218
     30          6           0       -4.761328    3.626714   -0.224321
     31          6           0       -1.473770    4.130742   -0.165575
     32          6           0        7.061919   -2.843419   -1.058108
     33          6           0        5.813496   -0.309635    0.029071
     34          6           0       -0.131372    4.081994   -0.164441
     35          6           0        0.855655    5.219984   -0.425079
     36          6           0        2.084448    4.822012   -0.294412
     37          6           0       -2.784624   -4.059057   -0.182960
     38          6           0        5.411843    0.713822    1.086464
     39          6           0       -6.726693   -0.880380   -0.825983
     40          6           0        3.438517    5.433723   -0.475577
     41          6           0        1.917530    3.302364    0.006624
     42          6           0        0.281399    6.573377   -0.799605
     43          6           0        4.304975    5.484218    0.831609
     44          1           0        0.242650    0.220416    0.157048
     45          1           0       -3.202521   -1.303994    0.910991
     46          1           0       -2.451904   -2.974429    2.182710
     47          1           0       -1.025766   -4.086621    2.816348
     48          1           0        5.499826   -1.989819   -2.337308
     49          1           0       -4.994381   -0.321167    1.324453
     50          1           0       -5.903588    1.243174    0.812809
     51          1           0        2.879016    0.054912    0.432671
     52          1           0       -0.637222    1.820760    0.600885
     53          1           0        1.708828   -4.767970    1.310442
     54          1           0        2.681277   -3.907082    2.398327
     55          1           0        0.784682   -4.324877    2.756075
     56          1           0        2.547841   -3.660008   -0.839144
     57          1           0       -1.086559   -4.926341    0.207225
     58          1           0       -2.721172   -5.163042    1.358388
     59          1           0       -4.656993   -0.945954   -0.937600
     60          1           0       -5.393498    0.531613   -1.740761
     61          1           0       -4.632648    4.422726    0.608619
     62          1           0       -5.646150    3.007647   -0.366849
     63          1           0       -4.362724    4.218377   -1.209848
     64          1           0       -1.933860    5.055711   -0.442104
     65          1           0        7.841214   -2.022634   -1.186565
     66          1           0        7.331359   -3.783757   -1.779643
     67          1           0        7.339250   -3.363589    0.030520
     68          1           0        6.742736   -0.122411   -0.474416
     69          1           0        5.118110    1.689934    0.553305
     70          1           0        6.312229    1.173702    1.426822
     71          1           0        4.694551    0.290946    1.688783
     72          1           0        3.227423    6.371342   -0.767956
     73          1           0        4.026105    4.718250   -1.224244
     74          1           0       -0.318008    6.616309   -1.705277
     75          1           0        0.941470    7.504038   -1.051094
     76          1           0       -0.287912    7.115444   -0.104537
     77          1           0        3.839441    6.370119    1.576498
     78          1           0        5.374541    5.728612    0.873632
     79          1           0        4.248610    4.536238    1.281674
     80          1           0       -3.125793   -4.355264   -2.143360
     81          1           0       -7.924460   -2.001767   -1.928634
 ---------------------------------------------------------------------

 SCF Done:  E(RB3LYP) =  -1949.10203644     A.U. after   22 cycles

 Excitation energies and oscillator strengths:

 Excited State   1:      Singlet-A      1.9071 eV  650.13 nm  f=0.3393  <S**2>=0.000
     156 ->157         0.70644
 This state for optimization and/or second-order correction.
 Total Energy, E(TD-HF/TD-DFT) =  -1949.03195303
 Copying the excited state density for this state as the 1-particle RhoCI density.

 The electronic state is 1-A.
 Alpha  occ. eigenvalues --  -19.19968 -19.16080 -19.13752 -19.12283 -19.11507
 Alpha  occ. eigenvalues --  -19.08651 -14.37073 -14.36923 -14.36918 -14.28716
 Alpha  occ. eigenvalues --  -10.33977 -10.31132 -10.29465 -10.25712 -10.24970
 Alpha  occ. eigenvalues --  -10.24488 -10.24134 -10.23261 -10.23255 -10.23086
 Alpha  occ. eigenvalues --  -10.22833 -10.22796 -10.22289 -10.21913 -10.21704
 Alpha  occ. eigenvalues --  -10.21447 -10.21138 -10.20920 -10.20892 -10.20816
 Alpha  occ. eigenvalues --  -10.20168 -10.20159 -10.19886 -10.19855 -10.19598
 Alpha  occ. eigenvalues --  -10.19548 -10.19373 -10.19052 -10.18970 -10.18969
 Alpha  occ. eigenvalues --  -10.18113 -10.17960 -10.17351  -1.10913  -1.10054
 Alpha  occ. eigenvalues --   -1.02981  -1.00450  -0.99761  -0.99349  -0.98999
 Alpha  occ. eigenvalues --   -0.98016  -0.92864  -0.90666  -0.83531  -0.83368
 Alpha  occ. eigenvalues --   -0.81361  -0.80816  -0.79680  -0.79224  -0.78729
 Alpha  occ. eigenvalues --   -0.78360  -0.76525  -0.74971  -0.73911  -0.72479
 Alpha  occ. eigenvalues --   -0.70880  -0.69507  -0.68984  -0.68495  -0.68268
 Alpha  occ. eigenvalues --   -0.67043  -0.65483  -0.64329  -0.62065  -0.61730
 Alpha  occ. eigenvalues --   -0.61275  -0.59930  -0.58695  -0.57185  -0.56486
 Alpha  occ. eigenvalues --   -0.56027  -0.55458  -0.54784  -0.53832  -0.53168
 Alpha  occ. eigenvalues --   -0.52706  -0.51661  -0.51523  -0.51424  -0.50422
 Alpha  occ. eigenvalues --   -0.50203  -0.49367  -0.48475  -0.48090  -0.47427
 Alpha  occ. eigenvalues --   -0.47218  -0.46663  -0.46033  -0.45754  -0.45181
 Alpha  occ. eigenvalues --   -0.45087  -0.44731  -0.44172  -0.43790  -0.43691
 Alpha  occ. eigenvalues --   -0.43277  -0.42977  -0.42471  -0.42210  -0.41813
 Alpha  occ. eigenvalues --   -0.41544  -0.41252  -0.40887  -0.40749  -0.40688
 Alpha  occ. eigenvalues --   -0.40427  -0.40252  -0.39934  -0.39414  -0.39306
 Alpha  occ. eigenvalues --   -0.38989  -0.38846  -0.38261  -0.38062  -0.37997
 Alpha  occ. eigenvalues --   -0.37847  -0.37403  -0.37150  -0.36909  -0.36471
 Alpha  occ. eigenvalues --   -0.36081  -0.36045  -0.35483  -0.35355  -0.34560
 Alpha  occ. eigenvalues --   -0.34471  -0.34186  -0.34093  -0.33052  -0.32869
 Alpha  occ. eigenvalues --   -0.32065  -0.31846  -0.31318  -0.29573  -0.28483
 Alpha  occ. eigenvalues --   -0.28187  -0.27232  -0.26677  -0.26626  -0.26301
 Alpha  occ. eigenvalues --   -0.25212  -0.24928  -0.23801  -0.22919  -0.21737
 Alpha  occ. eigenvalues --   -0.18546
 Alpha virt. eigenvalues --   -0.10794  -0.04971  -0.03446  -0.02559  -0.00268
 Alpha virt. eigenvalues --    0.01137   0.01630   0.02207   0.02511   0.03327
 Alpha virt. eigenvalues --    0.04456   0.05069   0.05221   0.05444   0.05754

 Mulliken charges:
               1
     1  O   -0.203703
     2  O   -0.221558
     3  O   -0.230002
     4  O   -0.276975
     5  O   -0.158404
     6  O   -0.245193
     7  N   -0.074503
     8  N   -0.071646
     9  N   -0.235699
    10  N   -0.284861
    11  C   -0.127743
    12  C    0.009201
    13  C   -0.117138
    14  C    0.095182
    15  C   -0.086621
    16  C    0.073310
    17  C   -0.071864
    18  C   -0.135025
    19  C    0.136487
    20  C    0.000011
    21  C    0.117309
    22  C    0.108189
    23  C   -0.043533
    24  C   -0.015143
    25  C   -0.126006
    26  C   -0.014085
    27  C    0.143188
    28  C    0.066434
    29  C    0.071730
    30  C    0.059422
    31  C   -0.100964
    32  C   -0.055498
    33  C   -0.158085
    34  C    0.100214
    35  C   -0.022013
    36  C   -0.193142
    37  C    0.099550
    38  C    0.153316
    39  C    0.094877
    40  C    0.156140
    41  C    0.108457
    42  C    0.055605
    43  C   -0.043164
    44  H    0.105877
    45  H    0.069103
    46  H    0.006533
    47  H    0.034144
    48  H    0.044634
    49  H    0.046229
    50  H    0.025571
    51  H    0.044472
    52  H    0.127462
    53  H    0.012596
    54  H    0.058465
    55  H    0.003248
    56  H    0.178808
    57  H    0.068912
    58  H    0.024776
    59  H    0.033850
    60  H    0.051603
    61  H    0.047672
    62  H    0.035118
    63  H    0.043568
    64  H   -0.041092
    65  H    0.035790
    66  H    0.044202
    67  H    0.041309
    68  H   -0.020397
    69  H    0.056726
    70  H   -0.015091
    71  H    0.021859
    72  H   -0.040921
    73  H    0.040543
    74  H    0.008207
    75  H    0.004213
    76  H   -0.000945
    77  H    0.008559
    78  H    0.011983
    79  H    0.021728
    80  H    0.240159
    81  H    0.184474
 Sum of Mulliken charges =  -0.00000

 Dipole moment (field-independent basis, Debye):
    X=             -3.7582    Y=              1.0041    Z=             -1.6445  Tot=              4.2234
 Quadrupole moment (field-independent basis, Debye-Ang):
   XX=           -255.1980   YY=           -245.9839   ZZ=           -253.0575
   XY=             13.6559   XZ=             12.7035   YZ=             -8.8127

 Normal termination of Gaussian 16 at Thu Jun 27 06:36:45 2019.
