 Gaussian 16, Revision A.03,
 Gaussian 16:  ES64L-G16RevA.03 25-Dec-2016

 --------------------------
 # td=(NStates=1) B3LYP/SVP
 --------------------------

 --
 TD
 --
 Symbolic Z-matrix:
 Charge =  0 Multiplicity = 1

                         Standard orientation:
 ---------------------------------------------------------------------
 Center     Atomic      Atomic             Coordinates (Angstroms)
 Number     Number       Type             X           Y           Z
 ---------------------------------------------------------------------
      1          8           0       -4.560295   -4.778795    2.007131
      2          8           0        3.197775   -5.096700    1.232703
      3          8           0        7.300189   -1.102198    1.923771
      4          8           0        3.792059   -3.137988    0.260131
      5          8           0        7.635280   -0.485384   -0.268764
      6          8           0       -3.157782    2.327069   -0.295357
      7          7           0       -0.265578   -0.660533   -0.554928
      8          7           0        1.513410    1.837472   -0.357712
      9          7           0       -3.393823   -3.255682    0.637961
     10          7           0       -0.805822    2.962047   -0.111204
     11          6           0        0.748999   -2.542351   -1.219376
     12          6           0        1.015613   -1.134810   -0.873598
     13          6           0       -0.653820   -2.743772   -1.281733
     14          6           0       -1.284089   -1.578791   -0.785218
     15          6           0        3.747036    1.489804   -0.380151
     16          6           0        2.470643    0.828312   -0.542548
     17          6           0        2.216894   -0.476715   -0.758103
     18          6           0        3.466240    2.790386   -0.008074
     19          6           0        1.748011   -3.456883   -1.903223
     20          6           0       -5.454057   -2.664335    1.260584
     21          6           0       -3.602689   -1.984882   -0.041333
     22          6           0        2.011215    3.038627   -0.125159
     23          6           0       -5.013673   -1.700458    0.172572
     24          6           0        5.098043    0.897247   -0.439431
     25          6           0       -2.597310   -1.219505   -0.601724
     26          6           0       -1.289378   -3.946087   -1.767308
     27          6           0       -4.440382   -3.731882    1.386232
     28          6           0        2.114510   -4.591954   -0.894281
     29          6           0        5.440923    0.099887    0.819510
     30          6           0        4.394688    3.931025    0.373036
     31          6           0        1.190267    4.153396    0.176479
     32          6           0       -7.030410   -3.142408    1.254198
     33          6           0       -5.843256   -0.683531   -0.287865
     34          6           0       -0.173985    4.075220    0.119883
     35          6           0       -1.088645    5.205656    0.487384
     36          6           0       -2.399199    4.654090    0.465285
     37          6           0        3.137201   -4.170339    0.238901
     38          6           0       -5.321656    0.329458   -1.278007
     39          6           0        6.896355   -0.448626    0.755959
     40          6           0       -3.757272    5.365737    0.518343
     41          6           0       -2.251514    3.164055   -0.078859
     42          6           0       -0.721270    6.578050    0.885934
     43          6           0       -4.437266    5.757051   -0.806914
     44          1           0       -0.444701    0.257755   -0.410913
     45          1           0        3.000692   -1.284055   -0.825601
     46          1           0        2.595137   -2.642703   -2.112353
     47          1           0        1.428807   -3.984708   -2.789129
     48          1           0       -5.449526   -2.191094    2.242167
     49          1           0        5.205698    0.393413   -1.351779
     50          1           0        5.960641    1.707578   -0.670457
     51          1           0       -2.966261    0.047935   -0.637996
     52          1           0        0.636888    1.636589   -0.557802
     53          1           0       -1.384822   -4.715054   -0.920529
     54          1           0       -2.174308   -3.822805   -2.004810
     55          1           0       -0.701087   -4.493667   -2.728178
     56          1           0       -2.387406   -3.610366    0.648659
     57          1           0        1.140591   -4.987698   -0.400238
     58          1           0        2.489671   -5.378784   -1.409109
     59          1           0        4.743160   -0.583699    1.182904
     60          1           0        5.497765    0.823033    1.919233
     61          1           0        4.115440    4.916572   -0.017108
     62          1           0        5.404761    3.645111   -0.152164
     63          1           0        4.470514    3.937391    1.548834
     64          1           0        1.728095    5.148721    0.573990
     65          1           0       -7.831648   -2.219976    1.370756
     66          1           0       -7.269550   -3.897037    2.070855
     67          1           0       -7.203296   -3.712882    0.222744
     68          1           0       -6.982862   -0.536950    0.126552
     69          1           0       -4.735391    1.161197   -0.995490
     70          1           0       -6.247510    0.876157   -1.736886
     71          1           0       -4.440437   -0.198782   -2.095106
     72          1           0       -3.639906    6.275863    1.037166
     73          1           0       -4.274767    4.585546    1.064694
     74          1           0        0.066577    6.597843    1.762864
     75          1           0       -1.452964    7.274784    1.066775
     76          1           0       -0.134424    7.022011   -0.010870
     77          1           0       -3.805714    6.470596   -1.295083
     78          1           0       -5.485178    6.029999   -0.513309
     79          1           0       -4.542762    4.929562   -1.565374
     80          1           0        3.885489   -4.864601    1.811922
     81          1           0        8.168870   -1.447979    1.326056
 ---------------------------------------------------------------------

 SCF Done:  E(RB3LYP) =  -1949.05594121     A.U. after   16 cycles

 Excitation energies and oscillator strengths:

 Excited State   1:      Singlet-A      1.8838 eV  658.14 nm  f=0.3981  <S**2>=0.000
     156 ->157         0.70566
     156 <-157        -0.11650
 This state for optimization and/or second-order correction.
 Total Energy, E(TD-HF/TD-DFT) =  -1948.98671113
 Copying the excited state density for this state as the 1-particle RhoCI density.

 The electronic state is 1-A.
 Alpha  occ. eigenvalues --  -19.19842 -19.19307 -19.15168 -19.14450 -19.11990
 Alpha  occ. eigenvalues --  -19.10561 -14.37668 -14.37451 -14.36496 -14.28464
 Alpha  occ. eigenvalues --  -10.34624 -10.33752 -10.28993 -10.28127 -10.25419
 Alpha  occ. eigenvalues --  -10.24573 -10.23974 -10.23694 -10.23684 -10.23489
 Alpha  occ. eigenvalues --  -10.22344 -10.22248 -10.21915 -10.21840 -10.21387
 Alpha  occ. eigenvalues --  -10.21379 -10.21241 -10.21241 -10.20826 -10.20752
 Alpha  occ. eigenvalues --  -10.20618 -10.20536 -10.20448 -10.20277 -10.20108
 Alpha  occ. eigenvalues --  -10.20103 -10.20075 -10.19904 -10.19474 -10.19463
 Alpha  occ. eigenvalues --  -10.19169 -10.18352 -10.18206  -1.11491  -1.08001
 Alpha  occ. eigenvalues --   -1.02558  -1.02497  -1.00394  -1.00066  -0.98532
 Alpha  occ. eigenvalues --   -0.98157  -0.94667  -0.91212  -0.83434  -0.82910
 Alpha  occ. eigenvalues --   -0.82474  -0.80494  -0.79711  -0.78743  -0.77980
 Alpha  occ. eigenvalues --   -0.77544  -0.76465  -0.75126  -0.73856  -0.73064
 Alpha  occ. eigenvalues --   -0.71750  -0.70044  -0.69220  -0.68663  -0.67631
 Alpha  occ. eigenvalues --   -0.67298  -0.65733  -0.64055  -0.62526  -0.62394
 Alpha  occ. eigenvalues --   -0.61297  -0.58871  -0.58512  -0.57589  -0.57290
 Alpha  occ. eigenvalues --   -0.56219  -0.56065  -0.55336  -0.54249  -0.52353
 Alpha  occ. eigenvalues --   -0.52198  -0.51937  -0.51484  -0.50544  -0.49898
 Alpha  occ. eigenvalues --   -0.49747  -0.49221  -0.48774  -0.48377  -0.47421
 Alpha  occ. eigenvalues --   -0.46944  -0.46823  -0.46153  -0.45783  -0.45554
 Alpha  occ. eigenvalues --   -0.45328  -0.45090  -0.44593  -0.43778  -0.43535
 Alpha  occ. eigenvalues --   -0.43251  -0.43035  -0.42683  -0.42520  -0.42383
 Alpha  occ. eigenvalues --   -0.42201  -0.41808  -0.41541  -0.41185  -0.41019
 Alpha  occ. eigenvalues --   -0.40825  -0.40664  -0.39950  -0.39905  -0.39532
 Alpha  occ. eigenvalues --   -0.39219  -0.39002  -0.38717  -0.38600  -0.38003
 Alpha  occ. eigenvalues --   -0.37842  -0.37647  -0.37286  -0.37040  -0.37024
 Alpha  occ. eigenvalues --   -0.36103  -0.35689  -0.35674  -0.34931  -0.34552
 Alpha  occ. eigenvalues --   -0.34432  -0.34126  -0.33823  -0.33352  -0.33282
 Alpha  occ. eigenvalues --   -0.32817  -0.32570  -0.32206  -0.30879  -0.30276
 Alpha  occ. eigenvalues --   -0.29504  -0.27835  -0.26712  -0.26267  -0.25763
 Alpha  occ. eigenvalues --   -0.25349  -0.24559  -0.23582  -0.22936  -0.21622
 Alpha  occ. eigenvalues --   -0.18101
 Alpha virt. eigenvalues --   -0.10677  -0.06651  -0.04514  -0.02773  -0.01956
 Alpha virt. eigenvalues --   -0.00015   0.01324   0.02206   0.02465   0.03521
 Alpha virt. eigenvalues --    0.03750   0.04359   0.04746   0.04854   0.05124

 Mulliken charges:
               1
     1  O   -0.217731
     2  O   -0.154653
     3  O   -0.264632
     4  O   -0.228904
     5  O   -0.292435
     6  O   -0.234231
     7  N   -0.046128
     8  N    0.045857
     9  N   -0.191630
    10  N   -0.316155
    11  C   -0.096437
    12  C   -0.015020
    13  C   -0.160979
    14  C    0.111956
    15  C   -0.070379
    16  C    0.104761
    17  C   -0.062784
    18  C   -0.158167
    19  C    0.050904
    20  C   -0.093866
    21  C    0.104680
    22  C    0.081787
    23  C    0.016925
    24  C    0.118602
    25  C   -0.209279
    26  C    0.152957
    27  C    0.160863
    28  C    0.021817
    29  C   -0.028528
    30  C    0.051415
    31  C   -0.168529
    32  C   -0.062240
    33  C   -0.116568
    34  C    0.111869
    35  C   -0.096411
    36  C   -0.230131
    37  C    0.152719
    38  C   -0.044029
    39  C    0.224900
    40  C    0.094786
    41  C    0.217030
    42  C    0.097703
    43  C    0.008790
    44  H    0.073241
    45  H    0.036919
    46  H    0.040628
    47  H    0.009813
    48  H    0.052060
    49  H    0.006534
    50  H    0.030213
    51  H    0.120958
    52  H    0.057770
    53  H    0.025442
    54  H   -0.066025
    55  H    0.036924
    56  H    0.148745
    57  H    0.055504
    58  H    0.005743
    59  H    0.040567
    60  H    0.055144
    61  H    0.032148
    62  H    0.027635
    63  H    0.050258
    64  H    0.011367
    65  H    0.041560
    66  H    0.048952
    67  H    0.037354
    68  H    0.046584
    69  H    0.055360
    70  H    0.013630
    71  H    0.049319
    72  H   -0.016098
    73  H    0.013982
    74  H    0.037107
    75  H   -0.009625
    76  H    0.022721
    77  H    0.007796
    78  H    0.026038
    79  H    0.020366
    80  H    0.163309
    81  H    0.219580
 Sum of Mulliken charges =  -0.00000

 Dipole moment (field-independent basis, Debye):
    X=              3.2018    Y=              1.0782    Z=             -0.3363  Tot=              3.3952
 Quadrupole moment (field-independent basis, Debye-Ang):
   XX=           -261.2055   YY=           -239.8384   ZZ=           -258.7009
   XY=            -19.7821   XZ=              9.7063   YZ=             14.3000

 Normal termination of Gaussian 16 at Sun Jun 30 18:58:46 2019.
