 Gaussian 16, Revision A.03,
 Gaussian 16:  ES64L-G16RevA.03 25-Dec-2016

 --------------------------
 # td=(NStates=1) B3LYP/SVP
 --------------------------

 --
 TD
 --
 Symbolic Z-matrix:
 Charge =  0 Multiplicity = 1

                         Standard orientation:
 ---------------------------------------------------------------------
 Center     Atomic      Atomic             Coordinates (Angstroms)
 Number     Number       Type             X           Y           Z
 ---------------------------------------------------------------------
      1          8           0       -4.384041   -4.745127    1.968712
      2          8           0        2.811620   -4.705371    1.362785
      3          8           0        7.045448   -1.532900    1.886405
      4          8           0        3.746823   -3.042700    0.059118
      5          8           0        7.592739   -0.644401   -0.100664
      6          8           0       -3.136638    2.614783   -0.428879
      7          7           0       -0.209305   -0.650260   -0.600995
      8          7           0        1.487351    1.963226   -0.470099
      9          7           0       -3.413398   -3.229289    0.605500
     10          7           0       -0.733833    2.933594   -0.035634
     11          6           0        0.799193   -2.513761   -1.423904
     12          6           0        1.027805   -1.190476   -1.054100
     13          6           0       -0.611856   -2.731955   -1.143915
     14          6           0       -1.293792   -1.588907   -0.733758
     15          6           0        3.722072    1.514638   -0.304131
     16          6           0        2.414278    0.914282   -0.631474
     17          6           0        2.223587   -0.462952   -0.980155
     18          6           0        3.486556    2.809125   -0.010260
     19          6           0        1.814920   -3.374930   -1.938948
     20          6           0       -5.509709   -2.647968    1.357789
     21          6           0       -3.672444   -1.947175    0.043006
     22          6           0        2.081441    3.020995   -0.057264
     23          6           0       -5.071921   -1.677352    0.233280
     24          6           0        5.076806    0.800501   -0.307017
     25          6           0       -2.626008   -1.242669   -0.437628
     26          6           0       -1.374379   -3.973020   -1.667990
     27          6           0       -4.430533   -3.648322    1.438098
     28          6           0        2.254961   -4.595732   -1.101020
     29          6           0        5.396786   -0.077508    0.818513
     30          6           0        4.497280    3.796701    0.433680
     31          6           0        1.271371    4.123758    0.336454
     32          6           0       -6.888098   -3.379139    1.237003
     33          6           0       -5.878236   -0.812253   -0.306051
     34          6           0       -0.096278    4.034081    0.373343
     35          6           0       -1.019099    5.253547    0.598586
     36          6           0       -2.340779    4.737337    0.403022
     37          6           0        3.100853   -4.010644    0.144215
     38          6           0       -5.517490    0.369719   -1.174185
     39          6           0        6.738528   -0.718103    0.757163
     40          6           0       -3.664322    5.474774    0.331911
     41          6           0       -2.185273    3.347488   -0.055738
     42          6           0       -0.574948    6.596152    0.999332
     43          6           0       -4.074109    5.766689   -0.967650
     44          1           0       -0.346038    0.361276   -0.240839
     45          1           0        3.111066   -1.005934   -0.946415
     46          1           0        2.715361   -2.716139   -2.086838
     47          1           0        1.398244   -3.852038   -2.865282
     48          1           0       -5.592337   -2.110620    2.397291
     49          1           0        4.986403    0.104466   -1.123957
     50          1           0        5.861496    1.607788   -0.522640
     51          1           0       -2.778968   -0.247658   -0.698618
     52          1           0        0.487714    1.841189   -0.720644
     53          1           0       -1.251615   -4.826560   -0.995293
     54          1           0       -2.532266   -3.805907   -1.939347
     55          1           0       -0.944675   -4.180861   -2.672519
     56          1           0       -2.663878   -3.558939    0.543139
     57          1           0        1.255318   -5.080330   -0.487867
     58          1           0        2.867750   -5.286356   -1.755841
     59          1           0        4.542647   -0.930314    0.976844
     60          1           0        5.177572    0.393648    1.840598
     61          1           0        4.536255    4.489135   -0.536925
     62          1           0        5.575799    3.448550    0.659842
     63          1           0        4.004086    4.172365    1.367835
     64          1           0        1.630787    4.957220    0.475648
     65          1           0       -7.698894   -2.674914    1.082946
     66          1           0       -6.945481   -3.961987    2.187417
     67          1           0       -7.002196   -4.174679    0.224044
     68          1           0       -6.922922   -0.816740    0.005230
     69          1           0       -5.120739    1.236579   -0.561437
     70          1           0       -6.431856    0.629907   -1.769867
     71          1           0       -4.543931    0.158824   -1.938509
     72          1           0       -3.509265    6.406087    0.830287
     73          1           0       -4.537373    4.949612    1.092218
     74          1           0       -0.038750    6.629824    1.932960
     75          1           0       -1.418492    7.244312    1.158917
     76          1           0       -0.020534    6.900438    0.069274
     77          1           0       -3.387278    6.309638   -1.724172
     78          1           0       -4.969963    6.459097   -1.044249
     79          1           0       -4.639932    4.820191   -1.582908
     80          1           0        3.449000   -4.409123    2.025110
     81          1           0        7.911605   -1.957762    1.612093
 ---------------------------------------------------------------------

 SCF Done:  E(RB3LYP) =  -1949.05996776     A.U. after   16 cycles

 Excitation energies and oscillator strengths:

 Excited State   1:      Singlet-A      1.9071 eV  650.12 nm  f=0.3717  <S**2>=0.000
     156 ->157         0.70651
     156 <-157        -0.11238
 This state for optimization and/or second-order correction.
 Total Energy, E(TD-HF/TD-DFT) =  -1948.98988301
 Copying the excited state density for this state as the 1-particle RhoCI density.

 The electronic state is 1-A.
 Alpha  occ. eigenvalues --  -19.18642 -19.16865 -19.16233 -19.13545 -19.10630
 Alpha  occ. eigenvalues --  -19.10164 -14.37225 -14.36701 -14.34556 -14.29078
 Alpha  occ. eigenvalues --  -10.34168 -10.32650 -10.28503 -10.26897 -10.24289
 Alpha  occ. eigenvalues --  -10.24117 -10.24007 -10.23927 -10.23524 -10.23069
 Alpha  occ. eigenvalues --  -10.22381 -10.22340 -10.21626 -10.21583 -10.21503
 Alpha  occ. eigenvalues --  -10.21414 -10.21023 -10.20923 -10.20580 -10.20528
 Alpha  occ. eigenvalues --  -10.20260 -10.20042 -10.19970 -10.19843 -10.19764
 Alpha  occ. eigenvalues --  -10.19684 -10.19659 -10.19633 -10.19566 -10.19565
 Alpha  occ. eigenvalues --  -10.19089 -10.18586 -10.16701  -1.11125  -1.07939
 Alpha  occ. eigenvalues --   -1.03387  -1.02715  -1.00496  -0.99093  -0.98862
 Alpha  occ. eigenvalues --   -0.95988  -0.95313  -0.90034  -0.83519  -0.83012
 Alpha  occ. eigenvalues --   -0.82499  -0.81260  -0.80449  -0.79591  -0.78511
 Alpha  occ. eigenvalues --   -0.77097  -0.76585  -0.76043  -0.75257  -0.72738
 Alpha  occ. eigenvalues --   -0.71042  -0.70068  -0.69706  -0.68131  -0.67756
 Alpha  occ. eigenvalues --   -0.66980  -0.66323  -0.65228  -0.62165  -0.60887
 Alpha  occ. eigenvalues --   -0.60106  -0.59140  -0.58380  -0.58297  -0.57101
 Alpha  occ. eigenvalues --   -0.56081  -0.55404  -0.54603  -0.53882  -0.53197
 Alpha  occ. eigenvalues --   -0.52279  -0.51777  -0.51350  -0.50723  -0.50312
 Alpha  occ. eigenvalues --   -0.49329  -0.49151  -0.48525  -0.47941  -0.47541
 Alpha  occ. eigenvalues --   -0.46861  -0.46641  -0.46603  -0.46270  -0.45620
 Alpha  occ. eigenvalues --   -0.45422  -0.45181  -0.44669  -0.44134  -0.43921
 Alpha  occ. eigenvalues --   -0.43588  -0.43085  -0.43032  -0.42725  -0.42474
 Alpha  occ. eigenvalues --   -0.42360  -0.41944  -0.41870  -0.41622  -0.41127
 Alpha  occ. eigenvalues --   -0.40805  -0.40726  -0.40418  -0.40313  -0.39994
 Alpha  occ. eigenvalues --   -0.39730  -0.39531  -0.39190  -0.38770  -0.38468
 Alpha  occ. eigenvalues --   -0.38243  -0.37543  -0.37423  -0.36775  -0.36520
 Alpha  occ. eigenvalues --   -0.36112  -0.35711  -0.35346  -0.34912  -0.34601
 Alpha  occ. eigenvalues --   -0.34398  -0.34125  -0.33696  -0.33078  -0.32653
 Alpha  occ. eigenvalues --   -0.32044  -0.31768  -0.30678  -0.30284  -0.30016
 Alpha  occ. eigenvalues --   -0.28707  -0.28092  -0.26663  -0.26383  -0.25720
 Alpha  occ. eigenvalues --   -0.25258  -0.24256  -0.23792  -0.23434  -0.21648
 Alpha  occ. eigenvalues --   -0.18197
 Alpha virt. eigenvalues --   -0.10591  -0.06193  -0.04237  -0.01971  -0.01116
 Alpha virt. eigenvalues --    0.00071   0.02034   0.03172   0.03855   0.04097
 Alpha virt. eigenvalues --    0.04591   0.04892   0.04983   0.05763   0.06147

 Mulliken charges:
               1
     1  O   -0.215013
     2  O   -0.233664
     3  O   -0.263395
     4  O   -0.159504
     5  O   -0.220192
     6  O   -0.243347
     7  N   -0.208472
     8  N   -0.007407
     9  N    0.029588
    10  N   -0.369126
    11  C   -0.080045
    12  C    0.116719
    13  C   -0.174581
    14  C    0.139708
    15  C   -0.104428
    16  C    0.029364
    17  C   -0.044371
    18  C   -0.129645
    19  C    0.086961
    20  C   -0.110374
    21  C    0.088163
    22  C    0.089638
    23  C    0.093657
    24  C    0.145026
    25  C   -0.066026
    26  C   -0.004564
    27  C    0.131955
    28  C   -0.070024
    29  C   -0.072809
    30  C    0.027617
    31  C   -0.034142
    32  C   -0.009178
    33  C   -0.163839
    34  C    0.113608
    35  C   -0.149447
    36  C   -0.150478
    37  C    0.155782
    38  C   -0.019634
    39  C    0.181082
    40  C    0.118031
    41  C    0.191327
    42  C    0.135742
    43  C   -0.065683
    44  H    0.151466
    45  H   -0.023225
    46  H    0.025287
    47  H    0.013162
    48  H    0.064019
    49  H    0.007570
    50  H    0.034055
    51  H   -0.024777
    52  H    0.151503
    53  H    0.035842
    54  H    0.051652
    55  H    0.021869
    56  H   -0.024624
    57  H    0.078878
    58  H    0.061624
    59  H    0.079719
    60  H    0.040364
    61  H    0.053266
    62  H    0.040101
    63  H    0.045953
    64  H   -0.168936
    65  H    0.019525
    66  H    0.049122
    67  H    0.037055
    68  H   -0.010292
    69  H    0.088852
    70  H    0.021211
    71  H    0.050546
    72  H   -0.026444
    73  H    0.035993
    74  H    0.033453
    75  H    0.000203
    76  H    0.044002
    77  H    0.025158
    78  H    0.002207
    79  H    0.039485
    80  H    0.180228
    81  H    0.190343
 Sum of Mulliken charges =  -0.00000

 Dipole moment (field-independent basis, Debye):
    X=              2.3326    Y=              2.4083    Z=              0.0917  Tot=              3.3540
 Quadrupole moment (field-independent basis, Debye-Ang):
   XX=           -253.7779   YY=           -240.7979   ZZ=           -255.2126
   XY=            -17.2226   XZ=              9.3801   YZ=             16.1207

 Normal termination of Gaussian 16 at Sat Jul  6 16:47:26 2019.
