 Gaussian 16, Revision A.03,
 Gaussian 16:  ES64L-G16RevA.03 25-Dec-2016

 --------------------------
 # td=(NStates=1) B3LYP/SVP
 --------------------------

 --
 TD
 --
 Symbolic Z-matrix:
 Charge =  0 Multiplicity = 1

                         Standard orientation:
 ---------------------------------------------------------------------
 Center     Atomic      Atomic             Coordinates (Angstroms)
 Number     Number       Type             X           Y           Z
 ---------------------------------------------------------------------
      1          8           0       -4.423960   -4.659200    2.053056
      2          8           0        3.004806   -4.977853    1.256679
      3          8           0        7.254777   -1.329017    1.966245
      4          8           0        3.633889   -3.088015    0.157390
      5          8           0        7.532312   -0.538412   -0.146400
      6          8           0       -3.044865    2.399944   -0.152648
      7          7           0       -0.307397   -0.483444   -0.598794
      8          7           0        1.526680    1.920887   -0.567430
      9          7           0       -3.425396   -3.278687    0.674263
     10          7           0       -0.834086    2.992900   -0.197630
     11          6           0        0.627187   -2.528452   -1.285144
     12          6           0        0.973885   -1.084739   -0.918422
     13          6           0       -0.709920   -2.709269   -1.323710
     14          6           0       -1.329949   -1.435616   -0.787519
     15          6           0        3.760090    1.503964   -0.371460
     16          6           0        2.486391    0.842648   -0.589100
     17          6           0        2.223003   -0.471952   -0.878651
     18          6           0        3.476403    2.809396    0.010827
     19          6           0        1.707905   -3.438434   -1.931943
     20          6           0       -5.543845   -2.691026    1.316462
     21          6           0       -3.560958   -1.955821    0.118393
     22          6           0        2.090742    3.040694   -0.141622
     23          6           0       -5.000023   -1.510171    0.364748
     24          6           0        5.059080    0.648559   -0.452691
     25          6           0       -2.650391   -1.148166   -0.474341
     26          6           0       -1.498600   -3.718694   -1.916282
     27          6           0       -4.415368   -3.646398    1.358937
     28          6           0        2.145861   -4.519934   -0.914853
     29          6           0        5.353855   -0.171569    0.898566
     30          6           0        4.692883    3.759634    0.348575
     31          6           0        1.305568    4.093530    0.175386
     32          6           0       -6.895398   -3.217555    0.971901
     33          6           0       -5.770290   -0.569175   -0.147249
     34          6           0       -0.102979    4.038186    0.157919
     35          6           0       -1.083427    5.101420    0.383677
     36          6           0       -2.240551    4.668371    0.355631
     37          6           0        2.992220   -4.136600    0.175797
     38          6           0       -5.534969    0.405713   -1.185685
     39          6           0        6.772567   -0.547483    0.856043
     40          6           0       -3.604729    5.239980    0.661567
     41          6           0       -2.096145    3.234602   -0.072077
     42          6           0       -0.680670    6.520979    0.845253
     43          6           0       -4.264894    5.695536   -0.681892
     44          1           0       -0.462416    0.432156   -0.215435
     45          1           0        3.049146   -1.125501   -0.884443
     46          1           0        2.651328   -2.771249   -2.294983
     47          1           0        1.174611   -4.002752   -2.787960
     48          1           0       -5.491267   -2.162650    2.240101
     49          1           0        5.165606    0.038618   -1.343227
     50          1           0        5.729268    1.449394   -0.429462
     51          1           0       -3.089721   -0.141770   -0.654660
     52          1           0        0.535607    1.816197   -0.541465
     53          1           0       -1.435162   -4.523859   -1.074004
     54          1           0       -2.510998   -3.405968   -2.151703
     55          1           0       -0.693616   -4.212302   -2.656980
     56          1           0       -2.534872   -3.830421    0.542764
     57          1           0        1.414628   -5.363743   -0.619802
     58          1           0        2.710802   -5.471291   -1.528457
     59          1           0        4.732717   -1.002708    1.265903
     60          1           0        5.252892    0.357584    1.867506
     61          1           0        4.356156    4.700153   -0.231697
     62          1           0        5.656055    3.467761   -0.205757
     63          1           0        4.916148    3.964275    1.419608
     64          1           0        1.715869    5.248033    0.503957
     65          1           0       -7.736171   -2.461048    1.066555
     66          1           0       -6.954853   -4.155170    1.654120
     67          1           0       -6.935544   -3.546386   -0.077708
     68          1           0       -6.866880   -0.773724    0.195294
     69          1           0       -4.992812    1.478996   -0.765111
     70          1           0       -6.420628    0.771202   -1.541461
     71          1           0       -4.791431   -0.089004   -1.903034
     72          1           0       -3.776816    6.058347    1.359858
     73          1           0       -4.057194    4.287210    1.138331
     74          1           0       -0.254044    6.689086    1.886210
     75          1           0       -1.461956    7.236070    1.013960
     76          1           0        0.042675    7.125474   -0.045419
     77          1           0       -3.669567    6.491380   -1.219940
     78          1           0       -5.311818    5.844342   -0.661855
     79          1           0       -3.824347    5.055757   -1.564484
     80          1           0        3.693700   -4.745724    1.915943
     81          1           0        7.993442   -1.860890    1.519280
 ---------------------------------------------------------------------

 SCF Done:  E(RB3LYP) =  -1949.04718850     A.U. after   24 cycles

 Excitation energies and oscillator strengths:

 Excited State   1:      Singlet-A      1.9135 eV  647.94 nm  f=0.4409  <S**2>=0.000
     156 ->157         0.71284
     156 <-157        -0.13649
 This state for optimization and/or second-order correction.
 Total Energy, E(TD-HF/TD-DFT) =  -1948.97686867
 Copying the excited state density for this state as the 1-particle RhoCI density.

 The electronic state is 1-A.
 Alpha  occ. eigenvalues --  -19.19923 -19.16909 -19.14456 -19.13104 -19.09062
 Alpha  occ. eigenvalues --  -19.08794 -14.39288 -14.38554 -14.35738 -14.27931
 Alpha  occ. eigenvalues --  -10.34296 -10.32602 -10.27549 -10.25562 -10.25222
 Alpha  occ. eigenvalues --  -10.24965 -10.24725 -10.24499 -10.24456 -10.23781
 Alpha  occ. eigenvalues --  -10.22980 -10.22502 -10.22424 -10.22107 -10.21689
 Alpha  occ. eigenvalues --  -10.21303 -10.21291 -10.21090 -10.21061 -10.20802
 Alpha  occ. eigenvalues --  -10.20524 -10.20146 -10.19809 -10.19765 -10.19682
 Alpha  occ. eigenvalues --  -10.19665 -10.19538 -10.19365 -10.18922 -10.18547
 Alpha  occ. eigenvalues --  -10.18023 -10.17733 -10.16686  -1.10325  -1.06159
 Alpha  occ. eigenvalues --   -1.04118  -1.01708  -0.99865  -0.98514  -0.97312
 Alpha  occ. eigenvalues --   -0.96494  -0.95200  -0.93173  -0.84016  -0.82895
 Alpha  occ. eigenvalues --   -0.82217  -0.81538  -0.80111  -0.79863  -0.79233
 Alpha  occ. eigenvalues --   -0.78087  -0.76991  -0.75998  -0.73962  -0.73286
 Alpha  occ. eigenvalues --   -0.71336  -0.70174  -0.69489  -0.68937  -0.68122
 Alpha  occ. eigenvalues --   -0.67510  -0.66270  -0.65308  -0.63035  -0.61952
 Alpha  occ. eigenvalues --   -0.61411  -0.60023  -0.58279  -0.58241  -0.57333
 Alpha  occ. eigenvalues --   -0.56394  -0.56134  -0.55172  -0.53961  -0.53489
 Alpha  occ. eigenvalues --   -0.52936  -0.52742  -0.51375  -0.50793  -0.50399
 Alpha  occ. eigenvalues --   -0.49767  -0.49188  -0.48755  -0.48337  -0.48150
 Alpha  occ. eigenvalues --   -0.47556  -0.46815  -0.46653  -0.46096  -0.45660
 Alpha  occ. eigenvalues --   -0.45319  -0.44657  -0.44246  -0.44035  -0.43631
 Alpha  occ. eigenvalues --   -0.43432  -0.43161  -0.42697  -0.42435  -0.41873
 Alpha  occ. eigenvalues --   -0.41815  -0.41637  -0.41568  -0.41404  -0.41122
 Alpha  occ. eigenvalues --   -0.40976  -0.40663  -0.40447  -0.40149  -0.39820
 Alpha  occ. eigenvalues --   -0.39706  -0.39201  -0.38649  -0.38328  -0.38168
 Alpha  occ. eigenvalues --   -0.37513  -0.37276  -0.37202  -0.36450  -0.36189
 Alpha  occ. eigenvalues --   -0.36046  -0.35392  -0.35156  -0.34870  -0.34616
 Alpha  occ. eigenvalues --   -0.34455  -0.34164  -0.33763  -0.33160  -0.32579
 Alpha  occ. eigenvalues --   -0.31215  -0.30476  -0.30385  -0.30077  -0.29376
 Alpha  occ. eigenvalues --   -0.27986  -0.26953  -0.26365  -0.26156  -0.25864
 Alpha  occ. eigenvalues --   -0.25329  -0.24720  -0.24421  -0.23617  -0.22382
 Alpha  occ. eigenvalues --   -0.17962
 Alpha virt. eigenvalues --   -0.10690  -0.05878  -0.03871  -0.03128  -0.02620
 Alpha virt. eigenvalues --    0.00477   0.01171   0.02025   0.03022   0.03507
 Alpha virt. eigenvalues --    0.04117   0.04310   0.04906   0.05456   0.05755

 Mulliken charges:
               1
     1  O   -0.250315
     2  O   -0.204022
     3  O   -0.279603
     4  O   -0.238071
     5  O   -0.276046
     6  O   -0.271871
     7  N   -0.119347
     8  N   -0.055462
     9  N   -0.017927
    10  N   -0.193683
    11  C   -0.080586
    12  C    0.087262
    13  C   -0.161451
    14  C    0.112844
    15  C   -0.111087
    16  C    0.055287
    17  C   -0.011421
    18  C   -0.141800
    19  C    0.069396
    20  C   -0.016615
    21  C    0.056910
    22  C    0.149324
    23  C   -0.039516
    24  C    0.202410
    25  C   -0.124204
    26  C    0.090585
    27  C    0.014993
    28  C   -0.077702
    29  C    0.025832
    30  C    0.019130
    31  C   -0.171726
    32  C    0.028569
    33  C   -0.169132
    34  C    0.015307
    35  C   -0.047251
    36  C   -0.176859
    37  C    0.168696
    38  C    0.042000
    39  C    0.176514
    40  C    0.091920
    41  C    0.090396
    42  C    0.001786
    43  C   -0.005301
    44  H    0.131288
    45  H   -0.009577
    46  H    0.067297
    47  H    0.026470
    48  H    0.031978
    49  H    0.040249
    50  H   -0.023397
    51  H    0.037745
    52  H    0.093661
    53  H    0.026788
    54  H    0.056530
    55  H    0.023339
    56  H    0.146015
    57  H    0.039575
    58  H    0.066007
    59  H    0.053863
    60  H    0.024247
    61  H    0.032610
    62  H    0.044087
    63  H    0.046378
    64  H    0.035314
    65  H    0.037820
    66  H    0.052712
    67  H    0.009504
    68  H    0.000594
    69  H    0.109330
    70  H   -0.011196
    71  H    0.038795
    72  H   -0.002106
    73  H    0.030040
    74  H    0.028981
    75  H   -0.005553
    76  H    0.030179
    77  H    0.000425
    78  H    0.022044
    79  H    0.009430
    80  H    0.200922
    81  H    0.199446
 Sum of Mulliken charges =  -0.00000

 Dipole moment (field-independent basis, Debye):
    X=              2.5552    Y=             -1.6689    Z=             -1.2508  Tot=              3.2983
 Quadrupole moment (field-independent basis, Debye-Ang):
   XX=           -265.1265   YY=           -240.7990   ZZ=           -257.3140
   XY=            -19.9428   XZ=             15.4119   YZ=             19.1889

 Normal termination of Gaussian 16 at Wed Jul  3 15:46:17 2019.
