 Gaussian 16, Revision A.03,
 Gaussian 16:  ES64L-G16RevA.03 25-Dec-2016

 --------------------------
 # td=(NStates=1) B3LYP/SVP
 --------------------------

 --
 TD
 --
 Symbolic Z-matrix:
 Charge =  0 Multiplicity = 1

                         Standard orientation:
 ---------------------------------------------------------------------
 Center     Atomic      Atomic             Coordinates (Angstroms)
 Number     Number       Type             X           Y           Z
 ---------------------------------------------------------------------
      1          8           0        4.806115   -4.706556   -1.674004
      2          8           0       -2.525141   -4.842066   -1.175059
      3          8           0       -7.092558   -1.731685   -1.818822
      4          8           0       -3.604665   -3.251496   -0.030905
      5          8           0       -7.592212   -0.930968    0.138974
      6          8           0        2.953934    2.561471    0.120869
      7          7           0        0.314831   -0.487698    0.489042
      8          7           0       -1.662786    1.662485    0.137073
      9          7           0        3.653100   -3.044079   -0.521424
     10          7           0        0.653786    2.899859   -0.071322
     11          6           0       -0.496446   -2.411891    1.339117
     12          6           0       -0.804864   -1.069946    0.858778
     13          6           0        0.886789   -2.611642    1.221814
     14          6           0        1.316266   -1.437720    0.602042
     15          6           0       -3.925788    1.286961    0.228806
     16          6           0       -2.549294    0.613957    0.436625
     17          6           0       -2.167842   -0.653625    0.778045
     18          6           0       -3.708574    2.658166   -0.031915
     19          6           0       -1.489123   -3.453606    1.890638
     20          6           0        5.712098   -2.358773   -1.412032
     21          6           0        3.683319   -1.691586   -0.241061
     22          6           0       -2.237039    2.873298   -0.097968
     23          6           0        5.134519   -1.279027   -0.508793
     24          6           0       -5.172712    0.516981    0.519224
     25          6           0        2.668196   -0.999415    0.340122
     26          6           0        1.706063   -3.790211    1.766756
     27          6           0        4.755478   -3.613990   -1.268429
     28          6           0       -1.825037   -4.669257    0.972462
     29          6           0       -5.477033   -0.362627   -0.798005
     30          6           0       -4.812299    3.742898   -0.209272
     31          6           0       -1.535247    4.003722   -0.333194
     32          6           0        7.151564   -2.822598   -1.267970
     33          6           0        5.756981   -0.372711    0.318426
     34          6           0       -0.130510    3.975651   -0.262518
     35          6           0        0.731656    5.236885   -0.403895
     36          6           0        2.032734    4.802997   -0.217745
     37          6           0       -2.836285   -4.248492   -0.082215
     38          6           0        5.358987    0.647939    1.347318
     39          6           0       -6.851849   -0.983437   -0.743626
     40          6           0        3.304994    5.535727   -0.360717
     41          6           0        1.948453    3.330542   -0.006108
     42          6           0        0.133853    6.564702   -0.767235
     43          6           0        4.030579    5.911732    0.924465
     44          1           0        0.387846    0.362248    0.053585
     45          1           0       -2.956876   -1.461586    1.014016
     46          1           0       -2.440304   -3.025795    2.345823
     47          1           0       -1.062807   -3.976758    2.856148
     48          1           0        5.622399   -1.906745   -2.503585
     49          1           0       -5.243929   -0.110386    1.294422
     50          1           0       -5.971026    1.235668    0.564154
     51          1           0        2.723903    0.039824    0.194134
     52          1           0       -0.571519    1.847061    0.308346
     53          1           0        1.509042   -4.926396    1.324545
     54          1           0        2.614484   -3.450111    1.886161
     55          1           0        1.231783   -4.060555    2.784273
     56          1           0        2.769045   -3.578414   -0.293336
     57          1           0       -0.928779   -4.872380    0.276592
     58          1           0       -2.228077   -5.428168    1.717496
     59          1           0       -4.745825   -1.189044   -0.617674
     60          1           0       -5.363590    0.099369   -1.819990
     61          1           0       -4.472323    4.551585    0.471943
     62          1           0       -5.656477    3.314782    0.041037
     63          1           0       -4.884683    3.869747   -1.285350
     64          1           0       -2.026721    5.028120   -0.669757
     65          1           0        7.985517   -1.923396   -1.081552
     66          1           0        7.396483   -3.567157   -2.185257
     67          1           0        7.239009   -3.578877   -0.238538
     68          1           0        6.853194   -0.369466    0.167916
     69          1           0        5.135075    1.655444    1.066403
     70          1           0        6.253441    0.749299    2.193782
     71          1           0        4.587691    0.169781    1.896331
     72          1           0        2.996389    6.335485   -1.071282
     73          1           0        3.854496    4.713436   -1.023486
     74          1           0       -0.427830    6.567173   -1.761248
     75          1           0        0.911931    7.324886   -0.551221
     76          1           0       -0.675291    6.951374    0.020696
     77          1           0        3.416323    6.606813    1.733797
     78          1           0        4.981995    6.474805    0.996708
     79          1           0        4.391526    5.038976    1.589400
     80          1           0       -3.271461   -4.694104   -1.812739
     81          1           0       -7.965863   -2.049736   -1.796323
 ---------------------------------------------------------------------

 SCF Done:  E(RB3LYP) =  -1949.11316964     A.U. after   16 cycles

 Excitation energies and oscillator strengths:

 Excited State   1:      Singlet-A      1.8440 eV  672.38 nm  f=0.3551  <S**2>=0.000
     156 ->157         0.70880
     156 <-157        -0.11476
 This state for optimization and/or second-order correction.
 Total Energy, E(TD-HF/TD-DFT) =  -1949.04540559
 Copying the excited state density for this state as the 1-particle RhoCI density.

 The electronic state is 1-A.
 Alpha  occ. eigenvalues --  -19.21423 -19.16941 -19.13923 -19.12996 -19.12006
 Alpha  occ. eigenvalues --  -19.09573 -14.37524 -14.36308 -14.35164 -14.29452
 Alpha  occ. eigenvalues --  -10.33695 -10.30670 -10.30346 -10.26109 -10.23567
 Alpha  occ. eigenvalues --  -10.23563 -10.23039 -10.22907 -10.22854 -10.22666
 Alpha  occ. eigenvalues --  -10.22551 -10.22340 -10.22075 -10.21857 -10.21055
 Alpha  occ. eigenvalues --  -10.20976 -10.20930 -10.20849 -10.20678 -10.20340
 Alpha  occ. eigenvalues --  -10.20113 -10.20045 -10.19958 -10.19925 -10.19657
 Alpha  occ. eigenvalues --  -10.19589 -10.19436 -10.19177 -10.19164 -10.18989
 Alpha  occ. eigenvalues --  -10.18828 -10.18230 -10.16989  -1.13766  -1.11510
 Alpha  occ. eigenvalues --   -1.06650  -1.02259  -1.00519  -0.99995  -0.98779
 Alpha  occ. eigenvalues --   -0.96039  -0.94223  -0.91292  -0.82125  -0.81340
 Alpha  occ. eigenvalues --   -0.80585  -0.80140  -0.79585  -0.78861  -0.77714
 Alpha  occ. eigenvalues --   -0.76494  -0.76060  -0.74526  -0.73633  -0.72077
 Alpha  occ. eigenvalues --   -0.71258  -0.69721  -0.69005  -0.68605  -0.67559
 Alpha  occ. eigenvalues --   -0.67018  -0.64769  -0.63328  -0.62205  -0.62061
 Alpha  occ. eigenvalues --   -0.61168  -0.59830  -0.58638  -0.58002  -0.56168
 Alpha  occ. eigenvalues --   -0.55453  -0.55059  -0.54664  -0.52752  -0.52495
 Alpha  occ. eigenvalues --   -0.52162  -0.51780  -0.51037  -0.50023  -0.49835
 Alpha  occ. eigenvalues --   -0.49227  -0.48864  -0.48765  -0.47760  -0.47247
 Alpha  occ. eigenvalues --   -0.47061  -0.46164  -0.45717  -0.45459  -0.45348
 Alpha  occ. eigenvalues --   -0.44759  -0.44616  -0.44083  -0.44005  -0.43454
 Alpha  occ. eigenvalues --   -0.43333  -0.43114  -0.42990  -0.42612  -0.42239
 Alpha  occ. eigenvalues --   -0.42082  -0.41609  -0.41433  -0.41203  -0.40705
 Alpha  occ. eigenvalues --   -0.40215  -0.40025  -0.39620  -0.39515  -0.39018
 Alpha  occ. eigenvalues --   -0.38717  -0.38651  -0.38419  -0.38326  -0.38059
 Alpha  occ. eigenvalues --   -0.37537  -0.37397  -0.37311  -0.36771  -0.36511
 Alpha  occ. eigenvalues --   -0.36108  -0.35877  -0.35230  -0.34870  -0.34436
 Alpha  occ. eigenvalues --   -0.33549  -0.33269  -0.33005  -0.32843  -0.32749
 Alpha  occ. eigenvalues --   -0.32399  -0.31650  -0.31270  -0.29371  -0.29240
 Alpha  occ. eigenvalues --   -0.27950  -0.27863  -0.27092  -0.26155  -0.25322
 Alpha  occ. eigenvalues --   -0.24817  -0.24328  -0.23987  -0.23302  -0.21504
 Alpha  occ. eigenvalues --   -0.17083
 Alpha virt. eigenvalues --   -0.09819  -0.05157  -0.02802  -0.02615   0.00001
 Alpha virt. eigenvalues --    0.01757   0.02580   0.02925   0.03370   0.03892
 Alpha virt. eigenvalues --    0.04292   0.04700   0.05565   0.05697   0.06363

 Mulliken charges:
               1
     1  O   -0.136235
     2  O   -0.114642
     3  O   -0.156610
     4  O   -0.270398
     5  O   -0.173070
     6  O   -0.264316
     7  N    0.046150
     8  N   -0.180406
     9  N   -0.202781
    10  N   -0.281526
    11  C   -0.115360
    12  C    0.038622
    13  C   -0.130815
    14  C    0.003853
    15  C   -0.085180
    16  C    0.106547
    17  C   -0.107381
    18  C   -0.216432
    19  C    0.005589
    20  C   -0.090470
    21  C    0.059265
    22  C    0.127804
    23  C   -0.014645
    24  C    0.195364
    25  C   -0.061710
    26  C    0.096077
    27  C    0.170307
    28  C   -0.012226
    29  C   -0.088957
    30  C    0.234842
    31  C   -0.172498
    32  C   -0.082342
    33  C   -0.134635
    34  C    0.056144
    35  C   -0.099224
    36  C   -0.180024
    37  C    0.130014
    38  C    0.088241
    39  C    0.087363
    40  C    0.081771
    41  C    0.162625
    42  C    0.047231
    43  C   -0.042489
    44  H    0.099699
    45  H    0.052463
    46  H    0.027826
    47  H    0.008784
    48  H    0.065708
    49  H   -0.015344
    50  H   -0.009225
    51  H   -0.009460
    52  H    0.190657
    53  H    0.048752
    54  H   -0.001061
    55  H    0.021916
    56  H    0.143477
    57  H    0.065697
    58  H    0.059175
    59  H    0.069920
    60  H    0.042755
    61  H    0.041623
    62  H   -0.055700
    63  H    0.022139
    64  H    0.013698
    65  H    0.060218
    66  H    0.059912
    67  H    0.034915
    68  H   -0.005596
    69  H    0.066992
    70  H    0.004876
    71  H    0.014286
    72  H    0.006544
    73  H    0.041743
    74  H    0.051901
    75  H    0.023598
    76  H    0.030203
    77  H    0.014136
    78  H    0.010354
    79  H    0.031253
    80  H    0.198266
    81  H    0.149462
 Sum of Mulliken charges =  -0.00000

 Dipole moment (field-independent basis, Debye):
    X=             -3.5189    Y=             -0.9099    Z=             -0.7513  Tot=              3.7114
 Quadrupole moment (field-independent basis, Debye-Ang):
   XX=           -254.9960   YY=           -229.5513   ZZ=           -251.1611
   XY=             14.9319   XZ=             17.2902   YZ=             -7.8925

 Normal termination of Gaussian 16 at Sun Jun 30 14:07:51 2019.
