 Gaussian 16, Revision A.03,
 Gaussian 16:  ES64L-G16RevA.03 25-Dec-2016

 --------------------------
 # td=(NStates=1) B3LYP/SVP
 --------------------------

 --
 TD
 --
 Symbolic Z-matrix:
 Charge =  0 Multiplicity = 1

                         Standard orientation:
 ---------------------------------------------------------------------
 Center     Atomic      Atomic             Coordinates (Angstroms)
 Number     Number       Type             X           Y           Z
 ---------------------------------------------------------------------
      1          8           0       -4.903634   -4.553026    1.835231
      2          8           0        2.571022   -4.812614    1.404543
      3          8           0        6.911944   -1.763599    1.923349
      4          8           0        3.552125   -3.238632    0.108572
      5          8           0        7.605716   -1.000733   -0.061004
      6          8           0       -2.886198    2.698845    0.030671
      7          7           0       -0.289638   -0.601447   -0.633423
      8          7           0        1.725618    1.758029   -0.398792
      9          7           0       -3.622061   -3.135177    0.640264
     10          7           0       -0.559593    2.967982   -0.083658
     11          6           0        0.507420   -2.496688   -1.469843
     12          6           0        0.872558   -1.229531   -0.993795
     13          6           0       -0.886955   -2.697424   -1.357346
     14          6           0       -1.452227   -1.422688   -0.802199
     15          6           0        3.889647    1.240030   -0.444629
     16          6           0        2.563558    0.664452   -0.629283
     17          6           0        2.203258   -0.619876   -0.899449
     18          6           0        3.868610    2.545389   -0.044144
     19          6           0        1.474324   -3.554838   -1.783660
     20          6           0       -5.718597   -2.334071    1.323834
     21          6           0       -3.778646   -1.839905    0.032390
     22          6           0        2.329595    2.812919   -0.020472
     23          6           0       -5.140924   -1.327002    0.332805
     24          6           0        5.124686    0.390948   -0.546609
     25          6           0       -2.750124   -0.983687   -0.443914
     26          6           0       -1.803661   -3.754154   -1.826270
     27          6           0       -4.687041   -3.432430    1.372306
     28          6           0        1.862869   -4.668873   -0.840274
     29          6           0        5.451782   -0.396758    0.769925
     30          6           0        4.855361    3.625546    0.319650
     31          6           0        1.579861    4.004801    0.203575
     32          6           0       -7.199348   -2.784606    1.092500
     33          6           0       -5.914885   -0.276071   -0.166410
     34          6           0        0.166030    4.030764    0.170838
     35          6           0       -0.616703    5.256139    0.491271
     36          6           0       -1.896863    4.806446    0.448675
     37          6           0        2.782515   -4.236466    0.215561
     38          6           0       -5.501568    0.746167   -1.285164
     39          6           0        6.795001   -1.083286    0.775942
     40          6           0       -3.255697    5.539061    0.439751
     41          6           0       -1.857341    3.357068    0.175906
     42          6           0       -0.034593    6.660269    0.756085
     43          6           0       -3.923957    5.808435   -0.756409
     44          1           0       -0.292627    0.486607   -0.296732
     45          1           0        2.992159   -1.331056   -1.185455
     46          1           0        2.305932   -3.097933   -1.895802
     47          1           0        0.713972   -3.976071   -2.645678
     48          1           0       -5.384717   -1.807450    2.393957
     49          1           0        5.124434   -0.268224   -1.443334
     50          1           0        6.139322    0.972115   -0.573511
     51          1           0       -3.031286    0.044073   -0.445225
     52          1           0        0.721127    2.047606   -0.429143
     53          1           0       -2.000261   -4.551491   -0.905667
     54          1           0       -2.787415   -3.250641   -2.273339
     55          1           0       -1.271669   -4.192670   -2.672743
     56          1           0       -2.762202   -3.672053    0.734199
     57          1           0        1.155594   -5.256435   -0.451072
     58          1           0        2.374121   -5.432625   -1.350790
     59          1           0        4.473459   -1.009836    0.976041
     60          1           0        5.290879    0.284442    1.588720
     61          1           0        4.487646    4.713675   -0.164637
     62          1           0        5.724663    3.340605   -0.095775
     63          1           0        4.857524    3.627304    1.410957
     64          1           0        1.936273    4.981333    0.429088
     65          1           0       -7.865873   -1.854616    1.279509
     66          1           0       -7.426043   -3.709078    1.670399
     67          1           0       -7.447077   -2.928993    0.004433
     68          1           0       -6.962152   -0.069241    0.134992
     69          1           0       -4.805748    1.629582   -0.949701
     70          1           0       -6.342107    0.974874   -1.867833
     71          1           0       -4.929020    0.215082   -1.975090
     72          1           0       -3.206729    6.378264    1.027826
     73          1           0       -3.802383    4.885543    1.036066
     74          1           0        0.723893    6.480133    1.496091
     75          1           0       -0.817647    7.480668    0.964385
     76          1           0        0.462700    7.173810   -0.211735
     77          1           0       -3.185319    6.567793   -1.356850
     78          1           0       -4.986236    6.244661   -0.709528
     79          1           0       -4.132455    4.948871   -1.442795
     80          1           0        3.204370   -4.535095    2.050841
     81          1           0        7.715155   -2.201649    1.876445
 ---------------------------------------------------------------------

 SCF Done:  E(RB3LYP) =  -1949.09471899     A.U. after   16 cycles

 Excitation energies and oscillator strengths:

 Excited State   1:      Singlet-A      1.9596 eV  632.71 nm  f=0.3927  <S**2>=0.000
     156 ->157         0.70708
 This state for optimization and/or second-order correction.
 Total Energy, E(TD-HF/TD-DFT) =  -1949.02270545
 Copying the excited state density for this state as the 1-particle RhoCI density.

 The electronic state is 1-A.
 Alpha  occ. eigenvalues --  -19.20271 -19.18135 -19.13790 -19.13490 -19.10220
 Alpha  occ. eigenvalues --  -19.09260 -14.37982 -14.37609 -14.36157 -14.29432
 Alpha  occ. eigenvalues --  -10.33940 -10.32169 -10.27914 -10.26295 -10.25368
 Alpha  occ. eigenvalues --  -10.24519 -10.24088 -10.23838 -10.22963 -10.22827
 Alpha  occ. eigenvalues --  -10.21926 -10.21780 -10.21425 -10.21372 -10.21068
 Alpha  occ. eigenvalues --  -10.20921 -10.20914 -10.20801 -10.20606 -10.20526
 Alpha  occ. eigenvalues --  -10.20413 -10.20277 -10.20193 -10.20084 -10.19902
 Alpha  occ. eigenvalues --  -10.19715 -10.19676 -10.19399 -10.18628 -10.18396
 Alpha  occ. eigenvalues --  -10.18381 -10.17305 -10.16666  -1.12000  -1.11390
 Alpha  occ. eigenvalues --   -1.03503  -1.02687  -1.01379  -1.00451  -1.00222
 Alpha  occ. eigenvalues --   -0.96030  -0.94487  -0.93473  -0.83737  -0.83095
 Alpha  occ. eigenvalues --   -0.81056  -0.80603  -0.80289  -0.78972  -0.78281
 Alpha  occ. eigenvalues --   -0.77254  -0.76483  -0.75396  -0.73942  -0.73266
 Alpha  occ. eigenvalues --   -0.71943  -0.69792  -0.69223  -0.68441  -0.68010
 Alpha  occ. eigenvalues --   -0.67373  -0.65702  -0.64522  -0.63425  -0.62195
 Alpha  occ. eigenvalues --   -0.61476  -0.60525  -0.59091  -0.57954  -0.57157
 Alpha  occ. eigenvalues --   -0.56243  -0.55433  -0.54424  -0.54120  -0.53495
 Alpha  occ. eigenvalues --   -0.53050  -0.52560  -0.51297  -0.50860  -0.50201
 Alpha  occ. eigenvalues --   -0.49319  -0.49003  -0.48893  -0.48249  -0.47658
 Alpha  occ. eigenvalues --   -0.47146  -0.46656  -0.46021  -0.45718  -0.45691
 Alpha  occ. eigenvalues --   -0.45231  -0.44957  -0.44457  -0.44308  -0.44092
 Alpha  occ. eigenvalues --   -0.43662  -0.43575  -0.42904  -0.42599  -0.42369
 Alpha  occ. eigenvalues --   -0.41748  -0.41526  -0.41383  -0.41230  -0.40893
 Alpha  occ. eigenvalues --   -0.40794  -0.40550  -0.40269  -0.39987  -0.39806
 Alpha  occ. eigenvalues --   -0.39508  -0.39380  -0.39129  -0.38897  -0.38702
 Alpha  occ. eigenvalues --   -0.38072  -0.38027  -0.37718  -0.37293  -0.37250
 Alpha  occ. eigenvalues --   -0.35864  -0.35762  -0.35218  -0.35163  -0.34086
 Alpha  occ. eigenvalues --   -0.33857  -0.33641  -0.33394  -0.33132  -0.32425
 Alpha  occ. eigenvalues --   -0.32035  -0.31558  -0.31423  -0.30229  -0.29533
 Alpha  occ. eigenvalues --   -0.29252  -0.28816  -0.26438  -0.25623  -0.25269
 Alpha  occ. eigenvalues --   -0.24781  -0.24219  -0.24157  -0.23842  -0.21550
 Alpha  occ. eigenvalues --   -0.17861
 Alpha virt. eigenvalues --   -0.10010  -0.06397  -0.04242  -0.02684   0.00718
 Alpha virt. eigenvalues --    0.00807   0.02003   0.02839   0.03822   0.03955
 Alpha virt. eigenvalues --    0.04335   0.04614   0.05053   0.05432   0.06181

 Mulliken charges:
               1
     1  O   -0.244527
     2  O   -0.142026
     3  O   -0.136669
     4  O   -0.281402
     5  O   -0.176340
     6  O   -0.219883
     7  N   -0.166154
     8  N   -0.021332
     9  N   -0.076273
    10  N   -0.275491
    11  C   -0.114522
    12  C    0.039446
    13  C   -0.172510
    14  C    0.113399
    15  C   -0.089896
    16  C    0.137099
    17  C   -0.034835
    18  C   -0.138451
    19  C    0.129982
    20  C   -0.080256
    21  C    0.064991
    22  C    0.012853
    23  C   -0.018164
    24  C    0.029455
    25  C   -0.060341
    26  C    0.028136
    27  C    0.055792
    28  C    0.210959
    29  C   -0.052485
    30  C    0.141870
    31  C   -0.079535
    32  C    0.041774
    33  C   -0.160773
    34  C   -0.009861
    35  C   -0.073861
    36  C   -0.225054
    37  C    0.094074
    38  C    0.042932
    39  C    0.153691
    40  C    0.226152
    41  C    0.145740
    42  C    0.046065
    43  C   -0.026268
    44  H    0.186952
    45  H    0.016979
    46  H   -0.061579
    47  H    0.033787
    48  H    0.067620
    49  H    0.026953
    50  H    0.021819
    51  H    0.004231
    52  H    0.141960
    53  H    0.042779
    54  H    0.064450
    55  H    0.011368
    56  H    0.139992
    57  H   -0.041238
    58  H    0.013790
    59  H    0.052909
    60  H    0.012741
    61  H    0.054790
    62  H   -0.008598
    63  H    0.039576
    64  H   -0.061824
    65  H    0.026742
    66  H    0.054486
    67  H    0.020999
    68  H    0.011329
    69  H    0.104021
    70  H   -0.009415
    71  H   -0.010183
    72  H   -0.045771
    73  H   -0.027998
    74  H    0.037483
    75  H    0.035907
    76  H    0.041267
    77  H    0.005272
    78  H    0.019734
    79  H    0.020719
    80  H    0.179407
    81  H    0.139046
 Sum of Mulliken charges =  -0.00000

 Dipole moment (field-independent basis, Debye):
    X=              4.0029    Y=              0.4561    Z=              0.6291  Tot=              4.0776
 Quadrupole moment (field-independent basis, Debye-Ang):
   XX=           -258.3368   YY=           -236.3804   ZZ=           -254.9425
   XY=            -19.9500   XZ=             22.3214   YZ=             10.5125

 Normal termination of Gaussian 16 at Sat Jun 29 11:46:30 2019.
