 Gaussian 16, Revision A.03,
 Gaussian 16:  ES64L-G16RevA.03 25-Dec-2016

 --------------------------
 # td=(NStates=1) B3LYP/SVP
 --------------------------

 --
 TD
 --
 Symbolic Z-matrix:
 Charge =  0 Multiplicity = 1

                         Standard orientation:
 ---------------------------------------------------------------------
 Center     Atomic      Atomic             Coordinates (Angstroms)
 Number     Number       Type             X           Y           Z
 ---------------------------------------------------------------------
      1          8           0       -4.777770   -4.712168    1.985905
      2          8           0        3.151060   -4.857842    1.244008
      3          8           0        7.187428   -1.581226    1.751162
      4          8           0        3.953841   -3.084370   -0.029650
      5          8           0        7.658901   -0.628841   -0.307562
      6          8           0       -2.978863    2.599496   -0.273419
      7          7           0       -0.332659   -0.525267   -0.677623
      8          7           0        1.581104    1.791241   -0.360916
      9          7           0       -3.532083   -3.193278    0.634675
     10          7           0       -0.700958    2.996289   -0.183913
     11          6           0        0.638384   -2.463702   -1.297246
     12          6           0        0.911413   -1.124319   -1.032309
     13          6           0       -0.807759   -2.682063   -1.254249
     14          6           0       -1.368985   -1.496286   -0.663079
     15          6           0        3.778638    1.378401   -0.251237
     16          6           0        2.465756    0.792538   -0.513747
     17          6           0        2.152573   -0.498593   -0.824699
     18          6           0        3.637904    2.729768    0.137901
     19          6           0        1.681672   -3.507372   -1.818326
     20          6           0       -5.682903   -2.645748    1.253829
     21          6           0       -3.698169   -1.916673    0.131344
     22          6           0        2.145732    2.968082    0.032117
     23          6           0       -5.099431   -1.532531    0.361391
     24          6           0        5.116139    0.722235   -0.366545
     25          6           0       -2.719588   -1.174923   -0.431634
     26          6           0       -1.541879   -3.960843   -1.646771
     27          6           0       -4.622422   -3.566704    1.474404
     28          6           0        2.034621   -4.586129   -0.840220
     29          6           0        5.493725   -0.228250    0.898829
     30          6           0        4.521602    3.779741    0.405204
     31          6           0        1.426098    4.080864    0.300564
     32          6           0       -7.099029   -3.217581    0.852377
     33          6           0       -5.858601   -0.558593   -0.194232
     34          6           0       -0.031828    4.059649    0.127704
     35          6           0       -0.925203    5.235639    0.447337
     36          6           0       -2.181273    4.755805    0.240824
     37          6           0        3.064718   -4.051204    0.095984
     38          6           0       -5.424772    0.491519   -1.134695
     39          6           0        6.857426   -0.823816    0.637288
     40          6           0       -3.477238    5.437119    0.477808
     41          6           0       -1.967970    3.304770   -0.157068
     42          6           0       -0.502505    6.570093    0.915234
     43          6           0       -4.248567    5.807466   -0.865053
     44          1           0       -0.684065    0.446562   -0.201550
     45          1           0        2.997483   -1.148280   -1.021109
     46          1           0        2.411937   -2.766115   -2.286793
     47          1           0        0.976258   -4.083555   -2.498960
     48          1           0       -5.745352   -2.251334    2.383807
     49          1           0        4.910615    0.111914   -1.272756
     50          1           0        5.952929    1.404376   -0.424389
     51          1           0       -3.115017   -0.200393   -0.179602
     52          1           0        0.638758    1.785004   -0.496194
     53          1           0       -1.289860   -4.691969   -0.880875
     54          1           0       -2.608754   -3.715131   -1.809759
     55          1           0       -1.008802   -4.347736   -2.538131
     56          1           0       -2.616639   -3.784461    0.742461
     57          1           0        1.155981   -4.751636   -0.272465
     58          1           0        2.412838   -5.501700   -1.567460
     59          1           0        4.711658   -1.082151    1.135695
     60          1           0        5.536094    0.170420    1.931444
     61          1           0        4.397733    4.581322   -0.279837
     62          1           0        5.472634    3.435281    0.209961
     63          1           0        4.268169    4.346785    1.325366
     64          1           0        1.891934    4.877770    0.726388
     65          1           0       -7.911234   -2.407062    0.967481
     66          1           0       -7.223160   -4.005930    1.727452
     67          1           0       -7.004746   -3.592033   -0.111538
     68          1           0       -7.057860   -0.643927   -0.083986
     69          1           0       -5.019291    1.513528   -0.953666
     70          1           0       -6.145831    1.014936   -1.743283
     71          1           0       -4.776157    0.015661   -1.858604
     72          1           0       -3.403179    6.125123    1.210531
     73          1           0       -4.145108    4.693659    1.108939
     74          1           0        0.084417    6.554677    1.882674
     75          1           0       -1.386891    7.291721    0.937705
     76          1           0        0.004403    7.356882    0.160926
     77          1           0       -3.916418    6.723567   -1.206133
     78          1           0       -5.521565    5.773996   -0.616467
     79          1           0       -4.014200    5.122642   -1.652894
     80          1           0        3.924765   -4.583487    1.820431
     81          1           0        8.171231   -1.622360    1.841927
 ---------------------------------------------------------------------

 SCF Done:  E(RB3LYP) =  -1949.08033953     A.U. after   16 cycles

 Excitation energies and oscillator strengths:

 Excited State   1:      Singlet-A      1.8850 eV  657.74 nm  f=0.3830  <S**2>=0.000
     156 ->157         0.70812
     156 <-157        -0.11294
 This state for optimization and/or second-order correction.
 Total Energy, E(TD-HF/TD-DFT) =  -1949.01106723
 Copying the excited state density for this state as the 1-particle RhoCI density.

 The electronic state is 1-A.
 Alpha  occ. eigenvalues --  -19.19576 -19.17495 -19.14895 -19.12913 -19.10711
 Alpha  occ. eigenvalues --  -19.09773 -14.37813 -14.37385 -14.35264 -14.29377
 Alpha  occ. eigenvalues --  -10.35119 -10.32359 -10.29043 -10.25948 -10.24474
 Alpha  occ. eigenvalues --  -10.23874 -10.23787 -10.23444 -10.23320 -10.23054
 Alpha  occ. eigenvalues --  -10.23026 -10.21762 -10.21497 -10.21362 -10.21173
 Alpha  occ. eigenvalues --  -10.20757 -10.20646 -10.20563 -10.20548 -10.20432
 Alpha  occ. eigenvalues --  -10.20228 -10.20224 -10.19891 -10.19860 -10.19792
 Alpha  occ. eigenvalues --  -10.19371 -10.19096 -10.18647 -10.18630 -10.18307
 Alpha  occ. eigenvalues --  -10.18143 -10.18061 -10.17154  -1.07415  -1.07058
 Alpha  occ. eigenvalues --   -1.01383  -1.01236  -0.98937  -0.98492  -0.97700
 Alpha  occ. eigenvalues --   -0.95194  -0.94488  -0.94294  -0.82964  -0.82360
 Alpha  occ. eigenvalues --   -0.81729  -0.81437  -0.79967  -0.79681  -0.77817
 Alpha  occ. eigenvalues --   -0.77258  -0.76771  -0.75082  -0.74245  -0.73106
 Alpha  occ. eigenvalues --   -0.72172  -0.69735  -0.68988  -0.68041  -0.67952
 Alpha  occ. eigenvalues --   -0.67796  -0.66188  -0.65121  -0.62922  -0.62240
 Alpha  occ. eigenvalues --   -0.60524  -0.59718  -0.58902  -0.57286  -0.56993
 Alpha  occ. eigenvalues --   -0.56284  -0.55053  -0.54277  -0.53516  -0.53394
 Alpha  occ. eigenvalues --   -0.52836  -0.52115  -0.51327  -0.49975  -0.49597
 Alpha  occ. eigenvalues --   -0.49025  -0.48833  -0.48279  -0.47517  -0.47195
 Alpha  occ. eigenvalues --   -0.46630  -0.46341  -0.45907  -0.45749  -0.45336
 Alpha  occ. eigenvalues --   -0.44777  -0.44585  -0.44343  -0.43957  -0.43801
 Alpha  occ. eigenvalues --   -0.43411  -0.43097  -0.42758  -0.42409  -0.42222
 Alpha  occ. eigenvalues --   -0.41936  -0.41709  -0.41398  -0.41121  -0.40866
 Alpha  occ. eigenvalues --   -0.40658  -0.40484  -0.40115  -0.39924  -0.39518
 Alpha  occ. eigenvalues --   -0.39120  -0.38976  -0.38837  -0.38489  -0.38266
 Alpha  occ. eigenvalues --   -0.38248  -0.37835  -0.37620  -0.37476  -0.36263
 Alpha  occ. eigenvalues --   -0.35907  -0.35727  -0.35118  -0.34648  -0.34185
 Alpha  occ. eigenvalues --   -0.33954  -0.33218  -0.33119  -0.32921  -0.32425
 Alpha  occ. eigenvalues --   -0.32291  -0.31864  -0.31649  -0.30035  -0.29322
 Alpha  occ. eigenvalues --   -0.28058  -0.27956  -0.26458  -0.26146  -0.25097
 Alpha  occ. eigenvalues --   -0.24575  -0.24090  -0.23912  -0.23710  -0.21826
 Alpha  occ. eigenvalues --   -0.17380
 Alpha virt. eigenvalues --   -0.09987  -0.05966  -0.05596  -0.03876  -0.01654
 Alpha virt. eigenvalues --   -0.01227   0.01895   0.02747   0.03311   0.03668
 Alpha virt. eigenvalues --    0.04249   0.04741   0.04821   0.05088   0.05595

 Mulliken charges:
               1
     1  O   -0.266214
     2  O   -0.231732
     3  O   -0.237176
     4  O   -0.301570
     5  O   -0.259005
     6  O   -0.230018
     7  N   -0.221568
     8  N    0.020152
     9  N   -0.181597
    10  N   -0.171733
    11  C   -0.174038
    12  C    0.117680
    13  C   -0.192304
    14  C    0.085190
    15  C   -0.108149
    16  C    0.104319
    17  C   -0.079859
    18  C   -0.134025
    19  C    0.071588
    20  C   -0.057218
    21  C    0.052644
    22  C    0.086336
    23  C    0.005545
    24  C    0.121375
    25  C   -0.081217
    26  C    0.098263
    27  C    0.115560
    28  C    0.061969
    29  C   -0.059475
    30  C    0.200034
    31  C   -0.085782
    32  C    0.051216
    33  C   -0.141573
    34  C    0.047925
    35  C   -0.066877
    36  C   -0.184012
    37  C    0.192795
    38  C    0.035643
    39  C    0.194350
    40  C    0.095077
    41  C    0.102788
    42  C    0.010730
    43  C    0.012736
    44  H    0.202900
    45  H   -0.011036
    46  H    0.053844
    47  H    0.000574
    48  H    0.057700
    49  H    0.034063
    50  H    0.016886
    51  H    0.026013
    52  H    0.067320
    53  H    0.021330
    54  H    0.053017
    55  H    0.017157
    56  H    0.170096
    57  H    0.030416
    58  H    0.100852
    59  H    0.070445
    60  H    0.033972
    61  H   -0.002554
    62  H   -0.021477
    63  H    0.018745
    64  H   -0.079539
    65  H    0.041048
    66  H    0.056625
    67  H    0.019315
    68  H    0.029540
    69  H    0.061896
    70  H   -0.021883
    71  H    0.020943
    72  H   -0.037406
    73  H    0.012967
    74  H    0.043769
    75  H    0.012766
    76  H    0.030311
    77  H   -0.002251
    78  H    0.032957
    79  H    0.020617
    80  H    0.209960
    81  H    0.189331
 Sum of Mulliken charges =  -0.00000

 Dipole moment (field-independent basis, Debye):
    X=              2.2415    Y=              1.1400    Z=              1.1772  Tot=              2.7766
 Quadrupole moment (field-independent basis, Debye-Ang):
   XX=           -256.1539   YY=           -237.9778   ZZ=           -254.0910
   XY=            -12.2953   XZ=             22.7162   YZ=             14.0278

 Normal termination of Gaussian 16 at Thu Jul  4 23:36:03 2019.
