 Gaussian 16, Revision A.03,
 Gaussian 16:  ES64L-G16RevA.03 25-Dec-2016

 --------------------------
 # td=(NStates=1) B3LYP/SVP
 --------------------------

 --
 TD
 --
 Symbolic Z-matrix:
 Charge =  0 Multiplicity = 1

                         Standard orientation:
 ---------------------------------------------------------------------
 Center     Atomic      Atomic             Coordinates (Angstroms)
 Number     Number       Type             X           Y           Z
 ---------------------------------------------------------------------
      1          8           0       -4.253033   -4.784550    2.042354
      2          8           0        3.269326   -4.655387    1.288805
      3          8           0        7.030730   -1.297149    1.762375
      4          8           0        3.983574   -2.961387   -0.105455
      5          8           0        7.595898   -0.565750   -0.249482
      6          8           0       -3.157036    2.407228   -0.342697
      7          7           0       -0.231274   -0.629695   -0.562521
      8          7           0        1.482873    1.865384   -0.249208
      9          7           0       -3.345609   -3.265690    0.662472
     10          7           0       -0.882380    2.938393   -0.047818
     11          6           0        0.834484   -2.442072   -1.346417
     12          6           0        0.962632   -1.143501   -0.853309
     13          6           0       -0.606259   -2.790604   -1.235816
     14          6           0       -1.233914   -1.514225   -0.697238
     15          6           0        3.720239    1.607337   -0.325531
     16          6           0        2.505477    0.894161   -0.450672
     17          6           0        2.138196   -0.402910   -0.811462
     18          6           0        3.394236    2.872450    0.110236
     19          6           0        1.906074   -3.318256   -1.874475
     20          6           0       -5.557800   -2.773324    1.353428
     21          6           0       -3.569446   -2.045157    0.036196
     22          6           0        1.982394    3.028837    0.042384
     23          6           0       -5.105117   -1.766929    0.258662
     24          6           0        5.005529    0.884018   -0.395347
     25          6           0       -2.681520   -1.221702   -0.509865
     26          6           0       -1.266484   -4.035324   -1.614466
     27          6           0       -4.449682   -3.755550    1.408741
     28          6           0        2.292148   -4.453149   -0.908334
     29          6           0        5.431106    0.135020    0.797963
     30          6           0        4.363106    3.885659    0.570366
     31          6           0        1.189006    4.118211    0.393967
     32          6           0       -6.929686   -3.383885    1.262751
     33          6           0       -5.778284   -0.685346   -0.323198
     34          6           0       -0.226691    4.019613    0.234677
     35          6           0       -1.142977    5.136390    0.532813
     36          6           0       -2.439761    4.674678    0.281887
     37          6           0        3.291777   -3.968140    0.012786
     38          6           0       -5.459596    0.251626   -1.410383
     39          6           0        6.824366   -0.516826    0.671246
     40          6           0       -3.802025    5.329578    0.305760
     41          6           0       -2.259850    3.224511   -0.122941
     42          6           0       -0.729936    6.537849    0.890838
     43          6           0       -4.431411    5.607981   -0.983656
     44          1           0       -0.390728    0.224915   -0.165471
     45          1           0        3.024623   -1.001643   -0.956975
     46          1           0        2.738136   -2.806806   -2.164818
     47          1           0        1.588736   -3.795923   -2.822774
     48          1           0       -5.571199   -2.328735    2.433305
     49          1           0        5.107103    0.274547   -1.349601
     50          1           0        5.801970    1.656087   -0.621486
     51          1           0       -2.939983   -0.218849   -0.826528
     52          1           0        0.527822    1.949223   -0.466868
     53          1           0       -1.228296   -4.825317   -0.969099
     54          1           0       -2.402584   -3.936889   -2.008535
     55          1           0       -0.792520   -4.474958   -2.437410
     56          1           0       -2.517976   -3.702084    0.571405
     57          1           0        1.456867   -4.730001   -0.310711
     58          1           0        2.621622   -5.382181   -1.481017
     59          1           0        4.704544   -0.806470    0.905571
     60          1           0        5.466538    0.637724    1.643971
     61          1           0        3.989561    4.841902   -0.064024
     62          1           0        5.429022    3.700245    0.267017
     63          1           0        4.392627    4.089320    1.555081
     64          1           0        1.582433    5.181442    0.655356
     65          1           0       -7.828688   -2.637187    1.253841
     66          1           0       -7.044638   -4.107230    2.261967
     67          1           0       -7.149386   -4.131054    0.271615
     68          1           0       -6.936446   -0.478899    0.007141
     69          1           0       -4.957694    1.228343   -1.186280
     70          1           0       -6.262727    0.406052   -1.948177
     71          1           0       -4.665626   -0.210082   -2.075753
     72          1           0       -3.728120    6.108895    1.060664
     73          1           0       -4.485096    4.387653    0.786997
     74          1           0       -0.099218    6.485496    1.965993
     75          1           0       -1.512559    7.274831    1.201194
     76          1           0        0.046048    7.007829    0.158889
     77          1           0       -3.741441    6.326853   -1.523392
     78          1           0       -5.288684    6.019402   -1.092235
     79          1           0       -4.719613    4.622260   -1.575724
     80          1           0        4.015079   -4.583562    1.874611
     81          1           0        7.827545   -1.714052    1.575049
 ---------------------------------------------------------------------

 SCF Done:  E(RB3LYP) =  -1949.11819989     A.U. after   16 cycles

 Excitation energies and oscillator strengths:

 Excited State   1:      Singlet-A      2.0316 eV  610.28 nm  f=0.3891  <S**2>=0.000
     156 ->157         0.70460
     156 <-157        -0.10976
 This state for optimization and/or second-order correction.
 Total Energy, E(TD-HF/TD-DFT) =  -1949.04354018
 Copying the excited state density for this state as the 1-particle RhoCI density.

 The electronic state is 1-A.
 Alpha  occ. eigenvalues --  -19.17341 -19.17212 -19.15134 -19.13004 -19.11193
 Alpha  occ. eigenvalues --  -19.10657 -14.38124 -14.35995 -14.34796 -14.28199
 Alpha  occ. eigenvalues --  -10.34268 -10.31936 -10.29835 -10.26525 -10.24564
 Alpha  occ. eigenvalues --  -10.24356 -10.23119 -10.22881 -10.22783 -10.22654
 Alpha  occ. eigenvalues --  -10.22271 -10.22221 -10.22142 -10.21767 -10.21720
 Alpha  occ. eigenvalues --  -10.21336 -10.20898 -10.20806 -10.20489 -10.20466
 Alpha  occ. eigenvalues --  -10.20249 -10.20160 -10.20027 -10.19893 -10.19711
 Alpha  occ. eigenvalues --  -10.19669 -10.19654 -10.19538 -10.18849 -10.18789
 Alpha  occ. eigenvalues --  -10.18730 -10.17263 -10.17177  -1.10666  -1.07930
 Alpha  occ. eigenvalues --   -1.03487  -1.00923  -1.00780  -1.00559  -1.00310
 Alpha  occ. eigenvalues --   -0.99300  -0.94514  -0.92220  -0.83835  -0.83379
 Alpha  occ. eigenvalues --   -0.81404  -0.81158  -0.79266  -0.79157  -0.78844
 Alpha  occ. eigenvalues --   -0.78220  -0.76934  -0.75326  -0.74839  -0.73281
 Alpha  occ. eigenvalues --   -0.72085  -0.70031  -0.69854  -0.68915  -0.68368
 Alpha  occ. eigenvalues --   -0.67741  -0.65640  -0.64662  -0.62428  -0.61593
 Alpha  occ. eigenvalues --   -0.60962  -0.60052  -0.58991  -0.58254  -0.57469
 Alpha  occ. eigenvalues --   -0.56676  -0.56265  -0.55453  -0.54400  -0.53188
 Alpha  occ. eigenvalues --   -0.53034  -0.52271  -0.51718  -0.50334  -0.49810
 Alpha  occ. eigenvalues --   -0.49387  -0.49311  -0.48349  -0.48286  -0.47864
 Alpha  occ. eigenvalues --   -0.47310  -0.47078  -0.45852  -0.45511  -0.45189
 Alpha  occ. eigenvalues --   -0.44956  -0.44746  -0.44392  -0.44181  -0.43847
 Alpha  occ. eigenvalues --   -0.43476  -0.43269  -0.43187  -0.42577  -0.42319
 Alpha  occ. eigenvalues --   -0.42290  -0.41820  -0.41732  -0.41286  -0.40997
 Alpha  occ. eigenvalues --   -0.40924  -0.40797  -0.40456  -0.40313  -0.39854
 Alpha  occ. eigenvalues --   -0.39750  -0.39346  -0.39143  -0.38923  -0.38658
 Alpha  occ. eigenvalues --   -0.38491  -0.38396  -0.37988  -0.37612  -0.37039
 Alpha  occ. eigenvalues --   -0.36216  -0.35779  -0.35502  -0.34813  -0.34546
 Alpha  occ. eigenvalues --   -0.33934  -0.33486  -0.33249  -0.33004  -0.32748
 Alpha  occ. eigenvalues --   -0.32392  -0.31712  -0.31314  -0.30313  -0.29828
 Alpha  occ. eigenvalues --   -0.28409  -0.27224  -0.26675  -0.26191  -0.25282
 Alpha  occ. eigenvalues --   -0.25133  -0.24514  -0.23836  -0.22859  -0.21599
 Alpha  occ. eigenvalues --   -0.17945
 Alpha virt. eigenvalues --   -0.09932  -0.05819  -0.03741  -0.03428  -0.01407
 Alpha virt. eigenvalues --    0.00267   0.02477   0.02634   0.03876   0.04356
 Alpha virt. eigenvalues --    0.04911   0.05125   0.05480   0.05546   0.06367

 Mulliken charges:
               1
     1  O   -0.210829
     2  O   -0.264242
     3  O   -0.156182
     4  O   -0.215037
     5  O   -0.216800
     6  O   -0.215545
     7  N    0.065848
     8  N   -0.026351
     9  N   -0.077284
    10  N   -0.286951
    11  C   -0.124774
    12  C    0.069447
    13  C   -0.147980
    14  C   -0.013046
    15  C   -0.019444
    16  C    0.032673
    17  C   -0.042480
    18  C   -0.144340
    19  C    0.154170
    20  C   -0.022360
    21  C    0.123532
    22  C    0.064307
    23  C   -0.003108
    24  C    0.059026
    25  C   -0.097479
    26  C    0.088781
    27  C    0.131685
    28  C    0.050284
    29  C    0.051839
    30  C    0.101670
    31  C   -0.150931
    32  C   -0.084302
    33  C   -0.182568
    34  C    0.048647
    35  C   -0.079709
    36  C   -0.185391
    37  C    0.163263
    38  C    0.091392
    39  C    0.115135
    40  C    0.043090
    41  C    0.163601
    42  C    0.000799
    43  C    0.073553
    44  H    0.095984
    45  H   -0.005156
    46  H   -0.020084
    47  H   -0.001249
    48  H    0.075854
    49  H    0.027012
    50  H    0.000360
    51  H    0.012717
    52  H    0.100182
    53  H    0.005167
    54  H    0.048627
    55  H   -0.021381
    56  H    0.077759
    57  H    0.032827
    58  H    0.062598
    59  H    0.079839
    60  H   -0.020221
    61  H    0.034588
    62  H    0.013936
    63  H    0.002738
    64  H    0.000143
    65  H    0.047226
    66  H    0.055493
    67  H    0.039944
    68  H    0.020978
    69  H    0.078897
    70  H   -0.027186
    71  H    0.015105
    72  H   -0.001170
    73  H    0.027033
    74  H    0.028622
    75  H    0.025421
    76  H    0.049296
    77  H    0.006952
    78  H   -0.046932
    79  H    0.030471
    80  H    0.183064
    81  H    0.138934
 Sum of Mulliken charges =  -0.00000

 Dipole moment (field-independent basis, Debye):
    X=              1.9290    Y=             -0.1422    Z=             -0.4288  Tot=              1.9812
 Quadrupole moment (field-independent basis, Debye-Ang):
   XX=           -247.4408   YY=           -236.3287   ZZ=           -255.3589
   XY=            -16.4882   XZ=             16.0694   YZ=             15.3805

 Normal termination of Gaussian 16 at Thu Jun 27 07:21:30 2019.
