 Gaussian 16, Revision A.03,
 Gaussian 16:  ES64L-G16RevA.03 25-Dec-2016

 --------------------------
 # td=(NStates=1) B3LYP/SVP
 --------------------------

 --
 TD
 --
 Symbolic Z-matrix:
 Charge =  0 Multiplicity = 1

                         Standard orientation:
 ---------------------------------------------------------------------
 Center     Atomic      Atomic             Coordinates (Angstroms)
 Number     Number       Type             X           Y           Z
 ---------------------------------------------------------------------
      1          8           0       -4.678113   -4.565048    1.972341
      2          8           0        2.920848   -4.602841    1.462557
      3          8           0        7.068958   -1.521786    1.796372
      4          8           0        3.635122   -3.057355    0.129909
      5          8           0        7.667978   -0.700423   -0.133378
      6          8           0       -2.958398    2.517964   -0.280804
      7          7           0       -0.311141   -0.561774   -0.695942
      8          7           0        1.582557    1.683215   -0.277478
      9          7           0       -3.525515   -3.159399    0.701762
     10          7           0       -0.700500    2.938137   -0.093407
     11          6           0        0.520990   -2.490044   -1.263839
     12          6           0        0.897837   -1.258511   -0.873336
     13          6           0       -0.850355   -2.630563   -1.328799
     14          6           0       -1.306746   -1.487315   -0.914813
     15          6           0        3.851315    1.286276   -0.480965
     16          6           0        2.485232    0.708070   -0.692592
     17          6           0        2.181000   -0.534739   -0.891944
     18          6           0        3.634941    2.613504   -0.092417
     19          6           0        1.465475   -3.520676   -1.823486
     20          6           0       -5.692959   -2.420269    1.222653
     21          6           0       -3.621457   -1.770882    0.066249
     22          6           0        2.223721    2.898629   -0.019587
     23          6           0       -5.079582   -1.406779    0.388473
     24          6           0        5.127102    0.553672   -0.544628
     25          6           0       -2.684882   -1.114798   -0.528560
     26          6           0       -1.667572   -3.857339   -1.703147
     27          6           0       -4.659827   -3.495118    1.323264
     28          6           0        2.115071   -4.560686   -0.714074
     29          6           0        5.491598   -0.277634    0.704753
     30          6           0        4.730852    3.579119    0.189544
     31          6           0        1.440981    4.072957    0.265663
     32          6           0       -7.099762   -3.074684    0.962241
     33          6           0       -5.903751   -0.413656   -0.175221
     34          6           0        0.038780    4.000571    0.282157
     35          6           0       -0.834891    5.261610    0.589384
     36          6           0       -2.068619    4.768999    0.336886
     37          6           0        3.040319   -3.958418    0.344312
     38          6           0       -5.397657    0.497097   -1.339020
     39          6           0        6.801773   -0.863884    0.709096
     40          6           0       -3.515440    5.391422    0.551009
     41          6           0       -2.066809    3.287548    0.001362
     42          6           0       -0.416232    6.533339    0.900978
     43          6           0       -4.091426    5.711907   -0.764861
     44          1           0       -0.485616    0.423216   -0.197419
     45          1           0        2.951789   -1.259355   -1.029224
     46          1           0        2.392146   -3.100290   -2.307012
     47          1           0        0.879844   -4.105469   -2.636980
     48          1           0       -5.636702   -2.078095    2.414097
     49          1           0        5.066550   -0.166668   -1.359895
     50          1           0        6.140027    1.228361   -0.616277
     51          1           0       -2.991743   -0.065231   -0.589555
     52          1           0        0.467791    1.852126   -0.303947
     53          1           0       -1.338978   -4.681532   -1.162300
     54          1           0       -2.722167   -3.681723   -1.872437
     55          1           0       -1.174938   -4.184404   -2.857507
     56          1           0       -2.789449   -3.895456    0.901424
     57          1           0        1.281669   -5.028126   -0.138084
     58          1           0        2.628618   -5.341518   -1.219850
     59          1           0        4.689123   -0.989207    0.801474
     60          1           0        5.297655    0.158929    1.621810
     61          1           0        4.444824    4.487542   -0.362426
     62          1           0        5.683992    3.144106   -0.082111
     63          1           0        4.468467    3.993332    1.126105
     64          1           0        1.897343    4.947016    0.592315
     65          1           0       -7.792187   -2.364415    1.415087
     66          1           0       -7.005970   -4.102066    1.529923
     67          1           0       -7.179422   -3.318527   -0.257706
     68          1           0       -6.930445   -0.499473    0.156539
     69          1           0       -4.744151    1.195422   -0.944156
     70          1           0       -6.359841    0.924197   -1.706307
     71          1           0       -4.877826   -0.252402   -2.095981
     72          1           0       -3.388227    6.169868    1.288581
     73          1           0       -4.179721    4.714615    1.030417
     74          1           0       -0.054474    6.761687    2.026012
     75          1           0       -1.142136    7.291098    0.852377
     76          1           0        0.527478    7.061485    0.257851
     77          1           0       -3.434549    6.488643   -1.249114
     78          1           0       -5.072316    6.222099   -0.756209
     79          1           0       -4.260563    5.073342   -1.487386
     80          1           0        3.560755   -4.263576    2.062904
     81          1           0        8.080260   -1.797244    2.014030
 ---------------------------------------------------------------------

 SCF Done:  E(RB3LYP) =  -1949.06642031     A.U. after   16 cycles

 Excitation energies and oscillator strengths:

 Excited State   1:      Singlet-A      2.1196 eV  584.93 nm  f=0.3089  <S**2>=0.000
     156 ->157         0.70279
 This state for optimization and/or second-order correction.
 Total Energy, E(TD-HF/TD-DFT) =  -1948.98852501
 Copying the excited state density for this state as the 1-particle RhoCI density.

 The electronic state is 1-A.
 Alpha  occ. eigenvalues --  -19.19563 -19.18686 -19.14315 -19.11554 -19.11278
 Alpha  occ. eigenvalues --  -19.08086 -14.36951 -14.35572 -14.35477 -14.30161
 Alpha  occ. eigenvalues --  -10.32152 -10.31483 -10.27614 -10.26549 -10.25057
 Alpha  occ. eigenvalues --  -10.24424 -10.24039 -10.23256 -10.22223 -10.21884
 Alpha  occ. eigenvalues --  -10.21413 -10.21410 -10.21401 -10.21338 -10.20749
 Alpha  occ. eigenvalues --  -10.20661 -10.20612 -10.20549 -10.20436 -10.20350
 Alpha  occ. eigenvalues --  -10.20318 -10.19989 -10.19918 -10.19814 -10.19418
 Alpha  occ. eigenvalues --  -10.19415 -10.19263 -10.18825 -10.18567 -10.18456
 Alpha  occ. eigenvalues --  -10.18299 -10.17724 -10.16621  -1.15938  -1.10076
 Alpha  occ. eigenvalues --   -1.07168  -1.02781  -1.00636  -0.99159  -0.98006
 Alpha  occ. eigenvalues --   -0.96547  -0.91927  -0.90970  -0.82713  -0.81914
 Alpha  occ. eigenvalues --   -0.81294  -0.80864  -0.80746  -0.79431  -0.78507
 Alpha  occ. eigenvalues --   -0.77209  -0.76802  -0.75695  -0.73985  -0.73082
 Alpha  occ. eigenvalues --   -0.72025  -0.69811  -0.69042  -0.68326  -0.68097
 Alpha  occ. eigenvalues --   -0.67302  -0.65255  -0.63556  -0.62854  -0.62208
 Alpha  occ. eigenvalues --   -0.61487  -0.60891  -0.58875  -0.56616  -0.56307
 Alpha  occ. eigenvalues --   -0.56084  -0.54465  -0.54146  -0.53782  -0.53125
 Alpha  occ. eigenvalues --   -0.52706  -0.52131  -0.51727  -0.51494  -0.51220
 Alpha  occ. eigenvalues --   -0.50592  -0.49626  -0.48591  -0.48090  -0.47745
 Alpha  occ. eigenvalues --   -0.47152  -0.46968  -0.46445  -0.46243  -0.45624
 Alpha  occ. eigenvalues --   -0.45330  -0.44904  -0.44617  -0.44262  -0.43740
 Alpha  occ. eigenvalues --   -0.43129  -0.42917  -0.42773  -0.42575  -0.42343
 Alpha  occ. eigenvalues --   -0.41598  -0.41581  -0.41134  -0.40958  -0.40553
 Alpha  occ. eigenvalues --   -0.40462  -0.40260  -0.40054  -0.39861  -0.39752
 Alpha  occ. eigenvalues --   -0.39621  -0.39124  -0.38799  -0.38380  -0.37814
 Alpha  occ. eigenvalues --   -0.37553  -0.37345  -0.37252  -0.36829  -0.36755
 Alpha  occ. eigenvalues --   -0.36197  -0.36057  -0.35694  -0.35240  -0.34814
 Alpha  occ. eigenvalues --   -0.34308  -0.34100  -0.33664  -0.33421  -0.33021
 Alpha  occ. eigenvalues --   -0.32304  -0.32087  -0.31699  -0.30007  -0.29586
 Alpha  occ. eigenvalues --   -0.28884  -0.27461  -0.25745  -0.25343  -0.25042
 Alpha  occ. eigenvalues --   -0.24660  -0.24319  -0.24101  -0.23616  -0.22000
 Alpha  occ. eigenvalues --   -0.19192
 Alpha virt. eigenvalues --   -0.10427  -0.05693  -0.03659   0.00103   0.00758
 Alpha virt. eigenvalues --    0.01668   0.01956   0.02350   0.03219   0.03577
 Alpha virt. eigenvalues --    0.04074   0.04278   0.05048   0.05463   0.06327

 Mulliken charges:
               1
     1  O   -0.291857
     2  O   -0.113413
     3  O   -0.214754
     4  O   -0.104144
     5  O   -0.245930
     6  O   -0.179079
     7  N   -0.156560
     8  N   -0.204968
     9  N   -0.170687
    10  N   -0.331066
    11  C   -0.070530
    12  C    0.028280
    13  C   -0.166626
    14  C    0.106495
    15  C   -0.063557
    16  C    0.200483
    17  C   -0.062536
    18  C   -0.193177
    19  C    0.031623
    20  C   -0.083575
    21  C    0.169008
    22  C    0.111461
    23  C   -0.038436
    24  C    0.044129
    25  C   -0.134397
    26  C    0.114110
    27  C    0.056060
    28  C   -0.014096
    29  C    0.046037
    30  C    0.216501
    31  C   -0.075540
    32  C   -0.001796
    33  C   -0.125706
    34  C    0.078612
    35  C    0.015117
    36  C   -0.230152
    37  C    0.052488
    38  C    0.038467
    39  C    0.133085
    40  C    0.147495
    41  C    0.192244
    42  C   -0.023650
    43  C    0.056639
    44  H    0.183017
    45  H   -0.018235
    46  H    0.020751
    47  H    0.015183
    48  H    0.064988
    49  H    0.020258
    50  H    0.052698
    51  H    0.008736
    52  H    0.196111
    53  H    0.006374
    54  H    0.041912
    55  H    0.016363
    56  H    0.148511
    57  H    0.021923
    58  H    0.026240
    59  H    0.010811
    60  H   -0.006667
    61  H   -0.000815
    62  H    0.024498
    63  H   -0.009665
    64  H   -0.060316
    65  H    0.033121
    66  H    0.065612
    67  H    0.043804
    68  H   -0.010073
    69  H    0.061670
    70  H    0.017368
    71  H    0.053384
    72  H   -0.013956
    73  H   -0.002527
    74  H    0.038060
    75  H    0.000971
    76  H    0.046007
    77  H   -0.007878
    78  H   -0.007282
    79  H   -0.019569
    80  H    0.156442
    81  H    0.240066
 Sum of Mulliken charges =  -0.00000

 Dipole moment (field-independent basis, Debye):
    X=              4.4582    Y=              2.3532    Z=              1.8159  Tot=              5.3583
 Quadrupole moment (field-independent basis, Debye-Ang):
   XX=           -252.6330   YY=           -238.5605   ZZ=           -254.2027
   XY=            -24.9527   XZ=             27.5120   YZ=             14.5683

 Normal termination of Gaussian 16 at Fri Jul  5 15:52:16 2019.
