 Gaussian 16, Revision A.03,
 Gaussian 16:  ES64L-G16RevA.03 25-Dec-2016

 --------------------------
 # td=(NStates=1) B3LYP/SVP
 --------------------------

 --
 TD
 --
 Symbolic Z-matrix:
 Charge =  0 Multiplicity = 1

                         Standard orientation:
 ---------------------------------------------------------------------
 Center     Atomic      Atomic             Coordinates (Angstroms)
 Number     Number       Type             X           Y           Z
 ---------------------------------------------------------------------
      1          8           0        4.577049   -4.680309   -1.849721
      2          8           0       -3.046317   -4.885545   -1.196215
      3          8           0       -7.092465   -1.441889   -1.763484
      4          8           0       -3.826259   -3.245911   -0.017299
      5          8           0       -7.702785   -0.228829    0.006348
      6          8           0        2.984692    2.450229    0.287337
      7          7           0        0.283884   -0.638518    0.456063
      8          7           0       -1.554716    1.715283    0.351158
      9          7           0        3.496854   -3.039983   -0.601422
     10          7           0        0.664711    2.897347    0.263824
     11          6           0       -0.588000   -2.557741    1.366297
     12          6           0       -0.903365   -1.161881    0.804790
     13          6           0        0.850881   -2.718752    1.238715
     14          6           0        1.291335   -1.439384    0.649666
     15          6           0       -3.625570    1.341876    0.312780
     16          6           0       -2.524689    0.742559    0.443374
     17          6           0       -2.169545   -0.539231    0.718543
     18          6           0       -3.521467    2.697524    0.093016
     19          6           0       -1.527938   -3.523775    1.948090
     20          6           0        5.541737   -2.483676   -1.374397
     21          6           0        3.637035   -1.755178   -0.120169
     22          6           0       -2.162635    2.937126    0.070588
     23          6           0        5.068239   -1.436004   -0.419768
     24          6           0       -5.049372    0.555770    0.385823
     25          6           0        2.612237   -0.995639    0.373397
     26          6           0        1.635487   -3.886725    1.751626
     27          6           0        4.441563   -3.553634   -1.359310
     28          6           0       -2.052557   -4.559472    0.923161
     29          6           0       -5.347640   -0.136203   -0.812342
     30          6           0       -4.518006    3.737597   -0.350136
     31          6           0       -1.427684    4.137095   -0.244926
     32          6           0        6.947460   -3.048166   -1.164032
     33          6           0        5.820639   -0.453194    0.156568
     34          6           0        0.030389    4.065074   -0.154029
     35          6           0        0.945200    5.189246   -0.431048
     36          6           0        2.177749    4.626027   -0.391531
     37          6           0       -3.050069   -4.146013   -0.095204
     38          6           0        5.408828    0.493996    1.186969
     39          6           0       -6.851848   -0.568397   -0.775754
     40          6           0        3.535025    5.245161   -0.447148
     41          6           0        1.986366    3.171858    0.140256
     42          6           0        0.547220    6.550535   -0.909990
     43          6           0        4.219474    5.574082    0.980855
     44          1           0        0.341753    0.180795    0.092270
     45          1           0       -2.902190   -1.254654    1.133062
     46          1           0       -2.509679   -3.099736    2.173767
     47          1           0       -1.105930   -3.955760    2.763343
     48          1           0        5.334531   -2.103605   -2.427037
     49          1           0       -4.857011   -0.350530    1.195538
     50          1           0       -5.958964    1.156457    0.744898
     51          1           0        2.850961    0.033743    0.562901
     52          1           0       -0.523135    1.787477    0.495923
     53          1           0        1.401966   -4.783556    1.179070
     54          1           0        2.744749   -3.608999    1.447670
     55          1           0        1.384907   -4.104314    2.847975
     56          1           0        2.751104   -3.573234   -0.343714
     57          1           0       -1.138655   -4.952053    0.477971
     58          1           0       -2.358787   -5.648492    1.398789
     59          1           0       -4.819408   -1.112686   -0.799599
     60          1           0       -4.986950    0.419916   -1.590766
     61          1           0       -4.080185    4.745245    0.103500
     62          1           0       -5.537375    3.547797    0.580385
     63          1           0       -5.003900    3.757179   -1.490708
     64          1           0       -1.912433    5.120873   -0.486494
     65          1           0        7.791213   -2.119152   -1.251148
     66          1           0        6.945300   -3.647497   -2.080504
     67          1           0        7.105144   -3.585749   -0.220668
     68          1           0        7.002797   -0.325046   -0.328294
     69          1           0        5.131967    1.528243    0.943020
     70          1           0        6.209207    0.846606    1.853032
     71          1           0        4.644655   -0.012910    1.935311
     72          1           0        3.601178    6.207737   -0.901654
     73          1           0        4.241993    4.589661   -0.841110
     74          1           0       -0.089443    6.449277   -1.763505
     75          1           0        1.456027    7.193272   -1.312423
     76          1           0       -0.047630    7.116242   -0.177722
     77          1           0        3.437769    6.295600    1.435700
     78          1           0        5.178958    5.985651    0.729943
     79          1           0        4.297338    4.451147    1.616110
     80          1           0       -3.631968   -4.485800   -1.862153
     81          1           0       -8.035194   -1.584750   -1.824156
 ---------------------------------------------------------------------

 SCF Done:  E(RB3LYP) =  -1949.06300497     A.U. after   17 cycles

 Excitation energies and oscillator strengths:

 Excited State   1:      Singlet-A      1.9153 eV  647.34 nm  f=0.4439  <S**2>=0.000
     156 ->157         0.71078
     156 <-157        -0.13090
 This state for optimization and/or second-order correction.
 Total Energy, E(TD-HF/TD-DFT) =  -1948.99261993
 Copying the excited state density for this state as the 1-particle RhoCI density.

 The electronic state is 1-A.
 Alpha  occ. eigenvalues --  -19.19414 -19.18089 -19.14362 -19.12972 -19.10994
 Alpha  occ. eigenvalues --  -19.09290 -14.39193 -14.37998 -14.33773 -14.28932
 Alpha  occ. eigenvalues --  -10.33864 -10.32017 -10.29192 -10.25735 -10.25494
 Alpha  occ. eigenvalues --  -10.25456 -10.24810 -10.23406 -10.23385 -10.23171
 Alpha  occ. eigenvalues --  -10.22758 -10.22749 -10.22570 -10.22085 -10.22000
 Alpha  occ. eigenvalues --  -10.21810 -10.21464 -10.21328 -10.20520 -10.20385
 Alpha  occ. eigenvalues --  -10.20031 -10.19944 -10.19597 -10.19591 -10.19563
 Alpha  occ. eigenvalues --  -10.19517 -10.18980 -10.18695 -10.18670 -10.18566
 Alpha  occ. eigenvalues --  -10.18520 -10.18176 -10.17487  -1.12818  -1.10287
 Alpha  occ. eigenvalues --   -1.04087  -1.02980  -1.02674  -1.01015  -0.99588
 Alpha  occ. eigenvalues --   -0.98318  -0.97498  -0.90863  -0.84284  -0.82811
 Alpha  occ. eigenvalues --   -0.82296  -0.81864  -0.80145  -0.79164  -0.79059
 Alpha  occ. eigenvalues --   -0.77783  -0.76727  -0.75271  -0.74461  -0.73195
 Alpha  occ. eigenvalues --   -0.71972  -0.71246  -0.70161  -0.68658  -0.68054
 Alpha  occ. eigenvalues --   -0.66226  -0.66008  -0.65041  -0.63248  -0.62733
 Alpha  occ. eigenvalues --   -0.61037  -0.60036  -0.59862  -0.58865  -0.58299
 Alpha  occ. eigenvalues --   -0.57101  -0.55595  -0.55023  -0.53793  -0.53589
 Alpha  occ. eigenvalues --   -0.53093  -0.52133  -0.51642  -0.50628  -0.50194
 Alpha  occ. eigenvalues --   -0.49935  -0.49624  -0.49051  -0.48635  -0.48262
 Alpha  occ. eigenvalues --   -0.47834  -0.47283  -0.46698  -0.46126  -0.45663
 Alpha  occ. eigenvalues --   -0.45244  -0.44870  -0.44405  -0.44197  -0.43789
 Alpha  occ. eigenvalues --   -0.43666  -0.43530  -0.43333  -0.42802  -0.42678
 Alpha  occ. eigenvalues --   -0.42430  -0.42237  -0.41752  -0.41640  -0.41149
 Alpha  occ. eigenvalues --   -0.41031  -0.40805  -0.40422  -0.40254  -0.39886
 Alpha  occ. eigenvalues --   -0.39453  -0.38846  -0.38691  -0.38309  -0.38283
 Alpha  occ. eigenvalues --   -0.37957  -0.37728  -0.36874  -0.36656  -0.35871
 Alpha  occ. eigenvalues --   -0.35444  -0.35286  -0.34947  -0.34611  -0.34257
 Alpha  occ. eigenvalues --   -0.33744  -0.33357  -0.32940  -0.32822  -0.32542
 Alpha  occ. eigenvalues --   -0.32351  -0.32212  -0.31392  -0.30343  -0.29979
 Alpha  occ. eigenvalues --   -0.28613  -0.28082  -0.26918  -0.26703  -0.26221
 Alpha  occ. eigenvalues --   -0.25080  -0.24503  -0.23236  -0.22836  -0.22199
 Alpha  occ. eigenvalues --   -0.18271
 Alpha virt. eigenvalues --   -0.10968  -0.05844  -0.04476  -0.02053   0.00336
 Alpha virt. eigenvalues --    0.00586   0.01772   0.02547   0.03043   0.03285
 Alpha virt. eigenvalues --    0.04254   0.04463   0.04564   0.05039   0.05795

 Mulliken charges:
               1
     1  O   -0.237467
     2  O   -0.162321
     3  O   -0.164089
     4  O   -0.203952
     5  O   -0.213624
     6  O   -0.252991
     7  N    0.165142
     8  N   -0.145403
     9  N   -0.012972
    10  N   -0.301748
    11  C   -0.121499
    12  C   -0.066533
    13  C   -0.166071
    14  C    0.029684
    15  C   -0.057802
    16  C    0.183414
    17  C   -0.030656
    18  C   -0.105514
    19  C    0.206697
    20  C   -0.077956
    21  C    0.035257
    22  C    0.088635
    23  C   -0.001001
    24  C   -0.002608
    25  C   -0.076289
    26  C    0.048191
    27  C    0.073373
    28  C   -0.063051
    29  C    0.045947
    30  C   -0.069193
    31  C   -0.120988
    32  C    0.035720
    33  C   -0.150152
    34  C    0.073466
    35  C   -0.087213
    36  C   -0.167523
    37  C    0.122088
    38  C    0.043544
    39  C    0.123246
    40  C    0.106738
    41  C    0.153050
    42  C    0.090182
    43  C   -0.097285
    44  H    0.042155
    45  H    0.002016
    46  H    0.016134
    47  H   -0.031532
    48  H    0.046985
    49  H    0.015336
    50  H    0.044751
    51  H    0.012730
    52  H    0.132676
    53  H    0.033296
    54  H    0.049545
    55  H    0.058508
    56  H    0.078318
    57  H    0.016070
    58  H    0.067393
    59  H    0.043147
    60  H    0.009969
    61  H    0.049940
    62  H    0.032397
    63  H    0.082284
    64  H   -0.008279
    65  H    0.034935
    66  H    0.038438
    67  H    0.030482
    68  H    0.030888
    69  H    0.060581
    70  H   -0.006903
    71  H    0.039856
    72  H   -0.017389
    73  H   -0.011121
    74  H    0.013323
    75  H    0.030312
    76  H    0.019908
    77  H    0.032448
    78  H    0.023614
    79  H    0.059611
    80  H    0.190834
    81  H    0.167870
 Sum of Mulliken charges =  -0.00000

 Dipole moment (field-independent basis, Debye):
    X=             -1.8774    Y=             -1.5781    Z=             -0.3372  Tot=              2.4756
 Quadrupole moment (field-independent basis, Debye-Ang):
   XX=           -263.4064   YY=           -242.5793   ZZ=           -252.8923
   XY=             20.9156   XZ=             20.4684   YZ=            -19.0010

 Normal termination of Gaussian 16 at Tue Jul  2 07:30:37 2019.
