 Gaussian 16, Revision A.03,
 Gaussian 16:  ES64L-G16RevA.03 25-Dec-2016

 --------------------------
 # td=(NStates=1) B3LYP/SVP
 --------------------------

 --
 TD
 --
 Symbolic Z-matrix:
 Charge =  0 Multiplicity = 1

                         Standard orientation:
 ---------------------------------------------------------------------
 Center     Atomic      Atomic             Coordinates (Angstroms)
 Number     Number       Type             X           Y           Z
 ---------------------------------------------------------------------
      1          8           0       -4.562954   -4.657765    1.864650
      2          8           0        2.921125   -4.951985    1.220491
      3          8           0        7.073356   -1.605916    2.161304
      4          8           0        3.557133   -3.151469    0.008600
      5          8           0        7.391076   -1.051987    0.001144
      6          8           0       -2.855883    2.635163   -0.203998
      7          7           0       -0.366316   -0.647702   -0.720230
      8          7           0        1.585757    1.816283   -0.517122
      9          7           0       -3.526716   -3.032427    0.645310
     10          7           0       -0.592492    2.989513   -0.032234
     11          6           0        0.515323   -2.461219   -1.456581
     12          6           0        0.817925   -1.220773   -0.960413
     13          6           0       -0.885878   -2.706237   -1.313817
     14          6           0       -1.382251   -1.432921   -0.799356
     15          6           0        3.857201    1.251183   -0.457923
     16          6           0        2.489102    0.773765   -0.762950
     17          6           0        2.161953   -0.509419   -1.021753
     18          6           0        3.707405    2.586506   -0.096646
     19          6           0        1.462178   -3.488962   -2.007457
     20          6           0       -5.710247   -2.517234    1.350988
     21          6           0       -3.712966   -1.774881    0.094456
     22          6           0        2.252398    2.904927   -0.088692
     23          6           0       -5.110378   -1.460839    0.404980
     24          6           0        5.134096    0.487752   -0.422483
     25          6           0       -2.797814   -1.063212   -0.526891
     26          6           0       -1.702108   -3.865627   -1.770482
     27          6           0       -4.570687   -3.606215    1.366048
     28          6           0        1.798223   -4.601829   -0.880056
     29          6           0        5.304442   -0.285127    0.883846
     30          6           0        4.786078    3.574904    0.262528
     31          6           0        1.569230    4.138007    0.233563
     32          6           0       -7.031171   -3.077450    1.133099
     33          6           0       -5.848678   -0.451511   -0.086124
     34          6           0        0.104486    4.103571    0.083082
     35          6           0       -0.677416    5.296033    0.455751
     36          6           0       -1.989373    4.927746    0.262587
     37          6           0        2.731938   -4.072567    0.196651
     38          6           0       -5.474873    0.639129   -1.099585
     39          6           0        6.701787   -1.028526    0.911724
     40          6           0       -3.287236    5.586805    0.591151
     41          6           0       -1.910472    3.397682    0.097871
     42          6           0       -0.124635    6.555618    0.769291
     43          6           0       -4.147310    6.023836   -0.631818
     44          1           0       -0.662755    0.457246   -0.379947
     45          1           0        2.975820   -1.088709   -1.002993
     46          1           0        2.351216   -3.002550   -2.266759
     47          1           0        1.013958   -4.144022   -2.819914
     48          1           0       -5.629142   -2.229262    2.446090
     49          1           0        5.330274   -0.143876   -1.347821
     50          1           0        6.005495    1.249171   -0.556583
     51          1           0       -2.967526    0.043771   -0.518902
     52          1           0        0.625426    1.811199   -0.711287
     53          1           0       -1.615492   -4.945730   -0.978244
     54          1           0       -2.763585   -3.365511   -1.990139
     55          1           0       -1.229314   -4.411079   -2.614029
     56          1           0       -2.537953   -3.462421    0.598980
     57          1           0        0.975015   -4.720558   -0.309760
     58          1           0        2.338518   -5.604633   -1.163923
     59          1           0        4.682960   -1.110623    0.956561
     60          1           0        5.046377    0.312447    1.837450
     61          1           0        4.479183    4.301018   -0.478830
     62          1           0        5.770643    3.185066    0.046403
     63          1           0        4.781159    3.898113    1.191226
     64          1           0        2.084581    5.081894    0.209454
     65          1           0       -7.904458   -2.474904    1.465256
     66          1           0       -7.044876   -4.006259    1.772860
     67          1           0       -7.296934   -3.460588   -0.056062
     68          1           0       -6.791887   -0.298065    0.253035
     69          1           0       -4.896813    1.539573   -0.586821
     70          1           0       -6.340937    1.060612   -1.658110
     71          1           0       -4.585717    0.202626   -1.802525
     72          1           0       -3.159681    6.481900    1.202006
     73          1           0       -3.891306    4.950771    1.075964
     74          1           0        0.391155    6.419794    1.747127
     75          1           0       -0.773318    7.446590    0.888431
     76          1           0        0.686084    6.682933   -0.007858
     77          1           0       -3.588313    6.515199   -1.391263
     78          1           0       -4.972999    6.676062   -0.208954
     79          1           0       -4.655340    5.135234   -0.944637
     80          1           0        3.631462   -4.415645    1.722988
     81          1           0        8.064926   -1.912270    2.046402
 ---------------------------------------------------------------------

 SCF Done:  E(RB3LYP) =  -1949.11736970     A.U. after   16 cycles

 Excitation energies and oscillator strengths:

 Excited State   1:      Singlet-A      1.9632 eV  631.55 nm  f=0.2834  <S**2>=0.000
     156 ->157         0.70498
 This state for optimization and/or second-order correction.
 Total Energy, E(TD-HF/TD-DFT) =  -1949.04522477
 Copying the excited state density for this state as the 1-particle RhoCI density.

 The electronic state is 1-A.
 Alpha  occ. eigenvalues --  -19.19999 -19.17345 -19.14141 -19.13923 -19.11438
 Alpha  occ. eigenvalues --  -19.10777 -14.38875 -14.36628 -14.36242 -14.29492
 Alpha  occ. eigenvalues --  -10.33408 -10.32084 -10.28758 -10.26938 -10.25349
 Alpha  occ. eigenvalues --  -10.23551 -10.23465 -10.23454 -10.22836 -10.22772
 Alpha  occ. eigenvalues --  -10.22078 -10.21701 -10.21620 -10.21340 -10.21114
 Alpha  occ. eigenvalues --  -10.20995 -10.20797 -10.20727 -10.20466 -10.19953
 Alpha  occ. eigenvalues --  -10.19798 -10.19757 -10.19425 -10.19384 -10.19124
 Alpha  occ. eigenvalues --  -10.19065 -10.18963 -10.18831 -10.18773 -10.18639
 Alpha  occ. eigenvalues --  -10.18433 -10.17886 -10.17480  -1.10522  -1.10143
 Alpha  occ. eigenvalues --   -1.05961  -1.00730  -1.00548  -1.00044  -0.99999
 Alpha  occ. eigenvalues --   -0.98596  -0.95006  -0.92606  -0.82993  -0.81795
 Alpha  occ. eigenvalues --   -0.80930  -0.80862  -0.80723  -0.78962  -0.77517
 Alpha  occ. eigenvalues --   -0.77125  -0.76907  -0.75752  -0.73995  -0.72728
 Alpha  occ. eigenvalues --   -0.71777  -0.69670  -0.69023  -0.67979  -0.67669
 Alpha  occ. eigenvalues --   -0.67046  -0.64887  -0.63384  -0.62182  -0.61223
 Alpha  occ. eigenvalues --   -0.59398  -0.58605  -0.58363  -0.57228  -0.56994
 Alpha  occ. eigenvalues --   -0.55834  -0.55346  -0.54864  -0.53245  -0.52928
 Alpha  occ. eigenvalues --   -0.52571  -0.52157  -0.50354  -0.50306  -0.49915
 Alpha  occ. eigenvalues --   -0.49714  -0.48946  -0.48443  -0.48219  -0.47656
 Alpha  occ. eigenvalues --   -0.47227  -0.46992  -0.46602  -0.46517  -0.45728
 Alpha  occ. eigenvalues --   -0.45286  -0.45122  -0.44798  -0.44154  -0.43921
 Alpha  occ. eigenvalues --   -0.43784  -0.43281  -0.43216  -0.42580  -0.42197
 Alpha  occ. eigenvalues --   -0.42038  -0.41896  -0.41759  -0.41198  -0.41190
 Alpha  occ. eigenvalues --   -0.40875  -0.40598  -0.40138  -0.39827  -0.39750
 Alpha  occ. eigenvalues --   -0.39549  -0.39127  -0.39018  -0.38907  -0.38480
 Alpha  occ. eigenvalues --   -0.38032  -0.37774  -0.37439  -0.37079  -0.36877
 Alpha  occ. eigenvalues --   -0.36614  -0.36286  -0.35426  -0.35208  -0.34920
 Alpha  occ. eigenvalues --   -0.34684  -0.34190  -0.33901  -0.33312  -0.33107
 Alpha  occ. eigenvalues --   -0.32826  -0.32528  -0.31825  -0.29966  -0.29186
 Alpha  occ. eigenvalues --   -0.28874  -0.28556  -0.26481  -0.26157  -0.25842
 Alpha  occ. eigenvalues --   -0.24892  -0.24696  -0.23856  -0.23407  -0.21637
 Alpha  occ. eigenvalues --   -0.18304
 Alpha virt. eigenvalues --   -0.10126  -0.05758  -0.03529  -0.02805   0.01202
 Alpha virt. eigenvalues --    0.01453   0.01784   0.02822   0.03258   0.03636
 Alpha virt. eigenvalues --    0.03828   0.04481   0.04949   0.05172   0.05359

 Mulliken charges:
               1
     1  O   -0.145016
     2  O   -0.201946
     3  O   -0.292653
     4  O   -0.276351
     5  O   -0.145425
     6  O   -0.238940
     7  N   -0.041808
     8  N   -0.031165
     9  N   -0.158966
    10  N   -0.273957
    11  C   -0.146564
    12  C    0.025276
    13  C   -0.143999
    14  C   -0.038754
    15  C   -0.063538
    16  C    0.067544
    17  C    0.020035
    18  C   -0.168902
    19  C    0.163739
    20  C   -0.054638
    21  C    0.148758
    22  C    0.079784
    23  C    0.021412
    24  C    0.052230
    25  C   -0.149106
    26  C   -0.024930
    27  C    0.096419
    28  C    0.046741
    29  C    0.024167
    30  C    0.200850
    31  C   -0.106218
    32  C   -0.005633
    33  C   -0.106335
    34  C    0.046322
    35  C   -0.125219
    36  C   -0.149575
    37  C    0.131048
    38  C   -0.038855
    39  C    0.133534
    40  C    0.122979
    41  C    0.147277
    42  C    0.100404
    43  C    0.002463
    44  H    0.217847
    45  H   -0.056574
    46  H   -0.004063
    47  H    0.017356
    48  H    0.042442
    49  H    0.035947
    50  H    0.022638
    51  H    0.027574
    52  H    0.107309
    53  H    0.026721
    54  H    0.077913
    55  H    0.013866
    56  H    0.153780
    57  H   -0.004905
    58  H    0.076610
    59  H    0.014053
    60  H    0.044266
    61  H    0.025613
    62  H   -0.003241
    63  H   -0.006510
    64  H   -0.022642
    65  H    0.021475
    66  H    0.033850
    67  H    0.033249
    68  H   -0.048644
    69  H    0.090356
    70  H    0.021350
    71  H    0.043661
    72  H   -0.012037
    73  H   -0.026075
    74  H    0.027562
    75  H    0.024004
    76  H    0.036035
    77  H    0.012859
    78  H    0.006287
    79  H    0.018736
    80  H    0.201593
    81  H    0.207248
 Sum of Mulliken charges =  -0.00000

 Dipole moment (field-independent basis, Debye):
    X=              3.6169    Y=              2.7093    Z=              0.6973  Tot=              4.5726
 Quadrupole moment (field-independent basis, Debye-Ang):
   XX=           -245.8628   YY=           -241.1321   ZZ=           -256.5172
   XY=            -10.9820   XZ=              8.7672   YZ=             11.7434

 Normal termination of Gaussian 16 at Sat Jun 29 01:50:19 2019.
