 Gaussian 16, Revision A.03,
 Gaussian 16:  ES64L-G16RevA.03 25-Dec-2016

 --------------------------
 # td=(NStates=1) B3LYP/SVP
 --------------------------

 --
 TD
 --
 Symbolic Z-matrix:
 Charge =  0 Multiplicity = 1

                         Standard orientation:
 ---------------------------------------------------------------------
 Center     Atomic      Atomic             Coordinates (Angstroms)
 Number     Number       Type             X           Y           Z
 ---------------------------------------------------------------------
      1          8           0       -4.657142   -4.530070    1.986721
      2          8           0        2.958130   -4.820653    1.384293
      3          8           0        6.946942   -1.825910    1.661798
      4          8           0        3.582125   -3.055884    0.093380
      5          8           0        7.680202   -0.739233   -0.082070
      6          8           0       -2.912741    2.585129   -0.289245
      7          7           0       -0.309477   -0.552724   -0.681093
      8          7           0        1.595410    1.828078   -0.395115
      9          7           0       -3.518395   -3.029741    0.655150
     10          7           0       -0.683739    2.968208   -0.113139
     11          6           0        0.615617   -2.488416   -1.331771
     12          6           0        0.791125   -1.101976   -1.042154
     13          6           0       -0.833483   -2.664718   -1.220754
     14          6           0       -1.446938   -1.457608   -0.765737
     15          6           0        3.801272    1.276757   -0.451973
     16          6           0        2.434719    0.762103   -0.642163
     17          6           0        2.171431   -0.507293   -0.934741
     18          6           0        3.720288    2.593415   -0.097199
     19          6           0        1.519778   -3.484439   -1.873928
     20          6           0       -5.672328   -2.439343    1.245516
     21          6           0       -3.755106   -1.821803    0.016410
     22          6           0        2.282948    2.964729   -0.065299
     23          6           0       -5.141851   -1.486313    0.408269
     24          6           0        5.144240    0.557912   -0.462217
     25          6           0       -2.812496   -1.047592   -0.534382
     26          6           0       -1.629448   -3.907118   -1.694388
     27          6           0       -4.611346   -3.544338    1.375577
     28          6           0        1.927830   -4.555354   -0.770434
     29          6           0        5.460213   -0.248521    0.810306
     30          6           0        4.726977    3.562979    0.329978
     31          6           0        1.538560    4.056250    0.310435
     32          6           0       -7.065577   -3.099669    0.982960
     33          6           0       -5.836294   -0.448173   -0.171186
     34          6           0        0.146105    3.999386    0.309575
     35          6           0       -0.800784    5.171250    0.577741
     36          6           0       -2.035521    4.720777    0.415109
     37          6           0        2.863137   -4.029735    0.320609
     38          6           0       -5.510498    0.613204   -1.186250
     39          6           0        6.782372   -0.959574    0.668515
     40          6           0       -3.373011    5.478502    0.488523
     41          6           0       -1.933389    3.316198   -0.104152
     42          6           0       -0.316456    6.472457    1.054122
     43          6           0       -3.987266    5.896905   -0.859340
     44          1           0       -0.680062    0.408885   -0.371041
     45          1           0        2.867934   -1.217724   -1.039146
     46          1           0        2.380549   -2.947918   -2.192423
     47          1           0        1.149804   -4.256892   -2.574698
     48          1           0       -5.566890   -2.218104    2.291410
     49          1           0        4.905462   -0.133563   -1.310997
     50          1           0        5.908212    1.194924   -0.760687
     51          1           0       -3.012416    0.167198   -0.595386
     52          1           0        0.654880    1.854492   -0.539233
     53          1           0       -1.622184   -4.663027   -0.915329
     54          1           0       -2.654355   -3.521878   -1.786520
     55          1           0       -1.260955   -4.299811   -2.708078
     56          1           0       -2.557866   -3.430622    0.715074
     57          1           0        1.008351   -5.223781   -0.371529
     58          1           0        2.390771   -5.351483   -1.450725
     59          1           0        4.607969   -0.946296    1.131568
     60          1           0        5.790597    0.527539    1.731927
     61          1           0        4.375025    4.566020    0.039343
     62          1           0        5.717432    3.320611   -0.338843
     63          1           0        4.926382    3.654603    1.648848
     64          1           0        1.931539    4.960865    0.664526
     65          1           0       -7.845229   -2.247421    1.053970
     66          1           0       -7.340939   -4.124745    1.532153
     67          1           0       -7.169417   -3.334421   -0.053447
     68          1           0       -7.006765   -0.512390    0.126125
     69          1           0       -4.500350    1.377836   -0.864734
     70          1           0       -6.433251    1.145932   -1.400432
     71          1           0       -5.005993    0.025661   -2.087175
     72          1           0       -3.355861    6.217593    1.228973
     73          1           0       -4.183477    4.612818    0.808020
     74          1           0        0.387931    6.471455    1.969390
     75          1           0       -1.220582    7.063350    1.376462
     76          1           0        0.147909    7.181066    0.262415
     77          1           0       -3.241633    6.359168   -1.461069
     78          1           0       -4.775764    6.540789   -1.049761
     79          1           0       -4.685180    4.987495   -1.402551
     80          1           0        3.752400   -4.465303    2.108955
     81          1           0        7.860399   -2.051718    1.651567
 ---------------------------------------------------------------------

 SCF Done:  E(RB3LYP) =  -1949.07763690     A.U. after   16 cycles

 Excitation energies and oscillator strengths:

 Excited State   1:      Singlet-A      1.7748 eV  698.58 nm  f=0.3127  <S**2>=0.000
     156 ->157         0.70849
     156 <-157        -0.10033
 This state for optimization and/or second-order correction.
 Total Energy, E(TD-HF/TD-DFT) =  -1949.01241440
 Copying the excited state density for this state as the 1-particle RhoCI density.

 The electronic state is 1-A.
 Alpha  occ. eigenvalues --  -19.21208 -19.17839 -19.14128 -19.12573 -19.11424
 Alpha  occ. eigenvalues --  -19.09515 -14.37536 -14.36189 -14.36115 -14.28440
 Alpha  occ. eigenvalues --  -10.33986 -10.31797 -10.28657 -10.25338 -10.25018
 Alpha  occ. eigenvalues --  -10.23626 -10.23624 -10.23461 -10.23200 -10.22949
 Alpha  occ. eigenvalues --  -10.22851 -10.22848 -10.22724 -10.21038 -10.20677
 Alpha  occ. eigenvalues --  -10.20583 -10.20506 -10.20446 -10.20418 -10.20337
 Alpha  occ. eigenvalues --  -10.19721 -10.19632 -10.19591 -10.19490 -10.19297
 Alpha  occ. eigenvalues --  -10.19259 -10.19246 -10.19241 -10.19230 -10.18970
 Alpha  occ. eigenvalues --  -10.18895 -10.18127 -10.17876  -1.11622  -1.09959
 Alpha  occ. eigenvalues --   -1.06213  -1.01365  -1.01042  -1.00650  -0.99192
 Alpha  occ. eigenvalues --   -0.97852  -0.95572  -0.91865  -0.83239  -0.82216
 Alpha  occ. eigenvalues --   -0.81804  -0.81460  -0.79337  -0.79198  -0.77997
 Alpha  occ. eigenvalues --   -0.76896  -0.76153  -0.74439  -0.73759  -0.72188
 Alpha  occ. eigenvalues --   -0.70979  -0.69316  -0.69015  -0.68303  -0.67752
 Alpha  occ. eigenvalues --   -0.67479  -0.66005  -0.64047  -0.62072  -0.61701
 Alpha  occ. eigenvalues --   -0.60690  -0.60312  -0.59593  -0.57950  -0.57015
 Alpha  occ. eigenvalues --   -0.56281  -0.55725  -0.55007  -0.53200  -0.52716
 Alpha  occ. eigenvalues --   -0.51882  -0.51482  -0.51393  -0.50747  -0.50023
 Alpha  occ. eigenvalues --   -0.49411  -0.48974  -0.48578  -0.47893  -0.47685
 Alpha  occ. eigenvalues --   -0.47397  -0.47076  -0.46281  -0.45871  -0.45128
 Alpha  occ. eigenvalues --   -0.44396  -0.44378  -0.44139  -0.43891  -0.43772
 Alpha  occ. eigenvalues --   -0.43423  -0.43118  -0.43004  -0.42739  -0.42034
 Alpha  occ. eigenvalues --   -0.41493  -0.41350  -0.41109  -0.40960  -0.40647
 Alpha  occ. eigenvalues --   -0.40175  -0.40029  -0.39928  -0.39680  -0.39516
 Alpha  occ. eigenvalues --   -0.39364  -0.39120  -0.38891  -0.38648  -0.38527
 Alpha  occ. eigenvalues --   -0.38114  -0.37406  -0.37053  -0.36807  -0.36457
 Alpha  occ. eigenvalues --   -0.36424  -0.35869  -0.35620  -0.35444  -0.34369
 Alpha  occ. eigenvalues --   -0.34209  -0.33576  -0.33376  -0.33242  -0.32796
 Alpha  occ. eigenvalues --   -0.31901  -0.31656  -0.30659  -0.29722  -0.29496
 Alpha  occ. eigenvalues --   -0.28451  -0.26745  -0.26407  -0.26335  -0.25946
 Alpha  occ. eigenvalues --   -0.24325  -0.24072  -0.23924  -0.23398  -0.21797
 Alpha  occ. eigenvalues --   -0.17780
 Alpha virt. eigenvalues --   -0.10611  -0.05388  -0.03554  -0.02297  -0.01249
 Alpha virt. eigenvalues --    0.00119   0.01518   0.02165   0.02679   0.03543
 Alpha virt. eigenvalues --    0.04169   0.04524   0.05035   0.05916   0.06152

 Mulliken charges:
               1
     1  O   -0.141646
     2  O   -0.232427
     3  O   -0.152451
     4  O   -0.253843
     5  O   -0.214752
     6  O   -0.244752
     7  N   -0.077042
     8  N   -0.017919
     9  N   -0.167185
    10  N   -0.256697
    11  C   -0.109957
    12  C    0.011910
    13  C   -0.202883
    14  C    0.024658
    15  C   -0.119323
    16  C    0.184089
    17  C   -0.040809
    18  C   -0.085695
    19  C    0.151972
    20  C    0.013419
    21  C    0.115467
    22  C    0.147857
    23  C   -0.027203
    24  C    0.149577
    25  C   -0.165052
    26  C    0.079446
    27  C    0.062718
    28  C   -0.098269
    29  C   -0.051460
    30  C   -0.012050
    31  C   -0.103806
    32  C    0.018066
    33  C   -0.167322
    34  C    0.068569
    35  C   -0.074927
    36  C   -0.164937
    37  C    0.198168
    38  C   -0.049124
    39  C    0.112075
    40  C    0.074963
    41  C    0.121153
    42  C    0.031404
    43  C   -0.011468
    44  H    0.179908
    45  H   -0.070206
    46  H    0.000544
    47  H    0.002493
    48  H    0.027530
    49  H    0.020756
    50  H   -0.010613
    51  H    0.070493
    52  H    0.073093
    53  H    0.019070
    54  H    0.024789
    55  H    0.036331
    56  H    0.135702
    57  H    0.050074
    58  H    0.050615
    59  H    0.067169
    60  H    0.064724
    61  H    0.028674
    62  H    0.047776
    63  H    0.059432
    64  H   -0.050742
    65  H    0.026170
    66  H    0.061617
    67  H   -0.001386
    68  H    0.007776
    69  H    0.142996
    70  H    0.024071
    71  H    0.046597
    72  H   -0.007179
    73  H    0.034025
    74  H    0.038282
    75  H    0.007871
    76  H    0.034259
    77  H    0.002087
    78  H   -0.014908
    79  H    0.030740
    80  H    0.261327
    81  H    0.155532
 Sum of Mulliken charges =  -0.00000

 Dipole moment (field-independent basis, Debye):
    X=              4.0279    Y=              0.1389    Z=              1.1761  Tot=              4.1984
 Quadrupole moment (field-independent basis, Debye-Ang):
   XX=           -254.8948   YY=           -235.5173   ZZ=           -254.0047
   XY=            -12.9514   XZ=             20.1221   YZ=              9.5054

 Normal termination of Gaussian 16 at Fri Jul  5 04:12:38 2019.
