 Gaussian 16, Revision A.03,
 Gaussian 16:  ES64L-G16RevA.03 25-Dec-2016

 --------------------------
 # td=(NStates=1) B3LYP/SVP
 --------------------------

 --
 TD
 --
 Symbolic Z-matrix:
 Charge =  0 Multiplicity = 1

                         Standard orientation:
 ---------------------------------------------------------------------
 Center     Atomic      Atomic             Coordinates (Angstroms)
 Number     Number       Type             X           Y           Z
 ---------------------------------------------------------------------
      1          8           0       -4.298788   -5.004065    1.779811
      2          8           0        3.185163   -4.786164    1.096176
      3          8           0        6.922017   -1.286671    2.169946
      4          8           0        3.877378   -2.958430    0.094990
      5          8           0        7.440065   -0.521364    0.100867
      6          8           0       -3.213345    2.367333   -0.145407
      7          7           0       -0.266149   -0.547965   -0.639514
      8          7           0        1.437098    1.844373   -0.472169
      9          7           0       -3.289116   -3.281716    0.597443
     10          7           0       -0.912630    2.855919   -0.070429
     11          6           0        0.817236   -2.430102   -1.347476
     12          6           0        0.980544   -1.115315   -1.002264
     13          6           0       -0.611386   -2.695703   -1.254020
     14          6           0       -1.183320   -1.579999   -0.828879
     15          6           0        3.773451    1.561161   -0.398712
     16          6           0        2.469367    0.901433   -0.643732
     17          6           0        2.258601   -0.473889   -1.015474
     18          6           0        3.466346    2.942616   -0.004146
     19          6           0        1.779313   -3.366504   -1.989423
     20          6           0       -5.393717   -2.747974    1.425984
     21          6           0       -3.521001   -2.028136    0.043100
     22          6           0        1.987070    3.048795   -0.075899
     23          6           0       -4.834977   -1.694416    0.469697
     24          6           0        4.977495    0.868759   -0.432226
     25          6           0       -2.537702   -1.189172   -0.580130
     26          6           0       -1.326534   -3.841509   -1.896903
     27          6           0       -4.273296   -3.919262    1.321967
     28          6           0        2.247147   -4.491890   -0.923398
     29          6           0        5.287945    0.027750    0.938553
     30          6           0        4.377580    4.040645    0.340974
     31          6           0        1.131908    4.149616    0.216431
     32          6           0       -6.738982   -3.402168    1.266323
     33          6           0       -5.719151   -0.650229    0.007887
     34          6           0       -0.259964    3.997803    0.155052
     35          6           0       -1.165445    5.139374    0.467160
     36          6           0       -2.378547    4.672178    0.337737
     37          6           0        3.143788   -3.847951    0.085104
     38          6           0       -5.262223    0.344403   -1.127824
     39          6           0        6.623585   -0.619558    0.961881
     40          6           0       -3.819391    5.205249    0.535414
     41          6           0       -2.303555    3.195043   -0.000913
     42          6           0       -0.773823    6.532411    0.715023
     43          6           0       -4.314911    5.580635   -0.867177
     44          1           0       -0.426047    0.257819   -0.082955
     45          1           0        3.096773   -1.004590   -1.389984
     46          1           0        2.679159   -2.895421   -2.450315
     47          1           0        1.264213   -3.954065   -2.849719
     48          1           0       -5.407703   -2.241082    2.398535
     49          1           0        5.007929   -0.030282   -1.333388
     50          1           0        5.861311    1.696073   -0.532905
     51          1           0       -2.917119   -0.176698   -0.773980
     52          1           0        0.277140    1.844748   -0.517124
     53          1           0       -1.097276   -4.736122   -1.223294
     54          1           0       -2.413750   -3.644366   -1.795471
     55          1           0       -0.758174   -3.809446   -2.995566
     56          1           0       -2.388462   -3.708702    0.278084
     57          1           0        1.433541   -5.139509   -0.629915
     58          1           0        2.759863   -4.964367   -1.728671
     59          1           0        4.513599   -0.875047    0.903896
     60          1           0        5.034221    0.675795    1.722319
     61          1           0        4.066536    5.048976    0.131838
     62          1           0        5.458945    3.736944   -0.031028
     63          1           0        4.484842    3.998074    1.561156
     64          1           0        1.617969    5.046786    0.365674
     65          1           0       -7.551684   -2.671749    1.511664
     66          1           0       -7.035478   -4.248978    1.954147
     67          1           0       -6.983092   -3.651089    0.161935
     68          1           0       -6.721272   -0.579546    0.502148
     69          1           0       -4.730468    1.268229   -0.694308
     70          1           0       -6.204658    0.744254   -1.742982
     71          1           0       -4.558603   -0.183240   -1.731893
     72          1           0       -3.830309    6.062825    1.112019
     73          1           0       -4.360395    4.517507    1.102382
     74          1           0       -0.025120    6.893540    1.601155
     75          1           0       -1.590927    7.270267    0.741197
     76          1           0        0.004266    6.898682   -0.163922
     77          1           0       -3.861891    6.687953   -1.114221
     78          1           0       -5.401936    5.853080   -0.668041
     79          1           0       -4.167107    4.884637   -1.646514
     80          1           0        3.619846   -4.404037    1.853384
     81          1           0        7.746271   -1.731800    2.118143
 ---------------------------------------------------------------------

 SCF Done:  E(RB3LYP) =  -1949.13165757     A.U. after   16 cycles

 Excitation energies and oscillator strengths:

 Excited State   1:      Singlet-A      1.8478 eV  671.00 nm  f=0.3716  <S**2>=0.000
     156 ->157         0.70451
     156 <-157        -0.11121
 This state for optimization and/or second-order correction.
 Total Energy, E(TD-HF/TD-DFT) =  -1949.06375355
 Copying the excited state density for this state as the 1-particle RhoCI density.

 The electronic state is 1-A.
 Alpha  occ. eigenvalues --  -19.17431 -19.16635 -19.15756 -19.12983 -19.11992
 Alpha  occ. eigenvalues --  -19.11115 -14.37377 -14.36811 -14.35582 -14.29842
 Alpha  occ. eigenvalues --  -10.33694 -10.32175 -10.29569 -10.27329 -10.24679
 Alpha  occ. eigenvalues --  -10.24044 -10.23893 -10.23220 -10.22812 -10.22781
 Alpha  occ. eigenvalues --  -10.22618 -10.22609 -10.22073 -10.21950 -10.21847
 Alpha  occ. eigenvalues --  -10.21798 -10.21603 -10.21348 -10.21293 -10.21281
 Alpha  occ. eigenvalues --  -10.21100 -10.20287 -10.20188 -10.20039 -10.19635
 Alpha  occ. eigenvalues --  -10.19280 -10.19146 -10.19120 -10.18936 -10.18735
 Alpha  occ. eigenvalues --  -10.18245 -10.18242 -10.18155  -1.12691  -1.08535
 Alpha  occ. eigenvalues --   -1.05456  -1.03108  -1.01051  -1.00521  -0.97865
 Alpha  occ. eigenvalues --   -0.96086  -0.95492  -0.92014  -0.83258  -0.82029
 Alpha  occ. eigenvalues --   -0.81063  -0.80298  -0.80250  -0.79116  -0.78126
 Alpha  occ. eigenvalues --   -0.76425  -0.76174  -0.75296  -0.73244  -0.72237
 Alpha  occ. eigenvalues --   -0.71607  -0.69574  -0.69141  -0.68693  -0.67289
 Alpha  occ. eigenvalues --   -0.66539  -0.65091  -0.63246  -0.61990  -0.61617
 Alpha  occ. eigenvalues --   -0.60857  -0.59595  -0.59040  -0.58037  -0.56633
 Alpha  occ. eigenvalues --   -0.55888  -0.55263  -0.54268  -0.53334  -0.53011
 Alpha  occ. eigenvalues --   -0.52668  -0.52219  -0.51325  -0.50926  -0.50537
 Alpha  occ. eigenvalues --   -0.49949  -0.49021  -0.48473  -0.47907  -0.47416
 Alpha  occ. eigenvalues --   -0.47084  -0.46825  -0.46509  -0.46083  -0.45256
 Alpha  occ. eigenvalues --   -0.44908  -0.44533  -0.44035  -0.43971  -0.43649
 Alpha  occ. eigenvalues --   -0.43266  -0.43179  -0.42819  -0.42430  -0.42252
 Alpha  occ. eigenvalues --   -0.42102  -0.41879  -0.41654  -0.41149  -0.40916
 Alpha  occ. eigenvalues --   -0.40727  -0.40058  -0.39866  -0.39654  -0.39416
 Alpha  occ. eigenvalues --   -0.39153  -0.39089  -0.38621  -0.38282  -0.38112
 Alpha  occ. eigenvalues --   -0.37783  -0.37637  -0.37351  -0.37192  -0.36739
 Alpha  occ. eigenvalues --   -0.36304  -0.36120  -0.35843  -0.35549  -0.34791
 Alpha  occ. eigenvalues --   -0.34738  -0.34359  -0.34147  -0.33559  -0.33445
 Alpha  occ. eigenvalues --   -0.32991  -0.32504  -0.32234  -0.31256  -0.29774
 Alpha  occ. eigenvalues --   -0.28700  -0.28255  -0.26118  -0.26031  -0.25343
 Alpha  occ. eigenvalues --   -0.25113  -0.24944  -0.24050  -0.23626  -0.20996
 Alpha  occ. eigenvalues --   -0.17938
 Alpha virt. eigenvalues --   -0.10601  -0.06107  -0.04876  -0.01946   0.00133
 Alpha virt. eigenvalues --    0.00640   0.01635   0.02119   0.02808   0.03772
 Alpha virt. eigenvalues --    0.04267   0.04635   0.05258   0.05562   0.06588

 Mulliken charges:
               1
     1  O   -0.156815
     2  O   -0.208795
     3  O   -0.228540
     4  O   -0.142390
     5  O   -0.194168
     6  O   -0.219965
     7  N   -0.104436
     8  N   -0.198119
     9  N   -0.133949
    10  N   -0.322602
    11  C   -0.079244
    12  C    0.105739
    13  C   -0.205160
    14  C    0.130516
    15  C   -0.006775
    16  C    0.085764
    17  C   -0.037049
    18  C   -0.113197
    19  C   -0.013315
    20  C   -0.102854
    21  C    0.047099
    22  C    0.083115
    23  C   -0.069809
    24  C   -0.083695
    25  C   -0.097979
    26  C    0.042697
    27  C    0.156628
    28  C    0.040842
    29  C   -0.018377
    30  C    0.038850
    31  C   -0.093820
    32  C    0.021828
    33  C   -0.096040
    34  C    0.130554
    35  C   -0.023688
    36  C   -0.229246
    37  C    0.145020
    38  C   -0.012041
    39  C    0.164649
    40  C    0.185826
    41  C    0.186873
    42  C   -0.014036
    43  C   -0.023131
    44  H    0.128214
    45  H   -0.031484
    46  H    0.027339
    47  H    0.015736
    48  H    0.041204
    49  H    0.057850
    50  H    0.042646
    51  H    0.013169
    52  H    0.210930
    53  H    0.037515
    54  H    0.039736
    55  H    0.074716
    56  H    0.123002
    57  H    0.041937
    58  H    0.040099
    59  H    0.082743
    60  H    0.026831
    61  H    0.031321
    62  H    0.038632
    63  H    0.039785
    64  H   -0.078584
    65  H   -0.001326
    66  H    0.041854
    67  H    0.019773
    68  H    0.009526
    69  H    0.100572
    70  H    0.022402
    71  H    0.022855
    72  H   -0.041762
    73  H   -0.000911
    74  H    0.036596
    75  H    0.025276
    76  H    0.032188
    77  H    0.019144
    78  H    0.013843
    79  H    0.034347
    80  H    0.162057
    81  H    0.163466
 Sum of Mulliken charges =  -0.00000

 Dipole moment (field-independent basis, Debye):
    X=              2.2157    Y=              1.2232    Z=              0.0658  Tot=              2.5318
 Quadrupole moment (field-independent basis, Debye-Ang):
   XX=           -259.7550   YY=           -240.4070   ZZ=           -253.8953
   XY=            -15.4127   XZ=              8.5479   YZ=             15.4650

 Normal termination of Gaussian 16 at Thu Jun 27 15:12:21 2019.
