 Gaussian 16, Revision A.03,
 Gaussian 16:  ES64L-G16RevA.03 25-Dec-2016

 --------------------------
 # td=(NStates=1) B3LYP/SVP
 --------------------------

 --
 TD
 --
 Symbolic Z-matrix:
 Charge =  0 Multiplicity = 1

                         Standard orientation:
 ---------------------------------------------------------------------
 Center     Atomic      Atomic             Coordinates (Angstroms)
 Number     Number       Type             X           Y           Z
 ---------------------------------------------------------------------
      1          8           0       -4.560363   -4.668946    1.877554
      2          8           0        2.943340   -4.865516    1.200620
      3          8           0        7.043237   -1.486618    2.039598
      4          8           0        3.764085   -3.108932   -0.105420
      5          8           0        7.699768   -0.565265    0.149366
      6          8           0       -3.082994    2.586515   -0.284368
      7          7           0       -0.317709   -0.575576   -0.604483
      8          7           0        1.450273    1.734790   -0.297655
      9          7           0       -3.476008   -3.132098    0.617848
     10          7           0       -0.747320    2.828703   -0.075473
     11          6           0        0.634390   -2.491897   -1.298462
     12          6           0        0.874771   -1.078941   -0.972887
     13          6           0       -0.777533   -2.706025   -1.193736
     14          6           0       -1.308603   -1.517644   -0.650638
     15          6           0        3.828407    1.428087   -0.455769
     16          6           0        2.428913    0.708983   -0.565934
     17          6           0        2.139965   -0.573591   -0.865674
     18          6           0        3.613829    2.713344   -0.116294
     19          6           0        1.612397   -3.468539   -1.863504
     20          6           0       -5.631318   -2.440288    1.359904
     21          6           0       -3.675712   -1.836377    0.048989
     22          6           0        2.137814    2.916790   -0.075997
     23          6           0       -5.031379   -1.491214    0.298195
     24          6           0        5.094372    0.637865   -0.556866
     25          6           0       -2.644444   -1.046732   -0.413508
     26          6           0       -1.580263   -3.926679   -1.611133
     27          6           0       -4.536023   -3.552245    1.407736
     28          6           0        1.914352   -4.558675   -0.906677
     29          6           0        5.303350   -0.227058    0.745179
     30          6           0        4.677186    3.811054    0.076071
     31          6           0        1.411614    3.965404    0.316133
     32          6           0       -6.970501   -3.058934    1.152525
     33          6           0       -5.708770   -0.477056   -0.215070
     34          6           0        0.009227    4.006309    0.192423
     35          6           0       -0.873783    5.114755    0.552309
     36          6           0       -2.156976    4.743233    0.399338
     37          6           0        2.979422   -4.050590    0.102602
     38          6           0       -5.365783    0.351693   -1.413296
     39          6           0        6.787133   -0.749406    0.889831
     40          6           0       -3.534054    5.488177    0.562033
     41          6           0       -2.065001    3.309787    0.043740
     42          6           0       -0.453244    6.489070    0.767527
     43          6           0       -4.248361    5.698433   -0.725293
     44          1           0       -0.396769    0.389099   -0.207927
     45          1           0        2.978133   -1.259247   -1.153493
     46          1           0        2.440935   -2.708304   -2.179905
     47          1           0        1.264996   -3.861115   -2.824084
     48          1           0       -5.599665   -1.947138    2.418277
     49          1           0        5.158486   -0.086249   -1.351999
     50          1           0        5.934233    1.413242   -0.618858
     51          1           0       -2.664279   -0.022358   -0.832129
     52          1           0        0.356967    1.871904   -0.520205
     53          1           0       -1.435550   -4.544691   -0.727303
     54          1           0       -2.680835   -3.611638   -2.014722
     55          1           0       -1.071938   -4.499353   -2.454525
     56          1           0       -2.504356   -3.426592    0.572643
     57          1           0        1.168128   -5.124392   -0.300941
     58          1           0        2.497808   -5.479061   -1.425984
     59          1           0        4.937105   -1.287013    0.764935
     60          1           0        5.008220    0.361254    1.779846
     61          1           0        4.611913    4.702571   -0.734818
     62          1           0        5.703595    3.307735    0.204968
     63          1           0        4.419924    4.587802    1.005096
     64          1           0        2.041796    4.892598    0.383459
     65          1           0       -7.682094   -2.270238    1.610055
     66          1           0       -7.129412   -3.880707    1.800226
     67          1           0       -7.286880   -3.367383    0.138858
     68          1           0       -6.889615   -0.464602   -0.058393
     69          1           0       -4.597414    1.235109   -1.079288
     70          1           0       -6.136404    0.698071   -1.930116
     71          1           0       -4.738004   -0.172505   -2.072861
     72          1           0       -3.382304    6.355010    1.208230
     73          1           0       -4.115408    4.783248    1.224281
     74          1           0        0.239514    6.567534    1.674328
     75          1           0       -1.273257    7.328898    0.940642
     76          1           0        0.170944    6.876849    0.073189
     77          1           0       -3.676795    6.097879   -1.519704
     78          1           0       -5.130660    6.204886   -0.771853
     79          1           0       -4.457874    4.653448   -1.172571
     80          1           0        3.657016   -4.610509    1.701483
     81          1           0        8.126194   -1.611254    1.867934
 ---------------------------------------------------------------------

 SCF Done:  E(RB3LYP) =  -1949.13546035     A.U. after   17 cycles

 Excitation energies and oscillator strengths:

 Excited State   1:      Singlet-A      1.8043 eV  687.15 nm  f=0.3177  <S**2>=0.000
     156 ->157         0.70854
     156 <-157        -0.11718
 This state for optimization and/or second-order correction.
 Total Energy, E(TD-HF/TD-DFT) =  -1949.06915274
 Copying the excited state density for this state as the 1-particle RhoCI density.

 The electronic state is 1-A.
 Alpha  occ. eigenvalues --  -19.20437 -19.17751 -19.15588 -19.13019 -19.10507
 Alpha  occ. eigenvalues --  -19.09843 -14.37790 -14.36116 -14.35450 -14.30633
 Alpha  occ. eigenvalues --  -10.34734 -10.31847 -10.28773 -10.26733 -10.23897
 Alpha  occ. eigenvalues --  -10.23832 -10.23755 -10.23461 -10.23362 -10.23282
 Alpha  occ. eigenvalues --  -10.22958 -10.22695 -10.22533 -10.21779 -10.21631
 Alpha  occ. eigenvalues --  -10.21341 -10.21331 -10.21269 -10.21159 -10.20424
 Alpha  occ. eigenvalues --  -10.20092 -10.19836 -10.19700 -10.19670 -10.19578
 Alpha  occ. eigenvalues --  -10.19471 -10.19275 -10.19105 -10.19076 -10.18881
 Alpha  occ. eigenvalues --  -10.18421 -10.16476 -10.16371  -1.11781  -1.08971
 Alpha  occ. eigenvalues --   -1.03068  -1.02659  -0.98987  -0.98839  -0.98095
 Alpha  occ. eigenvalues --   -0.95579  -0.94199  -0.90491  -0.82882  -0.82216
 Alpha  occ. eigenvalues --   -0.81847  -0.81468  -0.79989  -0.79012  -0.77786
 Alpha  occ. eigenvalues --   -0.76988  -0.76613  -0.75717  -0.74565  -0.72110
 Alpha  occ. eigenvalues --   -0.70408  -0.70113  -0.69859  -0.68973  -0.67727
 Alpha  occ. eigenvalues --   -0.66997  -0.65454  -0.64394  -0.62591  -0.62056
 Alpha  occ. eigenvalues --   -0.61349  -0.58314  -0.58042  -0.57387  -0.56301
 Alpha  occ. eigenvalues --   -0.55307  -0.54990  -0.54415  -0.53302  -0.52119
 Alpha  occ. eigenvalues --   -0.51986  -0.51468  -0.50897  -0.50652  -0.49341
 Alpha  occ. eigenvalues --   -0.49207  -0.48662  -0.48486  -0.47846  -0.47414
 Alpha  occ. eigenvalues --   -0.46867  -0.46797  -0.46281  -0.45553  -0.45209
 Alpha  occ. eigenvalues --   -0.44834  -0.44613  -0.44277  -0.44180  -0.43665
 Alpha  occ. eigenvalues --   -0.43471  -0.43257  -0.42941  -0.42576  -0.42371
 Alpha  occ. eigenvalues --   -0.42152  -0.41874  -0.41540  -0.41260  -0.40879
 Alpha  occ. eigenvalues --   -0.40689  -0.40488  -0.40299  -0.39924  -0.39290
 Alpha  occ. eigenvalues --   -0.39163  -0.39064  -0.38498  -0.38410  -0.38158
 Alpha  occ. eigenvalues --   -0.37893  -0.37557  -0.37048  -0.36936  -0.36561
 Alpha  occ. eigenvalues --   -0.36400  -0.35963  -0.35645  -0.34859  -0.34754
 Alpha  occ. eigenvalues --   -0.34594  -0.34367  -0.33871  -0.33471  -0.32949
 Alpha  occ. eigenvalues --   -0.32105  -0.31910  -0.31891  -0.30549  -0.29752
 Alpha  occ. eigenvalues --   -0.29005  -0.28038  -0.26247  -0.26012  -0.25694
 Alpha  occ. eigenvalues --   -0.25096  -0.25017  -0.24015  -0.23756  -0.22034
 Alpha  occ. eigenvalues --   -0.17739
 Alpha virt. eigenvalues --   -0.10629  -0.05863  -0.03638  -0.02674   0.00339
 Alpha virt. eigenvalues --    0.00706   0.01615   0.02635   0.03058   0.03268
 Alpha virt. eigenvalues --    0.03709   0.04789   0.05083   0.05515   0.05835

 Mulliken charges:
               1
     1  O   -0.204081
     2  O   -0.134916
     3  O   -0.285182
     4  O   -0.243212
     5  O   -0.220087
     6  O   -0.282084
     7  N   -0.053150
     8  N   -0.227954
     9  N   -0.122450
    10  N   -0.349121
    11  C   -0.159367
    12  C    0.067240
    13  C   -0.167133
    14  C    0.023046
    15  C   -0.074697
    16  C    0.105251
    17  C   -0.093130
    18  C   -0.072344
    19  C    0.105903
    20  C   -0.091937
    21  C    0.116478
    22  C    0.094060
    23  C    0.012486
    24  C    0.131188
    25  C   -0.111089
    26  C    0.054001
    27  C    0.126991
    28  C   -0.008751
    29  C   -0.080340
    30  C   -0.023314
    31  C   -0.090312
    32  C    0.068940
    33  C   -0.167551
    34  C    0.092967
    35  C   -0.076772
    36  C   -0.156665
    37  C    0.143332
    38  C    0.056500
    39  C    0.131801
    40  C    0.120691
    41  C    0.178580
    42  C    0.083192
    43  C    0.040524
    44  H    0.145638
    45  H    0.027370
    46  H    0.030934
    47  H    0.008731
    48  H    0.059541
    49  H    0.019168
    50  H    0.029959
    51  H    0.028279
    52  H    0.206076
    53  H    0.034061
    54  H    0.076201
    55  H    0.016359
    56  H    0.123102
    57  H    0.049219
    58  H    0.058923
    59  H    0.067390
    60  H    0.073108
    61  H    0.051341
    62  H    0.052563
    63  H    0.038205
    64  H   -0.018814
    65  H    0.013862
    66  H    0.013880
    67  H    0.025244
    68  H    0.015511
    69  H    0.106077
    70  H   -0.025914
    71  H   -0.006510
    72  H   -0.010989
    73  H    0.020130
    74  H    0.011496
    75  H    0.034657
    76  H   -0.010597
    77  H   -0.012452
    78  H   -0.012422
    79  H    0.030561
    80  H    0.149161
    81  H    0.223424
 Sum of Mulliken charges =  -0.00000

 Dipole moment (field-independent basis, Debye):
    X=              3.2695    Y=              1.0557    Z=             -0.5871  Tot=              3.4855
 Quadrupole moment (field-independent basis, Debye-Ang):
   XX=           -257.3972   YY=           -234.8451   ZZ=           -255.3317
   XY=            -13.9201   XZ=             12.1853   YZ=             12.5610

 Normal termination of Gaussian 16 at Sun Jun 30 02:03:15 2019.
