 Gaussian 16, Revision A.03,
 Gaussian 16:  ES64L-G16RevA.03 25-Dec-2016

 --------------------------
 # td=(NStates=1) B3LYP/SVP
 --------------------------

 --
 TD
 --
 Symbolic Z-matrix:
 Charge =  0 Multiplicity = 1

                         Standard orientation:
 ---------------------------------------------------------------------
 Center     Atomic      Atomic             Coordinates (Angstroms)
 Number     Number       Type             X           Y           Z
 ---------------------------------------------------------------------
      1          8           0       -4.387417   -4.809849    1.906893
      2          8           0        2.979499   -4.860985    1.203097
      3          8           0        7.054453   -1.414009    1.855723
      4          8           0        3.975867   -3.180447    0.039608
      5          8           0        7.670106   -0.474233   -0.028299
      6          8           0       -3.113002    2.457453   -0.279588
      7          7           0       -0.340497   -0.594265   -0.523132
      8          7           0        1.475237    1.724516   -0.491221
      9          7           0       -3.329483   -3.050930    0.719545
     10          7           0       -0.869415    2.852271    0.014475
     11          6           0        0.701684   -2.476213   -1.326390
     12          6           0        0.945271   -1.214935   -0.848785
     13          6           0       -0.709631   -2.655599   -1.343508
     14          6           0       -1.323045   -1.505466   -0.834822
     15          6           0        3.821038    1.542644   -0.431889
     16          6           0        2.434516    0.810327   -0.732389
     17          6           0        2.251112   -0.478904   -0.931601
     18          6           0        3.500397    2.798752   -0.073311
     19          6           0        1.641261   -3.408832   -1.922831
     20          6           0       -5.481248   -2.627448    1.350822
     21          6           0       -3.613360   -1.827601    0.164654
     22          6           0        2.096152    2.881414   -0.038254
     23          6           0       -5.054040   -1.577375    0.256929
     24          6           0        5.186873    0.948141   -0.483939
     25          6           0       -2.695096   -1.060991   -0.480460
     26          6           0       -1.480762   -3.905934   -1.708618
     27          6           0       -4.361071   -3.669782    1.381614
     28          6           0        2.225319   -4.550323   -0.936477
     29          6           0        5.386679    0.105598    0.799668
     30          6           0        4.461192    3.899395    0.384744
     31          6           0        1.303472    4.035998    0.259828
     32          6           0       -6.993681   -3.231066    1.284105
     33          6           0       -5.813509   -0.557979   -0.280385
     34          6           0       -0.095049    3.949486    0.334723
     35          6           0       -1.087572    5.031878    0.504268
     36          6           0       -2.315771    4.643034    0.394715
     37          6           0        3.139270   -4.092117    0.142352
     38          6           0       -5.499217    0.363617   -1.350173
     39          6           0        6.802090   -0.601045    0.838184
     40          6           0       -3.666669    5.372451    0.447053
     41          6           0       -2.139698    3.214723    0.106682
     42          6           0       -0.633506    6.453777    1.025221
     43          6           0       -4.273041    5.495513   -1.044127
     44          1           0       -0.576619    0.337883    0.017832
     45          1           0        3.127279   -1.009201   -1.257610
     46          1           0        2.652950   -2.735216   -1.994337
     47          1           0        1.446263   -3.929635   -2.887947
     48          1           0       -5.563713   -2.218181    2.503311
     49          1           0        5.340012    0.229502   -1.275483
     50          1           0        5.986661    1.682244   -0.479613
     51          1           0       -2.975560    0.028804   -0.711694
     52          1           0        0.380420    1.903310   -0.529619
     53          1           0       -1.549024   -4.529760   -0.806910
     54          1           0       -2.414208   -3.529317   -2.114936
     55          1           0       -0.834950   -4.302293   -2.501621
     56          1           0       -2.497143   -3.540593    0.577257
     57          1           0        1.325026   -5.133253   -0.252895
     58          1           0        2.644084   -5.620603   -1.284861
     59          1           0        4.790816   -0.895891    0.949278
     60          1           0        5.111424    0.651756    1.680526
     61          1           0        4.348362    4.871275   -0.250325
     62          1           0        5.428336    3.610394    0.451293
     63          1           0        4.023766    4.356653    1.337285
     64          1           0        1.841599    4.995954    0.475083
     65          1           0       -7.606990   -2.293312    1.520634
     66          1           0       -7.055634   -4.031897    1.919388
     67          1           0       -7.053676   -3.628672    0.154283
     68          1           0       -7.001901   -0.645527    0.070324
     69          1           0       -5.024802    1.300131   -0.980104
     70          1           0       -6.367482    0.650541   -1.938795
     71          1           0       -4.858531   -0.069066   -1.959716
     72          1           0       -3.487828    6.441545    0.848701
     73          1           0       -4.394359    4.919541    1.130929
     74          1           0        0.127788    6.548910    1.799174
     75          1           0       -1.491866    7.198453    1.085216
     76          1           0       -0.192025    6.890098    0.155923
     77          1           0       -3.729749    6.148226   -1.643724
     78          1           0       -5.254345    5.971418   -0.971714
     79          1           0       -4.202500    4.488419   -1.566222
     80          1           0        3.505024   -4.578875    1.951084
     81          1           0        8.103974   -1.429168    1.717844
 ---------------------------------------------------------------------

 SCF Done:  E(RB3LYP) =  -1949.12985161     A.U. after   25 cycles

 Excitation energies and oscillator strengths:

 Excited State   1:      Singlet-A      1.9041 eV  651.16 nm  f=0.2502  <S**2>=0.000
     156 ->157         0.70105
 This state for optimization and/or second-order correction.
 Total Energy, E(TD-HF/TD-DFT) =  -1949.05987867
 Copying the excited state density for this state as the 1-particle RhoCI density.

 The electronic state is 1-A.
 Alpha  occ. eigenvalues --  -19.20031 -19.19220 -19.13702 -19.12590 -19.10527
 Alpha  occ. eigenvalues --  -19.09151 -14.37604 -14.36924 -14.36767 -14.30025
 Alpha  occ. eigenvalues --  -10.33468 -10.32562 -10.28925 -10.25954 -10.25194
 Alpha  occ. eigenvalues --  -10.24241 -10.23935 -10.23679 -10.23667 -10.23535
 Alpha  occ. eigenvalues --  -10.22765 -10.22641 -10.22621 -10.22185 -10.21541
 Alpha  occ. eigenvalues --  -10.21485 -10.21320 -10.21304 -10.21140 -10.20988
 Alpha  occ. eigenvalues --  -10.20621 -10.20296 -10.20280 -10.19782 -10.19571
 Alpha  occ. eigenvalues --  -10.19477 -10.19302 -10.19280 -10.18712 -10.18694
 Alpha  occ. eigenvalues --  -10.18338 -10.17629 -10.16414  -1.11656  -1.10516
 Alpha  occ. eigenvalues --   -1.01490  -1.00991  -0.99269  -0.99153  -0.98475
 Alpha  occ. eigenvalues --   -0.95963  -0.95165  -0.92008  -0.83548  -0.82390
 Alpha  occ. eigenvalues --   -0.81608  -0.80488  -0.79724  -0.78477  -0.77631
 Alpha  occ. eigenvalues --   -0.77075  -0.76277  -0.75026  -0.73853  -0.73147
 Alpha  occ. eigenvalues --   -0.71582  -0.69813  -0.69444  -0.68790  -0.68397
 Alpha  occ. eigenvalues --   -0.67419  -0.65640  -0.64677  -0.62372  -0.62011
 Alpha  occ. eigenvalues --   -0.61445  -0.59875  -0.58465  -0.57071  -0.56666
 Alpha  occ. eigenvalues --   -0.56086  -0.55704  -0.54497  -0.53282  -0.53202
 Alpha  occ. eigenvalues --   -0.52765  -0.51184  -0.50598  -0.50427  -0.50193
 Alpha  occ. eigenvalues --   -0.49180  -0.48948  -0.48175  -0.47850  -0.47378
 Alpha  occ. eigenvalues --   -0.46811  -0.46738  -0.46040  -0.45675  -0.45213
 Alpha  occ. eigenvalues --   -0.44880  -0.44567  -0.44381  -0.44081  -0.43837
 Alpha  occ. eigenvalues --   -0.43570  -0.43390  -0.43224  -0.42462  -0.42159
 Alpha  occ. eigenvalues --   -0.41968  -0.41609  -0.41460  -0.41172  -0.41046
 Alpha  occ. eigenvalues --   -0.40887  -0.40475  -0.40292  -0.40073  -0.39761
 Alpha  occ. eigenvalues --   -0.39570  -0.39251  -0.38958  -0.38448  -0.38207
 Alpha  occ. eigenvalues --   -0.38001  -0.37681  -0.37099  -0.36923  -0.36779
 Alpha  occ. eigenvalues --   -0.36274  -0.35782  -0.35714  -0.35066  -0.34947
 Alpha  occ. eigenvalues --   -0.34156  -0.33560  -0.33430  -0.32589  -0.32510
 Alpha  occ. eigenvalues --   -0.32310  -0.32127  -0.31651  -0.29749  -0.29074
 Alpha  occ. eigenvalues --   -0.28367  -0.28113  -0.26848  -0.26067  -0.25758
 Alpha  occ. eigenvalues --   -0.24974  -0.24881  -0.23709  -0.23477  -0.21730
 Alpha  occ. eigenvalues --   -0.18898
 Alpha virt. eigenvalues --   -0.10944  -0.05542  -0.04026  -0.01898  -0.00678
 Alpha virt. eigenvalues --   -0.00175   0.01024   0.02867   0.03343   0.03823
 Alpha virt. eigenvalues --    0.04238   0.04552   0.05039   0.05368   0.06037

 Mulliken charges:
               1
     1  O   -0.257599
     2  O   -0.140663
     3  O   -0.200540
     4  O   -0.259280
     5  O   -0.275248
     6  O   -0.291886
     7  N   -0.185172
     8  N   -0.113572
     9  N   -0.062457
    10  N   -0.275974
    11  C   -0.026170
    12  C    0.092983
    13  C   -0.242840
    14  C    0.084187
    15  C   -0.115256
    16  C    0.101270
    17  C   -0.043226
    18  C   -0.108408
    19  C    0.046140
    20  C   -0.183358
    21  C    0.107968
    22  C    0.067509
    23  C    0.008101
    24  C    0.163672
    25  C   -0.164036
    26  C    0.117115
    27  C    0.159144
    28  C   -0.119196
    29  C   -0.088722
    30  C    0.133127
    31  C   -0.117623
    32  C    0.030152
    33  C   -0.180855
    34  C    0.115626
    35  C   -0.122256
    36  C   -0.117671
    37  C    0.144101
    38  C    0.136527
    39  C    0.158701
    40  C    0.070639
    41  C    0.114078
    42  C    0.104780
    43  C    0.005320
    44  H    0.186664
    45  H   -0.008478
    46  H    0.044560
    47  H    0.036479
    48  H    0.067494
    49  H    0.018205
    50  H    0.020608
    51  H    0.056715
    52  H    0.190479
    53  H    0.041844
    54  H    0.032909
    55  H    0.006726
    56  H    0.099031
    57  H    0.048733
    58  H    0.072970
    59  H    0.077072
    60  H    0.027050
    61  H    0.030452
    62  H   -0.005016
    63  H    0.026014
    64  H   -0.010556
    65  H    0.042025
    66  H    0.020404
    67  H    0.030792
    68  H    0.024512
    69  H    0.078134
    70  H    0.001869
    71  H   -0.019090
    72  H    0.000940
    73  H    0.021175
    74  H    0.029595
    75  H    0.007761
    76  H   -0.010000
    77  H   -0.012929
    78  H    0.010437
    79  H    0.049697
    80  H    0.180758
    81  H    0.214831
 Sum of Mulliken charges =  -0.00000

 Dipole moment (field-independent basis, Debye):
    X=              4.3745    Y=              2.5466    Z=              0.7676  Tot=              5.1196
 Quadrupole moment (field-independent basis, Debye-Ang):
   XX=           -257.9438   YY=           -240.4415   ZZ=           -253.3217
   XY=            -12.9841   XZ=             19.5263   YZ=             12.1392

 Normal termination of Gaussian 16 at Wed Jul  3 03:31:33 2019.
