 Gaussian 16, Revision A.03,
 Gaussian 16:  ES64L-G16RevA.03 25-Dec-2016

 --------------------------
 # td=(NStates=1) B3LYP/SVP
 --------------------------

 --
 TD
 --
 Symbolic Z-matrix:
 Charge =  0 Multiplicity = 1

                         Standard orientation:
 ---------------------------------------------------------------------
 Center     Atomic      Atomic             Coordinates (Angstroms)
 Number     Number       Type             X           Y           Z
 ---------------------------------------------------------------------
      1          8           0        4.507802   -4.623461   -1.979645
      2          8           0       -2.808767   -4.941893   -1.341731
      3          8           0       -7.161148   -1.442824   -1.703239
      4          8           0       -3.739355   -3.113804   -0.330814
      5          8           0       -7.630840   -0.603797    0.424155
      6          8           0        3.025787    2.360770    0.243195
      7          7           0        0.235980   -0.600714    0.568058
      8          7           0       -1.517581    1.809766    0.307644
      9          7           0        3.435166   -3.028930   -0.627366
     10          7           0        0.757215    2.821213    0.150007
     11          6           0       -0.675987   -2.385318    1.337589
     12          6           0       -0.964656   -1.165053    0.926687
     13          6           0        0.723694   -2.626385    1.210114
     14          6           0        1.285586   -1.355016    0.714174
     15          6           0       -3.822685    1.452951    0.261353
     16          6           0       -2.544117    0.829702    0.549627
     17          6           0       -2.260445   -0.471111    0.845632
     18          6           0       -3.634694    2.848115   -0.060119
     19          6           0       -1.699651   -3.410692    1.843880
     20          6           0        5.609146   -2.528594   -1.223827
     21          6           0        3.678349   -1.856565   -0.046291
     22          6           0       -2.148933    2.921476   -0.101563
     23          6           0        5.045195   -1.514746   -0.277805
     24          6           0       -5.154662    0.813629    0.394893
     25          6           0        2.725359   -1.078447    0.463981
     26          6           0        1.562289   -3.827856    1.661920
     27          6           0        4.525644   -3.534228   -1.414280
     28          6           0       -2.078055   -4.546270    0.809082
     29          6           0       -5.504396   -0.072788   -0.643620
     30          6           0       -4.610224    3.863019   -0.311347
     31          6           0       -1.282563    4.036804   -0.327302
     32          6           0        6.954675   -3.060286   -0.990282
     33          6           0        5.884980   -0.565452    0.375359
     34          6           0        0.085638    3.943710   -0.330504
     35          6           0        1.061114    5.112041   -0.541067
     36          6           0        2.349474    4.555423   -0.354098
     37          6           0       -3.015071   -4.157970   -0.354750
     38          6           0        5.381454    0.415121    1.453045
     39          6           0       -6.892585   -0.745878   -0.490559
     40          6           0        3.579230    5.198713   -0.434099
     41          6           0        2.126425    3.123275    0.030484
     42          6           0        0.594123    6.393335   -1.026277
     43          6           0        4.202571    5.660716    0.891267
     44          1           0        0.377326    0.326120    0.227640
     45          1           0       -3.121843   -1.125794    0.939729
     46          1           0       -2.559620   -2.763177    2.265125
     47          1           0       -1.408064   -4.082095    2.743673
     48          1           0        5.931861   -2.118867   -2.290199
     49          1           0       -5.306291    0.325483    1.417181
     50          1           0       -5.916885    1.540741    0.378401
     51          1           0        2.933873    0.095637    0.719823
     52          1           0       -0.319985    1.773338    0.338291
     53          1           0        1.721819   -4.556894    0.833387
     54          1           0        2.577837   -3.497818    1.995602
     55          1           0        0.994170   -4.440084    2.480255
     56          1           0        2.563731   -3.447712   -0.776457
     57          1           0       -1.258783   -5.088161    0.331974
     58          1           0       -2.666826   -5.278168    1.364461
     59          1           0       -4.788914   -1.081294   -0.464533
     60          1           0       -5.423735    0.166815   -1.663796
     61          1           0       -4.540252    4.833428    0.455940
     62          1           0       -5.645448    3.445911   -0.398598
     63          1           0       -4.293902    4.490232   -1.391804
     64          1           0       -1.718152    5.007597   -0.724864
     65          1           0        7.683185   -2.340011   -1.274581
     66          1           0        7.000975   -3.928014   -1.692579
     67          1           0        7.001977   -3.504889    0.037551
     68          1           0        6.959581   -0.610585    0.083898
     69          1           0        5.054175    1.374133    0.755837
     70          1           0        6.500789    0.852786    2.011092
     71          1           0        4.629925   -0.218496    2.170095
     72          1           0        3.693362    6.068184   -1.095642
     73          1           0        4.198827    4.668165   -1.046406
     74          1           0       -0.245422    6.315325   -1.842966
     75          1           0        1.426946    7.094038   -1.238926
     76          1           0       -0.144522    6.856188   -0.330267
     77          1           0        3.758918    6.625684    1.367245
     78          1           0        5.431224    5.922575    0.792013
     79          1           0        4.202580    4.862408    1.789914
     80          1           0       -3.547457   -4.682844   -1.993971
     81          1           0       -8.177594   -1.561415   -1.605100
 ---------------------------------------------------------------------

 SCF Done:  E(RB3LYP) =  -1949.09123341     A.U. after   16 cycles

 Excitation energies and oscillator strengths:

 Excited State   1:      Singlet-A      2.0076 eV  617.59 nm  f=0.3346  <S**2>=0.000
     156 ->157         0.70476
 This state for optimization and/or second-order correction.
 Total Energy, E(TD-HF/TD-DFT) =  -1949.01745701
 Copying the excited state density for this state as the 1-particle RhoCI density.

 The electronic state is 1-A.
 Alpha  occ. eigenvalues --  -19.22254 -19.17715 -19.14036 -19.13472 -19.11923
 Alpha  occ. eigenvalues --  -19.09989 -14.37565 -14.36302 -14.34850 -14.29661
 Alpha  occ. eigenvalues --  -10.33581 -10.31989 -10.29644 -10.26351 -10.24229
 Alpha  occ. eigenvalues --  -10.23472 -10.23241 -10.22969 -10.22869 -10.22575
 Alpha  occ. eigenvalues --  -10.22211 -10.21943 -10.21911 -10.21681 -10.21548
 Alpha  occ. eigenvalues --  -10.21248 -10.21056 -10.21006 -10.20602 -10.20571
 Alpha  occ. eigenvalues --  -10.20552 -10.20298 -10.20130 -10.19951 -10.19837
 Alpha  occ. eigenvalues --  -10.19238 -10.19018 -10.18763 -10.18723 -10.18675
 Alpha  occ. eigenvalues --  -10.18612 -10.18541 -10.17857  -1.13758  -1.08447
 Alpha  occ. eigenvalues --   -1.03429  -1.02415  -1.00532  -1.00272  -0.99776
 Alpha  occ. eigenvalues --   -0.96651  -0.96069  -0.90244  -0.83121  -0.82417
 Alpha  occ. eigenvalues --   -0.81809  -0.80726  -0.80076  -0.78389  -0.77777
 Alpha  occ. eigenvalues --   -0.77163  -0.76586  -0.75598  -0.73542  -0.72145
 Alpha  occ. eigenvalues --   -0.70568  -0.69874  -0.68794  -0.68365  -0.67938
 Alpha  occ. eigenvalues --   -0.66366  -0.64660  -0.63226  -0.61933  -0.61772
 Alpha  occ. eigenvalues --   -0.61117  -0.58475  -0.57132  -0.56760  -0.56541
 Alpha  occ. eigenvalues --   -0.55482  -0.55411  -0.54610  -0.53769  -0.52890
 Alpha  occ. eigenvalues --   -0.52498  -0.51702  -0.51461  -0.49884  -0.49731
 Alpha  occ. eigenvalues --   -0.49634  -0.49021  -0.48890  -0.48480  -0.48303
 Alpha  occ. eigenvalues --   -0.47238  -0.46562  -0.45928  -0.45495  -0.45193
 Alpha  occ. eigenvalues --   -0.44706  -0.44593  -0.44241  -0.44172  -0.43250
 Alpha  occ. eigenvalues --   -0.43149  -0.43074  -0.43016  -0.42312  -0.42265
 Alpha  occ. eigenvalues --   -0.42075  -0.41676  -0.40877  -0.40752  -0.40435
 Alpha  occ. eigenvalues --   -0.40175  -0.40092  -0.39787  -0.39543  -0.39365
 Alpha  occ. eigenvalues --   -0.39082  -0.38879  -0.38699  -0.38427  -0.38266
 Alpha  occ. eigenvalues --   -0.37974  -0.37849  -0.37603  -0.37250  -0.37033
 Alpha  occ. eigenvalues --   -0.35977  -0.35809  -0.35322  -0.34870  -0.33930
 Alpha  occ. eigenvalues --   -0.33519  -0.33239  -0.32977  -0.32920  -0.32877
 Alpha  occ. eigenvalues --   -0.31930  -0.31804  -0.31606  -0.29600  -0.28724
 Alpha  occ. eigenvalues --   -0.28477  -0.28251  -0.26896  -0.26013  -0.24947
 Alpha  occ. eigenvalues --   -0.24418  -0.24241  -0.23398  -0.22781  -0.21110
 Alpha  occ. eigenvalues --   -0.18127
 Alpha virt. eigenvalues --   -0.09816  -0.05685  -0.04121  -0.01739  -0.01349
 Alpha virt. eigenvalues --    0.00503   0.02029   0.02227   0.03081   0.03705
 Alpha virt. eigenvalues --    0.04043   0.04395   0.04867   0.05277   0.05301

 Mulliken charges:
               1
     1  O   -0.209316
     2  O   -0.113916
     3  O   -0.267551
     4  O   -0.286953
     5  O   -0.184885
     6  O   -0.189780
     7  N    0.032666
     8  N   -0.223092
     9  N   -0.092477
    10  N   -0.365806
    11  C   -0.065691
    12  C    0.044781
    13  C   -0.193898
    14  C   -0.033820
    15  C   -0.080741
    16  C    0.128814
    17  C   -0.048971
    18  C   -0.051954
    19  C    0.046135
    20  C   -0.114803
    21  C    0.125195
    22  C    0.102873
    23  C   -0.016115
    24  C    0.161987
    25  C   -0.176281
    26  C    0.056952
    27  C    0.148240
    28  C    0.024883
    29  C   -0.088277
    30  C   -0.038023
    31  C   -0.135422
    32  C    0.055851
    33  C   -0.117260
    34  C    0.097198
    35  C   -0.059610
    36  C   -0.154952
    37  C    0.117378
    38  C   -0.073173
    39  C    0.151098
    40  C    0.145175
    41  C    0.170761
    42  C    0.079074
    43  C   -0.102723
    44  H    0.092966
    45  H   -0.000809
    46  H    0.029102
    47  H    0.017312
    48  H    0.050464
    49  H    0.028978
    50  H   -0.033667
    51  H    0.090444
    52  H    0.238880
    53  H    0.013755
    54  H    0.038581
    55  H    0.021500
    56  H    0.110603
    57  H    0.033219
    58  H    0.033034
    59  H    0.096140
    60  H    0.014535
    61  H    0.057076
    62  H    0.040811
    63  H    0.041365
    64  H   -0.029193
    65  H    0.016438
    66  H    0.026199
    67  H    0.013719
    68  H    0.005994
    69  H    0.121468
    70  H    0.026508
    71  H    0.085351
    72  H   -0.022714
    73  H   -0.029081
    74  H    0.029530
    75  H    0.029612
    76  H    0.014436
    77  H    0.029254
    78  H    0.020282
    79  H    0.044404
    80  H    0.206855
    81  H    0.193077
 Sum of Mulliken charges =  -0.00000

 Dipole moment (field-independent basis, Debye):
    X=             -2.6849    Y=              0.4805    Z=             -1.6822  Tot=              3.2046
 Quadrupole moment (field-independent basis, Debye-Ang):
   XX=           -244.8763   YY=           -235.8042   ZZ=           -257.2500
   XY=             15.4985   XZ=             12.7503   YZ=            -12.1863

 Normal termination of Gaussian 16 at Thu Jul  4 14:56:30 2019.
