 Gaussian 16, Revision A.03,
 Gaussian 16:  ES64L-G16RevA.03 25-Dec-2016

 --------------------------
 # td=(NStates=1) B3LYP/SVP
 --------------------------

 --
 TD
 --
 Symbolic Z-matrix:
 Charge =  0 Multiplicity = 1

                         Standard orientation:
 ---------------------------------------------------------------------
 Center     Atomic      Atomic             Coordinates (Angstroms)
 Number     Number       Type             X           Y           Z
 ---------------------------------------------------------------------
      1          8           0        4.235427   -4.637758   -2.140065
      2          8           0       -2.841445   -4.865246   -1.187269
      3          8           0       -7.182934   -1.300565   -1.929785
      4          8           0       -3.757899   -3.101904   -0.042272
      5          8           0       -7.557749   -0.553708    0.170093
      6          8           0        3.012986    2.489882    0.488980
      7          7           0        0.341169   -0.629017    0.523230
      8          7           0       -1.517014    1.835963    0.250125
      9          7           0        3.277677   -3.164179   -0.646146
     10          7           0        0.754518    2.927098    0.092687
     11          6           0       -0.588327   -2.425306    1.441682
     12          6           0       -0.895335   -1.134520    1.067874
     13          6           0        0.754917   -2.862397    1.173492
     14          6           0        1.317868   -1.519917    0.777138
     15          6           0       -3.766599    1.414916    0.221265
     16          6           0       -2.484462    0.859291    0.514114
     17          6           0       -2.156258   -0.488691    0.921792
     18          6           0       -3.531309    2.687313   -0.079800
     19          6           0       -1.553485   -3.425884    2.001452
     20          6           0        5.455179   -2.607428   -1.387424
     21          6           0        3.571964   -1.899573   -0.093031
     22          6           0       -2.146823    2.987490   -0.179748
     23          6           0        5.027992   -1.597062   -0.334837
     24          6           0       -5.099914    0.760093    0.387058
     25          6           0        2.597732   -1.021011    0.507326
     26          6           0        1.435980   -3.900235    1.807131
     27          6           0        4.290587   -3.632644   -1.553219
     28          6           0       -2.000179   -4.510948    1.041784
     29          6           0       -5.360326   -0.169154   -0.741842
     30          6           0       -4.519723    3.773821   -0.458053
     31          6           0       -1.302279    4.061068   -0.429707
     32          6           0        6.881927   -3.219935   -1.354720
     33          6           0        5.860744   -0.626271    0.025543
     34          6           0        0.061221    4.048995   -0.259741
     35          6           0        1.039858    5.204041   -0.536939
     36          6           0        2.295204    4.730971   -0.154882
     37          6           0       -2.929524   -4.032070   -0.097956
     38          6           0        5.481752    0.255584    1.139909
     39          6           0       -6.865737   -0.641742   -0.672558
     40          6           0        3.664392    5.490810   -0.248971
     41          6           0        2.088901    3.263841    0.145739
     42          6           0        0.619734    6.461701   -1.036678
     43          6           0        4.280724    5.652897    1.178132
     44          1           0        0.594682    0.335997    0.147245
     45          1           0       -2.988594   -1.260760    1.092410
     46          1           0       -2.368979   -2.840573    2.575609
     47          1           0       -1.292999   -3.789877    3.217121
     48          1           0        5.236101   -1.950688   -2.390744
     49          1           0       -4.998220    0.065857    1.412355
     50          1           0       -6.057227    1.391247    0.543399
     51          1           0        2.714958    0.050705    0.426009
     52          1           0       -0.518733    1.695870    0.580911
     53          1           0        1.425084   -5.012970    1.318781
     54          1           0        2.520696   -3.707799    2.000669
     55          1           0        1.215395   -3.947470    2.985858
     56          1           0        2.347326   -3.435898   -0.695209
     57          1           0       -1.257178   -5.067490    0.596172
     58          1           0       -2.473204   -5.136745    1.780756
     59          1           0       -4.646189   -1.032344   -0.704061
     60          1           0       -5.253151    0.358001   -1.677188
     61          1           0       -4.516703    4.770290    0.345516
     62          1           0       -5.682034    3.524367   -0.669206
     63          1           0       -3.971320    4.315454   -1.399203
     64          1           0       -1.836855    5.014555   -0.801635
     65          1           0        7.578725   -2.418307   -1.443477
     66          1           0        7.195999   -4.026132   -1.990101
     67          1           0        6.990391   -3.808065   -0.382550
     68          1           0        6.881033   -0.617220   -0.248943
     69          1           0        5.019185    1.287162    0.792847
     70          1           0        6.446339    0.346137    1.908240
     71          1           0        4.580304   -0.165213    1.711975
     72          1           0        3.434852    6.418937   -0.804604
     73          1           0        4.267790    4.925063   -0.859782
     74          1           0       -0.264078    6.294744   -1.807491
     75          1           0        1.434619    7.179664   -1.336087
     76          1           0        0.177702    7.033660   -0.171868
     77          1           0        3.510107    6.071898    1.979828
     78          1           0        5.337341    6.281228    1.219204
     79          1           0        4.533168    4.546724    1.339700
     80          1           0       -3.746497   -4.647188   -1.658984
     81          1           0       -7.989785   -1.705736   -1.738156
 ---------------------------------------------------------------------

 SCF Done:  E(RB3LYP) =  -1949.06997127     A.U. after   17 cycles

 Excitation energies and oscillator strengths:

 Excited State   1:      Singlet-A      1.8351 eV  675.63 nm  f=0.4026  <S**2>=0.000
     156 ->157         0.71007
     156 <-157        -0.12473
 This state for optimization and/or second-order correction.
 Total Energy, E(TD-HF/TD-DFT) =  -1949.00253287
 Copying the excited state density for this state as the 1-particle RhoCI density.

 The electronic state is 1-A.
 Alpha  occ. eigenvalues --  -19.20772 -19.15358 -19.15263 -19.15120 -19.12762
 Alpha  occ. eigenvalues --  -19.09400 -14.37915 -14.37023 -14.35772 -14.28426
 Alpha  occ. eigenvalues --  -10.34842 -10.31475 -10.30234 -10.26185 -10.25807
 Alpha  occ. eigenvalues --  -10.24114 -10.23754 -10.23456 -10.23442 -10.22874
 Alpha  occ. eigenvalues --  -10.22837 -10.22623 -10.22373 -10.22176 -10.22105
 Alpha  occ. eigenvalues --  -10.21302 -10.21066 -10.20539 -10.20446 -10.20135
 Alpha  occ. eigenvalues --  -10.20007 -10.19978 -10.19755 -10.19681 -10.19669
 Alpha  occ. eigenvalues --  -10.19564 -10.19528 -10.19503 -10.19131 -10.19060
 Alpha  occ. eigenvalues --  -10.19007 -10.18553 -10.18511  -1.13645  -1.10008
 Alpha  occ. eigenvalues --   -1.06882  -1.01523  -1.01029  -0.99062  -0.98119
 Alpha  occ. eigenvalues --   -0.97427  -0.95238  -0.90378  -0.83338  -0.82552
 Alpha  occ. eigenvalues --   -0.82298  -0.80787  -0.78971  -0.78851  -0.78536
 Alpha  occ. eigenvalues --   -0.77305  -0.76272  -0.74861  -0.74055  -0.72219
 Alpha  occ. eigenvalues --   -0.70238  -0.69800  -0.67927  -0.67533  -0.66836
 Alpha  occ. eigenvalues --   -0.66030  -0.64863  -0.63809  -0.62001  -0.60705
 Alpha  occ. eigenvalues --   -0.59908  -0.57912  -0.57832  -0.57640  -0.56947
 Alpha  occ. eigenvalues --   -0.55406  -0.54828  -0.54348  -0.54087  -0.53043
 Alpha  occ. eigenvalues --   -0.51966  -0.51652  -0.50747  -0.50521  -0.50294
 Alpha  occ. eigenvalues --   -0.49812  -0.49237  -0.49120  -0.48654  -0.48143
 Alpha  occ. eigenvalues --   -0.47435  -0.46826  -0.46265  -0.46069  -0.45272
 Alpha  occ. eigenvalues --   -0.44986  -0.44773  -0.44372  -0.44056  -0.43988
 Alpha  occ. eigenvalues --   -0.43677  -0.43333  -0.43010  -0.42837  -0.42530
 Alpha  occ. eigenvalues --   -0.42217  -0.42035  -0.41712  -0.41502  -0.40755
 Alpha  occ. eigenvalues --   -0.40515  -0.39995  -0.39754  -0.39675  -0.39187
 Alpha  occ. eigenvalues --   -0.39035  -0.38786  -0.38493  -0.38223  -0.37921
 Alpha  occ. eigenvalues --   -0.37452  -0.37252  -0.37075  -0.36991  -0.36426
 Alpha  occ. eigenvalues --   -0.36289  -0.35985  -0.35519  -0.34418  -0.34284
 Alpha  occ. eigenvalues --   -0.33803  -0.33318  -0.33165  -0.33125  -0.32518
 Alpha  occ. eigenvalues --   -0.32325  -0.32143  -0.32063  -0.30213  -0.29476
 Alpha  occ. eigenvalues --   -0.29394  -0.27614  -0.26903  -0.26168  -0.25552
 Alpha  occ. eigenvalues --   -0.25436  -0.24702  -0.23511  -0.22673  -0.21491
 Alpha  occ. eigenvalues --   -0.17676
 Alpha virt. eigenvalues --   -0.10471  -0.06490  -0.04687  -0.03649  -0.00028
 Alpha virt. eigenvalues --    0.01537   0.02124   0.02317   0.02648   0.03127
 Alpha virt. eigenvalues --    0.03512   0.04172   0.05133   0.05646   0.05994

 Mulliken charges:
               1
     1  O   -0.131287
     2  O   -0.218370
     3  O   -0.248338
     4  O   -0.247447
     5  O   -0.074304
     6  O   -0.262014
     7  N   -0.140690
     8  N   -0.127861
     9  N   -0.132933
    10  N   -0.304748
    11  C   -0.114697
    12  C    0.118077
    13  C   -0.093143
    14  C    0.052631
    15  C   -0.034669
    16  C    0.054917
    17  C   -0.091583
    18  C   -0.057551
    19  C   -0.068098
    20  C   -0.144633
    21  C    0.069083
    22  C    0.117645
    23  C    0.024326
    24  C    0.008915
    25  C   -0.089359
    26  C   -0.006579
    27  C    0.136819
    28  C    0.154538
    29  C   -0.021437
    30  C   -0.066452
    31  C   -0.165171
    32  C    0.070250
    33  C   -0.092988
    34  C    0.117184
    35  C   -0.086856
    36  C   -0.200599
    37  C    0.167250
    38  C   -0.055864
    39  C    0.104806
    40  C    0.152022
    41  C    0.161862
    42  C    0.052697
    43  C   -0.101996
    44  H    0.164006
    45  H    0.041078
    46  H    0.019629
    47  H    0.029406
    48  H    0.065463
    49  H    0.035813
    50  H    0.034241
    51  H    0.022592
    52  H    0.165477
    53  H    0.042911
    54  H    0.024861
    55  H    0.030646
    56  H    0.111475
    57  H    0.008264
    58  H    0.042662
    59  H    0.071573
    60  H    0.020652
    61  H    0.042805
    62  H    0.054471
    63  H    0.044855
    64  H   -0.015679
    65  H    0.017901
    66  H    0.021395
    67  H    0.020236
    68  H   -0.016301
    69  H    0.094713
    70  H    0.029661
    71  H    0.038268
    72  H   -0.016392
    73  H   -0.007915
    74  H    0.044293
    75  H    0.021999
    76  H    0.030257
    77  H    0.040651
    78  H    0.030132
    79  H    0.054444
    80  H    0.220371
    81  H    0.135732
 Sum of Mulliken charges =  -0.00000

 Dipole moment (field-independent basis, Debye):
    X=             -2.0862    Y=             -1.5305    Z=              0.1317  Tot=              2.5907
 Quadrupole moment (field-independent basis, Debye-Ang):
   XX=           -243.7825   YY=           -239.0995   ZZ=           -259.0333
   XY=              8.9214   XZ=              3.9082   YZ=            -16.1291

 Normal termination of Gaussian 16 at Thu Jul  4 03:45:22 2019.
