 Gaussian 16, Revision A.03,
 Gaussian 16:  ES64L-G16RevA.03 25-Dec-2016

 --------------------------
 # td=(NStates=1) B3LYP/SVP
 --------------------------

 --
 TD
 --
 Symbolic Z-matrix:
 Charge =  0 Multiplicity = 1

                         Standard orientation:
 ---------------------------------------------------------------------
 Center     Atomic      Atomic             Coordinates (Angstroms)
 Number     Number       Type             X           Y           Z
 ---------------------------------------------------------------------
      1          8           0        4.790434   -4.581586   -1.816290
      2          8           0       -2.455119   -4.797982   -1.444723
      3          8           0       -7.122542   -2.076366   -1.571929
      4          8           0       -3.527831   -3.301457   -0.149088
      5          8           0       -7.695001   -0.925498    0.285370
      6          8           0        2.769583    2.657923    0.337698
      7          7           0        0.305755   -0.634629    0.529469
      8          7           0       -1.658163    1.693348    0.092034
      9          7           0        3.784906   -2.999742   -0.480102
     10          7           0        0.535033    2.996947    0.127976
     11          6           0       -0.417118   -2.511326    1.349368
     12          6           0       -0.870267   -1.236141    0.872310
     13          6           0        0.949804   -2.654626    1.254277
     14          6           0        1.405256   -1.448190    0.747553
     15          6           0       -3.883140    1.218548    0.219289
     16          6           0       -2.575489    0.729205    0.470461
     17          6           0       -2.159971   -0.580235    0.821616
     18          6           0       -3.810845    2.533056   -0.106529
     19          6           0       -1.392306   -3.555935    1.859818
     20          6           0        5.798823   -2.304446   -1.300755
     21          6           0        3.801715   -1.680231   -0.110927
     22          6           0       -2.320695    2.844942   -0.165779
     23          6           0        5.138631   -1.251633   -0.455732
     24          6           0       -5.147523    0.463740    0.436529
     25          6           0        2.771903   -0.964910    0.461780
     26          6           0        1.815642   -3.767809    1.711506
     27          6           0        4.839528   -3.527390   -1.277041
     28          6           0       -1.710292   -4.658751    0.855340
     29          6           0       -5.546576   -0.605110   -0.679519
     30          6           0       -4.914969    3.564122   -0.399384
     31          6           0       -1.595691    4.102349   -0.280077
     32          6           0        7.335736   -2.790105   -0.896291
     33          6           0        5.964856   -0.186124    0.080830
     34          6           0       -0.257185    4.117316   -0.254434
     35          6           0        0.678377    5.221253   -0.491519
     36          6           0        1.933411    4.810230   -0.323866
     37          6           0       -2.664968   -4.249098   -0.275514
     38          6           0        5.345107    0.662684    1.216646
     39          6           0       -6.888844   -1.109133   -0.641235
     40          6           0        3.232232    5.518366   -0.490547
     41          6           0        1.753545    3.340270    0.141644
     42          6           0        0.194987    6.662285   -0.805760
     43          6           0        3.619302    6.142008    0.922016
     44          1           0        0.434524    0.254669    0.096352
     45          1           0       -2.948753   -1.403979    1.148523
     46          1           0       -2.242236   -3.041229    2.407477
     47          1           0       -0.974362   -4.293519    2.596885
     48          1           0        5.749900   -2.067244   -2.254898
     49          1           0       -5.172342   -0.025765    1.299649
     50          1           0       -5.915207    1.364820    0.539778
     51          1           0        2.685290    0.107966    0.393567
     52          1           0       -0.629764    1.595748    0.558537
     53          1           0        1.449553   -4.676378    1.073751
     54          1           0        3.023591   -3.445901    1.676361
     55          1           0        1.382443   -3.981107    2.720264
     56          1           0        2.833715   -3.577615   -0.456702
     57          1           0       -0.762404   -4.805962    0.322553
     58          1           0       -2.057932   -5.660003    1.535883
     59          1           0       -4.864795   -1.406147   -0.680969
     60          1           0       -5.467956   -0.174752   -1.641842
     61          1           0       -4.782728    4.501705    0.371085
     62          1           0       -5.798163    3.251735   -0.302104
     63          1           0       -4.787534    3.934291   -1.410564
     64          1           0       -2.244244    5.025233   -0.601668
     65          1           0        8.038998   -2.061948   -1.146013
     66          1           0        7.815778   -3.515042   -1.734029
     67          1           0        7.592792   -3.316211    0.111191
     68          1           0        6.916686   -0.258048   -0.260394
     69          1           0        4.428952    1.413800    0.922406
     70          1           0        6.198438    1.455020    1.601811
     71          1           0        4.888786    0.210834    2.089107
     72          1           0        3.263889    6.372549   -1.112592
     73          1           0        3.798656    4.638192   -0.926183
     74          1           0       -0.479861    6.719809   -1.611664
     75          1           0        1.194865    7.151584   -1.140768
     76          1           0        0.029718    7.252871    0.133912
     77          1           0        2.846457    6.819584    1.291033
     78          1           0        4.384662    6.816027    0.599864
     79          1           0        3.875661    5.278975    1.664537
     80          1           0       -3.022690   -4.419256   -2.205377
     81          1           0       -8.069152   -2.322103   -1.479147
 ---------------------------------------------------------------------

 SCF Done:  E(RB3LYP) =  -1949.06437302     A.U. after   22 cycles

 Excitation energies and oscillator strengths:

 Excited State   1:      Singlet-A      1.9625 eV  631.77 nm  f=0.4348  <S**2>=0.000
     156 ->157         0.70705
     156 <-157        -0.10827
 This state for optimization and/or second-order correction.
 Total Energy, E(TD-HF/TD-DFT) =  -1948.99225232
 Copying the excited state density for this state as the 1-particle RhoCI density.

 The electronic state is 1-A.
 Alpha  occ. eigenvalues --  -19.21348 -19.18014 -19.13422 -19.12815 -19.11876
 Alpha  occ. eigenvalues --  -19.07280 -14.37799 -14.37471 -14.36967 -14.27016
 Alpha  occ. eigenvalues --  -10.34337 -10.31575 -10.30246 -10.25360 -10.24993
 Alpha  occ. eigenvalues --  -10.24112 -10.23870 -10.23559 -10.23550 -10.23411
 Alpha  occ. eigenvalues --  -10.23122 -10.22268 -10.21878 -10.21671 -10.21208
 Alpha  occ. eigenvalues --  -10.21163 -10.21114 -10.20925 -10.20614 -10.20401
 Alpha  occ. eigenvalues --  -10.20390 -10.20143 -10.20116 -10.19543 -10.19496
 Alpha  occ. eigenvalues --  -10.19381 -10.19137 -10.19086 -10.18658 -10.17920
 Alpha  occ. eigenvalues --  -10.17902 -10.17447 -10.16740  -1.11398  -1.08632
 Alpha  occ. eigenvalues --   -1.05873  -0.99346  -0.98783  -0.98627  -0.98611
 Alpha  occ. eigenvalues --   -0.98089  -0.95926  -0.90554  -0.83276  -0.82537
 Alpha  occ. eigenvalues --   -0.81137  -0.80463  -0.79096  -0.78627  -0.78170
 Alpha  occ. eigenvalues --   -0.78001  -0.76194  -0.74299  -0.72878  -0.72570
 Alpha  occ. eigenvalues --   -0.72062  -0.69589  -0.69371  -0.68852  -0.68140
 Alpha  occ. eigenvalues --   -0.67207  -0.66028  -0.63801  -0.62417  -0.62163
 Alpha  occ. eigenvalues --   -0.60897  -0.59305  -0.58848  -0.58607  -0.57658
 Alpha  occ. eigenvalues --   -0.56659  -0.55231  -0.54603  -0.53789  -0.53245
 Alpha  occ. eigenvalues --   -0.51787  -0.51495  -0.50915  -0.50468  -0.49776
 Alpha  occ. eigenvalues --   -0.49200  -0.48795  -0.48489  -0.48282  -0.47787
 Alpha  occ. eigenvalues --   -0.47238  -0.46419  -0.45927  -0.45860  -0.45241
 Alpha  occ. eigenvalues --   -0.44893  -0.44598  -0.44527  -0.44026  -0.43289
 Alpha  occ. eigenvalues --   -0.42963  -0.42779  -0.42553  -0.42245  -0.41593
 Alpha  occ. eigenvalues --   -0.41453  -0.41019  -0.40924  -0.40753  -0.40471
 Alpha  occ. eigenvalues --   -0.40080  -0.39895  -0.39762  -0.39526  -0.39354
 Alpha  occ. eigenvalues --   -0.39171  -0.39040  -0.38606  -0.38423  -0.37949
 Alpha  occ. eigenvalues --   -0.37842  -0.37755  -0.37320  -0.37026  -0.36595
 Alpha  occ. eigenvalues --   -0.36452  -0.36091  -0.35812  -0.35387  -0.35177
 Alpha  occ. eigenvalues --   -0.34702  -0.34073  -0.33872  -0.32680  -0.32555
 Alpha  occ. eigenvalues --   -0.32241  -0.31469  -0.31108  -0.29417  -0.28646
 Alpha  occ. eigenvalues --   -0.27514  -0.27335  -0.26735  -0.25853  -0.25680
 Alpha  occ. eigenvalues --   -0.25306  -0.24518  -0.22420  -0.21817  -0.21255
 Alpha  occ. eigenvalues --   -0.18242
 Alpha virt. eigenvalues --   -0.10477  -0.05810  -0.03935  -0.03448  -0.00303
 Alpha virt. eigenvalues --   -0.00282   0.01395   0.02211   0.02394   0.03942
 Alpha virt. eigenvalues --    0.04551   0.04630   0.05316   0.05696   0.05858

 Mulliken charges:
               1
     1  O   -0.159532
     2  O   -0.161746
     3  O   -0.201057
     4  O   -0.298045
     5  O   -0.263528
     6  O   -0.269835
     7  N   -0.061971
     8  N   -0.107793
     9  N   -0.211532
    10  N   -0.248741
    11  C   -0.110547
    12  C   -0.001759
    13  C   -0.147739
    14  C   -0.008736
    15  C   -0.072726
    16  C    0.058306
    17  C   -0.038409
    18  C   -0.158478
    19  C    0.068396
    20  C    0.004018
    21  C    0.139522
    22  C    0.052284
    23  C   -0.087137
    24  C    0.132753
    25  C   -0.066804
    26  C    0.007410
    27  C    0.133881
    28  C   -0.026864
    29  C    0.078473
    30  C    0.185532
    31  C   -0.162100
    32  C   -0.004218
    33  C    0.042747
    34  C    0.157115
    35  C   -0.119766
    36  C   -0.178494
    37  C    0.160160
    38  C   -0.067230
    39  C    0.123637
    40  C    0.055555
    41  C    0.078366
    42  C    0.109509
    43  C    0.003129
    44  H    0.121319
    45  H    0.050118
    46  H    0.037752
    47  H   -0.006036
    48  H   -0.007445
    49  H   -0.024497
    50  H    0.027516
    51  H    0.001963
    52  H    0.203929
    53  H    0.034367
    54  H    0.096788
    55  H    0.036990
    56  H    0.165410
    57  H    0.033245
    58  H    0.083028
    59  H    0.037709
    60  H    0.002410
    61  H    0.044311
    62  H   -0.062971
    63  H    0.026194
    64  H    0.009385
    65  H    0.004970
    66  H    0.021028
    67  H    0.056592
    68  H   -0.047419
    69  H    0.115606
    70  H    0.017708
    71  H    0.030998
    72  H   -0.018280
    73  H    0.036812
    74  H    0.013582
    75  H   -0.005577
    76  H    0.031102
    77  H    0.006456
    78  H   -0.002205
    79  H    0.057211
    80  H    0.228771
    81  H    0.185156
 Sum of Mulliken charges =  -0.00000

 Dipole moment (field-independent basis, Debye):
    X=             -2.2432    Y=             -1.9245    Z=             -1.5790  Tot=              3.3510
 Quadrupole moment (field-independent basis, Debye-Ang):
   XX=           -254.2384   YY=           -239.3994   ZZ=           -251.2114
   XY=              4.9460   XZ=             15.9010   YZ=             -9.7504

 Normal termination of Gaussian 16 at Sat Jun 29 15:58:19 2019.
