 Gaussian 16, Revision A.03,
 Gaussian 16:  ES64L-G16RevA.03 25-Dec-2016

 --------------------------
 # td=(NStates=1) B3LYP/SVP
 --------------------------

 --
 TD
 --
 Symbolic Z-matrix:
 Charge =  0 Multiplicity = 1

                         Standard orientation:
 ---------------------------------------------------------------------
 Center     Atomic      Atomic             Coordinates (Angstroms)
 Number     Number       Type             X           Y           Z
 ---------------------------------------------------------------------
      1          8           0       -4.374218   -4.486736    2.129115
      2          8           0        2.713276   -4.800994    1.226550
      3          8           0        6.936707   -1.602407    1.990107
      4          8           0        3.708154   -3.201553   -0.062917
      5          8           0        7.708281   -0.645672    0.052168
      6          8           0       -3.008829    2.449230   -0.109054
      7          7           0       -0.230657   -0.479201   -0.614380
      8          7           0        1.646921    1.741495   -0.398129
      9          7           0       -3.441339   -3.065249    0.738806
     10          7           0       -0.634885    2.964159   -0.225312
     11          6           0        0.558341   -2.408557   -1.348883
     12          6           0        0.921155   -1.132330   -1.044443
     13          6           0       -0.749323   -2.515767   -1.239558
     14          6           0       -1.267382   -1.336169   -0.706575
     15          6           0        3.885837    1.358424   -0.350975
     16          6           0        2.617160    0.703659   -0.647163
     17          6           0        2.213906   -0.576463   -0.974974
     18          6           0        3.584453    2.678044   -0.040645
     19          6           0        1.458231   -3.502949   -2.051023
     20          6           0       -5.702089   -2.495283    1.406196
     21          6           0       -3.660924   -1.823057    0.117179
     22          6           0        2.173079    2.911247   -0.046385
     23          6           0       -5.107982   -1.516654    0.196328
     24          6           0        5.131682    0.538289   -0.496437
     25          6           0       -2.668679   -0.923773   -0.395667
     26          6           0       -1.698164   -3.750281   -1.774931
     27          6           0       -4.464698   -3.469239    1.511783
     28          6           0        1.873187   -4.596356   -1.030676
     29          6           0        5.410745   -0.260702    0.816186
     30          6           0        4.566676    3.697689    0.434999
     31          6           0        1.457314    4.063941    0.258703
     32          6           0       -6.991972   -3.263918    0.967379
     33          6           0       -5.856417   -0.511662   -0.228214
     34          6           0        0.043418    3.978757    0.176663
     35          6           0       -0.891741    5.066937    0.534322
     36          6           0       -2.087395    4.668166    0.371132
     37          6           0        2.894726   -4.091683    0.065292
     38          6           0       -5.379590    0.670496   -1.099428
     39          6           0        6.832316   -0.833978    0.849580
     40          6           0       -3.480049    5.243104    0.542782
     41          6           0       -2.007724    3.238230   -0.058910
     42          6           0       -0.450639    6.524761    0.765335
     43          6           0       -4.129988    5.566925   -0.841902
     44          1           0       -0.227976    0.351084   -0.181440
     45          1           0        2.761507   -1.371127   -1.059796
     46          1           0        2.372458   -2.984438   -2.422090
     47          1           0        0.947638   -3.832524   -2.873288
     48          1           0       -5.745514   -1.986687    2.386441
     49          1           0        5.320930   -0.112128   -1.395275
     50          1           0        5.929411    1.308774   -0.790284
     51          1           0       -3.075924    0.143137   -0.693212
     52          1           0        0.507286    1.951950   -0.568836
     53          1           0       -1.797848   -4.378922   -1.110398
     54          1           0       -2.664301   -3.325163   -1.933485
     55          1           0       -1.273212   -4.069198   -2.905370
     56          1           0       -2.498253   -3.327584    0.771099
     57          1           0        0.884344   -4.797374   -0.412629
     58          1           0        2.211596   -5.437259   -1.656390
     59          1           0        4.642279   -1.005912    0.898298
     60          1           0        5.111970    0.493303    1.687297
     61          1           0        4.363100    4.728758    0.157875
     62          1           0        5.640939    3.543544    0.110113
     63          1           0        4.670921    3.714764    1.692790
     64          1           0        1.898484    4.942885    0.496049
     65          1           0       -7.701059   -2.521773    0.861129
     66          1           0       -7.201621   -3.772360    1.943418
     67          1           0       -7.035935   -3.764646    0.017371
     68          1           0       -6.965672   -0.464513    0.180863
     69          1           0       -4.602240    1.477192   -0.515985
     70          1           0       -6.146807    1.156060   -1.546331
     71          1           0       -4.860633    0.321962   -2.132213
     72          1           0       -3.415161    6.238481    1.084067
     73          1           0       -4.019838    4.423641    0.955188
     74          1           0        0.273914    6.503815    1.645970
     75          1           0       -1.275409    7.107592    0.940770
     76          1           0        0.041833    6.907913   -0.075813
     77          1           0       -3.552757    6.424366   -1.434983
     78          1           0       -5.120782    6.094230   -0.763731
     79          1           0       -4.603683    4.825712   -1.515529
     80          1           0        3.396169   -4.762260    1.929396
     81          1           0        7.797770   -1.967784    2.091866
 ---------------------------------------------------------------------

 SCF Done:  E(RB3LYP) =  -1949.07942281     A.U. after   16 cycles

 Excitation energies and oscillator strengths:

 Excited State   1:      Singlet-A      1.9999 eV  619.94 nm  f=0.3618  <S**2>=0.000
     156 ->157         0.70553
     156 <-157        -0.10019
 This state for optimization and/or second-order correction.
 Total Energy, E(TD-HF/TD-DFT) =  -1949.00592603
 Copying the excited state density for this state as the 1-particle RhoCI density.

 The electronic state is 1-A.
 Alpha  occ. eigenvalues --  -19.19335 -19.17659 -19.15110 -19.13537 -19.11606
 Alpha  occ. eigenvalues --  -19.10002 -14.36871 -14.36657 -14.34417 -14.30223
 Alpha  occ. eigenvalues --  -10.34689 -10.32565 -10.28403 -10.27878 -10.24762
 Alpha  occ. eigenvalues --  -10.23506 -10.23096 -10.23083 -10.22984 -10.22671
 Alpha  occ. eigenvalues --  -10.22042 -10.21554 -10.20830 -10.20770 -10.20528
 Alpha  occ. eigenvalues --  -10.20491 -10.20423 -10.20241 -10.20115 -10.20076
 Alpha  occ. eigenvalues --  -10.19851 -10.19690 -10.19690 -10.19635 -10.18933
 Alpha  occ. eigenvalues --  -10.18903 -10.18795 -10.18684 -10.18606 -10.18441
 Alpha  occ. eigenvalues --  -10.18429 -10.18133 -10.17635  -1.09840  -1.09087
 Alpha  occ. eigenvalues --   -1.04459  -1.02106  -1.01472  -1.00246  -0.99841
 Alpha  occ. eigenvalues --   -0.96709  -0.95136  -0.93955  -0.83092  -0.81951
 Alpha  occ. eigenvalues --   -0.80763  -0.80365  -0.80272  -0.78118  -0.77548
 Alpha  occ. eigenvalues --   -0.76401  -0.76064  -0.74805  -0.73739  -0.71985
 Alpha  occ. eigenvalues --   -0.71090  -0.69606  -0.69332  -0.68874  -0.67795
 Alpha  occ. eigenvalues --   -0.66616  -0.65768  -0.64519  -0.62991  -0.62133
 Alpha  occ. eigenvalues --   -0.61967  -0.59829  -0.59364  -0.59355  -0.58725
 Alpha  occ. eigenvalues --   -0.56390  -0.55734  -0.55234  -0.53404  -0.52703
 Alpha  occ. eigenvalues --   -0.52250  -0.51228  -0.50702  -0.50277  -0.49451
 Alpha  occ. eigenvalues --   -0.48819  -0.48341  -0.47895  -0.47744  -0.47318
 Alpha  occ. eigenvalues --   -0.47263  -0.46808  -0.45927  -0.45855  -0.45228
 Alpha  occ. eigenvalues --   -0.45005  -0.44686  -0.44455  -0.43943  -0.43679
 Alpha  occ. eigenvalues --   -0.43568  -0.42976  -0.42733  -0.42477  -0.42217
 Alpha  occ. eigenvalues --   -0.42124  -0.41810  -0.41449  -0.41018  -0.40468
 Alpha  occ. eigenvalues --   -0.40267  -0.40078  -0.39545  -0.39413  -0.39242
 Alpha  occ. eigenvalues --   -0.38808  -0.38610  -0.38246  -0.38065  -0.38063
 Alpha  occ. eigenvalues --   -0.37807  -0.37741  -0.37352  -0.36901  -0.36517
 Alpha  occ. eigenvalues --   -0.36468  -0.36160  -0.35874  -0.35045  -0.34822
 Alpha  occ. eigenvalues --   -0.34162  -0.33958  -0.33764  -0.33167  -0.33031
 Alpha  occ. eigenvalues --   -0.32056  -0.31811  -0.30701  -0.30366  -0.29952
 Alpha  occ. eigenvalues --   -0.28995  -0.28068  -0.27226  -0.26394  -0.26046
 Alpha  occ. eigenvalues --   -0.25017  -0.24724  -0.24561  -0.24184  -0.21725
 Alpha  occ. eigenvalues --   -0.18117
 Alpha virt. eigenvalues --   -0.10066  -0.05955  -0.03770  -0.02211  -0.00308
 Alpha virt. eigenvalues --    0.01150   0.02698   0.03261   0.03694   0.04136
 Alpha virt. eigenvalues --    0.04987   0.05529   0.05919   0.06243   0.06448

 Mulliken charges:
               1
     1  O   -0.192487
     2  O   -0.217310
     3  O   -0.196001
     4  O   -0.203325
     5  O   -0.198075
     6  O   -0.272616
     7  N    0.019196
     8  N   -0.213662
     9  N   -0.035627
    10  N   -0.276600
    11  C   -0.104730
    12  C   -0.041305
    13  C   -0.194474
    14  C    0.014335
    15  C   -0.038682
    16  C    0.143074
    17  C    0.088848
    18  C   -0.125404
    19  C    0.150947
    20  C   -0.153422
    21  C    0.025658
    22  C    0.119520
    23  C    0.019612
    24  C    0.048384
    25  C   -0.091211
    26  C    0.174291
    27  C    0.089986
    28  C   -0.030806
    29  C   -0.033027
    30  C    0.016131
    31  C   -0.076616
    32  C    0.125557
    33  C   -0.164852
    34  C    0.067107
    35  C   -0.156689
    36  C   -0.154436
    37  C    0.175504
    38  C   -0.037793
    39  C    0.176222
    40  C    0.160699
    41  C    0.202230
    42  C    0.165172
    43  C   -0.065798
    44  H    0.071159
    45  H   -0.123947
    46  H    0.013923
    47  H   -0.023454
    48  H    0.050099
    49  H    0.027952
    50  H    0.013171
    51  H    0.071347
    52  H    0.210615
    53  H   -0.048350
    54  H    0.017884
    55  H    0.046875
    56  H    0.110534
    57  H    0.062748
    58  H    0.055234
    59  H    0.037524
    60  H    0.059314
    61  H    0.016293
    62  H    0.022296
    63  H    0.036032
    64  H   -0.080115
    65  H   -0.020344
    66  H    0.033887
    67  H    0.019764
    68  H    0.025820
    69  H    0.145700
    70  H   -0.029113
    71  H    0.030354
    72  H    0.009072
    73  H    0.010336
    74  H    0.024346
    75  H   -0.020578
    76  H    0.013245
    77  H    0.018133
    78  H   -0.006380
    79  H    0.028900
    80  H    0.201327
    81  H    0.160873
 Sum of Mulliken charges =  -0.00000

 Dipole moment (field-independent basis, Debye):
    X=              1.9824    Y=              0.0463    Z=              0.2817  Tot=              2.0029
 Quadrupole moment (field-independent basis, Debye-Ang):
   XX=           -253.2037   YY=           -236.1464   ZZ=           -251.9885
   XY=            -21.6229   XZ=             18.9155   YZ=             10.8536

 Normal termination of Gaussian 16 at Tue Jul  2 23:13:38 2019.
