 Gaussian 16, Revision A.03,
 Gaussian 16:  ES64L-G16RevA.03 25-Dec-2016

 --------------------------
 # td=(NStates=1) B3LYP/SVP
 --------------------------

 --
 TD
 --
 Symbolic Z-matrix:
 Charge =  0 Multiplicity = 1

                         Standard orientation:
 ---------------------------------------------------------------------
 Center     Atomic      Atomic             Coordinates (Angstroms)
 Number     Number       Type             X           Y           Z
 ---------------------------------------------------------------------
      1          8           0        4.274129   -4.916991   -1.834395
      2          8           0       -3.272012   -4.791360   -1.257632
      3          8           0       -6.941528   -1.382498   -1.781281
      4          8           0       -3.880356   -2.946238   -0.122400
      5          8           0       -7.467215   -0.457200    0.084835
      6          8           0        3.049020    2.264545    0.118040
      7          7           0        0.221795   -0.525283    0.693892
      8          7           0       -1.512588    1.799565    0.397409
      9          7           0        3.230422   -3.137398   -0.745543
     10          7           0        0.900129    2.942734    0.057791
     11          6           0       -0.772683   -2.389157    1.295643
     12          6           0       -1.045695   -1.022841    0.989131
     13          6           0        0.643903   -2.763510    1.253448
     14          6           0        1.271102   -1.480930    0.776473
     15          6           0       -3.772951    1.575888    0.370825
     16          6           0       -2.470311    0.879752    0.648408
     17          6           0       -2.259323   -0.428944    0.983302
     18          6           0       -3.349208    2.871106   -0.031933
     19          6           0       -1.869105   -3.396735    1.849770
     20          6           0        5.443126   -2.714592   -1.379958
     21          6           0        3.537283   -1.855546   -0.070631
     22          6           0       -2.037629    3.017625    0.086351
     23          6           0        4.901817   -1.729189   -0.332001
     24          6           0       -5.085355    0.927662    0.421352
     25          6           0        2.607926   -1.189305    0.570235
     26          6           0        1.415559   -3.877743    1.788487
     27          6           0        4.321769   -3.792171   -1.384035
     28          6           0       -2.353210   -4.501122    0.823262
     29          6           0       -5.401697    0.122229   -0.862684
     30          6           0       -4.411019    3.971024   -0.445442
     31          6           0       -1.170818    4.065637   -0.230107
     32          6           0        6.765162   -3.272208   -1.133329
     33          6           0        5.867396   -0.869411    0.274949
     34          6           0        0.234922    3.947416   -0.215298
     35          6           0        1.189612    5.061202   -0.513418
     36          6           0        2.476010    4.638229   -0.452346
     37          6           0       -3.204369   -3.979612   -0.282804
     38          6           0        5.500215    0.162685    1.325944
     39          6           0       -6.620346   -0.541918   -0.798685
     40          6           0        3.809631    5.214783   -0.575632
     41          6           0        2.274033    3.164067   -0.094610
     42          6           0        0.700743    6.519435   -0.649344
     43          6           0        4.365636    5.581268    0.833340
     44          1           0        0.790723    0.275366    0.353064
     45          1           0       -3.106698   -1.207011    1.038794
     46          1           0       -2.762643   -2.939806    2.231812
     47          1           0       -1.548232   -3.951023    2.838935
     48          1           0        5.478110   -2.577249   -2.462504
     49          1           0       -5.112680    0.333733    1.359272
     50          1           0       -5.778394    1.605725    0.538452
     51          1           0        2.947057   -0.241013    0.609855
     52          1           0       -0.431729    1.682835    0.512725
     53          1           0        1.250527   -4.853969    1.193961
     54          1           0        2.554499   -3.552840    1.770200
     55          1           0        1.173349   -3.692845    2.960627
     56          1           0        2.296036   -3.613700   -0.685873
     57          1           0       -1.528564   -5.182664    0.570153
     58          1           0       -2.901820   -5.102104    1.564650
     59          1           0       -4.514540   -0.623913   -0.992190
     60          1           0       -5.561705    0.878803   -1.743004
     61          1           0       -3.987429    4.817481   -0.004803
     62          1           0       -5.350534    3.678727    0.248533
     63          1           0       -4.665859    3.967306   -1.631200
     64          1           0       -1.635789    5.105367   -0.251862
     65          1           0        7.619443   -2.512919   -0.992824
     66          1           0        7.126827   -4.139447   -1.790980
     67          1           0        6.914855   -3.715291   -0.089439
     68          1           0        6.884501   -0.718722   -0.181320
     69          1           0        5.033015    0.953714    0.862702
     70          1           0        6.452073    0.949531    1.545942
     71          1           0        5.088562   -0.116779    2.304921
     72          1           0        3.738685    6.171863   -1.168898
     73          1           0        4.575187    4.768484   -1.174020
     74          1           0       -0.148035    6.793675   -1.482380
     75          1           0        1.597925    7.154386   -1.189708
     76          1           0        0.393854    7.027075    0.244778
     77          1           0        3.759347    6.503482    1.161964
     78          1           0        5.448730    5.921347    0.680329
     79          1           0        4.363186    4.719815    1.502385
     80          1           0       -3.620964   -4.224299   -2.145663
     81          1           0       -7.818233   -1.552955   -1.621548
 ---------------------------------------------------------------------

 SCF Done:  E(RB3LYP) =  -1949.05058632     A.U. after   17 cycles

 Excitation energies and oscillator strengths:

 Excited State   1:      Singlet-A      1.8239 eV  679.78 nm  f=0.4227  <S**2>=0.000
     156 ->157         0.71389
     156 <-157        -0.14137
 This state for optimization and/or second-order correction.
 Total Energy, E(TD-HF/TD-DFT) =  -1948.98355963
 Copying the excited state density for this state as the 1-particle RhoCI density.

 The electronic state is 1-A.
 Alpha  occ. eigenvalues --  -19.22071 -19.16800 -19.13664 -19.11312 -19.11074
 Alpha  occ. eigenvalues --  -19.11051 -14.37886 -14.36053 -14.35211 -14.27886
 Alpha  occ. eigenvalues --  -10.33700 -10.30854 -10.29198 -10.26676 -10.24575
 Alpha  occ. eigenvalues --  -10.23968 -10.23650 -10.22628 -10.22275 -10.22040
 Alpha  occ. eigenvalues --  -10.21958 -10.21613 -10.21567 -10.21545 -10.21410
 Alpha  occ. eigenvalues --  -10.21316 -10.21160 -10.20958 -10.20893 -10.20773
 Alpha  occ. eigenvalues --  -10.20601 -10.20443 -10.20364 -10.20268 -10.19328
 Alpha  occ. eigenvalues --  -10.19177 -10.19153 -10.19120 -10.19071 -10.19070
 Alpha  occ. eigenvalues --  -10.19044 -10.18195 -10.18179  -1.12873  -1.11214
 Alpha  occ. eigenvalues --   -1.03035  -1.02847  -1.01070  -0.98832  -0.98414
 Alpha  occ. eigenvalues --   -0.96655  -0.94019  -0.93295  -0.82794  -0.82419
 Alpha  occ. eigenvalues --   -0.81401  -0.80670  -0.80382  -0.80015  -0.78021
 Alpha  occ. eigenvalues --   -0.77718  -0.76766  -0.75137  -0.74353  -0.72696
 Alpha  occ. eigenvalues --   -0.71510  -0.70335  -0.68498  -0.68255  -0.67735
 Alpha  occ. eigenvalues --   -0.66790  -0.65273  -0.64196  -0.62116  -0.61731
 Alpha  occ. eigenvalues --   -0.61196  -0.60021  -0.59519  -0.57263  -0.56343
 Alpha  occ. eigenvalues --   -0.56240  -0.55570  -0.54880  -0.53413  -0.52944
 Alpha  occ. eigenvalues --   -0.52691  -0.51887  -0.51125  -0.51011  -0.50403
 Alpha  occ. eigenvalues --   -0.49977  -0.49680  -0.49207  -0.48064  -0.47758
 Alpha  occ. eigenvalues --   -0.47575  -0.47355  -0.46625  -0.45595  -0.45287
 Alpha  occ. eigenvalues --   -0.44858  -0.44368  -0.44024  -0.43774  -0.43644
 Alpha  occ. eigenvalues --   -0.43439  -0.43350  -0.42524  -0.42503  -0.42225
 Alpha  occ. eigenvalues --   -0.42104  -0.41899  -0.41648  -0.40960  -0.40652
 Alpha  occ. eigenvalues --   -0.40463  -0.40339  -0.40206  -0.39792  -0.39332
 Alpha  occ. eigenvalues --   -0.38991  -0.38748  -0.38593  -0.38283  -0.37837
 Alpha  occ. eigenvalues --   -0.37518  -0.37216  -0.37027  -0.36836  -0.36574
 Alpha  occ. eigenvalues --   -0.36390  -0.36209  -0.35516  -0.35090  -0.34679
 Alpha  occ. eigenvalues --   -0.34154  -0.33675  -0.33344  -0.33170  -0.33125
 Alpha  occ. eigenvalues --   -0.32997  -0.32393  -0.31137  -0.30709  -0.29445
 Alpha  occ. eigenvalues --   -0.27041  -0.26738  -0.26563  -0.26372  -0.25079
 Alpha  occ. eigenvalues --   -0.24816  -0.24350  -0.24298  -0.23807  -0.21662
 Alpha  occ. eigenvalues --   -0.17283
 Alpha virt. eigenvalues --   -0.10365  -0.06430  -0.04648  -0.02983  -0.00226
 Alpha virt. eigenvalues --    0.00085   0.00340   0.02264   0.02820   0.03138
 Alpha virt. eigenvalues --    0.03954   0.04494   0.05252   0.05716   0.06764

 Mulliken charges:
               1
     1  O   -0.204088
     2  O   -0.162748
     3  O   -0.129613
     4  O   -0.271171
     5  O   -0.267803
     6  O   -0.177243
     7  N   -0.146917
     8  N   -0.111096
     9  N   -0.238064
    10  N   -0.207735
    11  C   -0.114638
    12  C    0.167991
    13  C   -0.146504
    14  C    0.054787
    15  C   -0.130650
    16  C    0.089521
    17  C   -0.145445
    18  C   -0.165367
    19  C    0.030576
    20  C   -0.006944
    21  C    0.169028
    22  C    0.125127
    23  C   -0.021922
    24  C    0.242064
    25  C   -0.074091
    26  C    0.002433
    27  C    0.130471
    28  C    0.009809
    29  C   -0.014436
    30  C    0.061066
    31  C   -0.171159
    32  C   -0.019215
    33  C   -0.112314
    34  C    0.055874
    35  C   -0.083825
    36  C   -0.143260
    37  C    0.155143
    38  C    0.027988
    39  C    0.101756
    40  C    0.073591
    41  C    0.115115
    42  C   -0.014146
    43  C   -0.026130
    44  H    0.166821
    45  H    0.057677
    46  H    0.002750
    47  H    0.013982
    48  H    0.039935
    49  H    0.023607
    50  H   -0.076526
    51  H   -0.049432
    52  H    0.164957
    53  H    0.061461
    54  H    0.051395
    55  H    0.064356
    56  H    0.135275
    57  H    0.021146
    58  H    0.043088
    59  H    0.080264
    60  H    0.059158
    61  H    0.008302
    62  H    0.037278
    63  H    0.064240
    64  H   -0.007458
    65  H    0.016118
    66  H    0.042732
    67  H   -0.002020
    68  H    0.030174
    69  H    0.036059
    70  H   -0.002643
    71  H    0.050433
    72  H   -0.014270
    73  H    0.002713
    74  H    0.035696
    75  H    0.023340
    76  H    0.038975
    77  H    0.029107
    78  H    0.015113
    79  H    0.036166
    80  H    0.256295
    81  H    0.137919
 Sum of Mulliken charges =  -0.00000

 Dipole moment (field-independent basis, Debye):
    X=             -0.9529    Y=              0.7559    Z=             -0.7879  Tot=              1.4492
 Quadrupole moment (field-independent basis, Debye-Ang):
   XX=           -257.5187   YY=           -246.5523   ZZ=           -250.5427
   XY=             17.1855   XZ=             15.7108   YZ=             -8.7574

 Normal termination of Gaussian 16 at Mon Jul  1 07:48:50 2019.
