 Gaussian 16, Revision A.03,
 Gaussian 16:  ES64L-G16RevA.03 25-Dec-2016

 --------------------------
 # td=(NStates=1) B3LYP/SVP
 --------------------------

 --
 TD
 --
 Symbolic Z-matrix:
 Charge =  0 Multiplicity = 1

                         Standard orientation:
 ---------------------------------------------------------------------
 Center     Atomic      Atomic             Coordinates (Angstroms)
 Number     Number       Type             X           Y           Z
 ---------------------------------------------------------------------
      1          8           0        4.641544   -4.751482   -1.754346
      2          8           0       -3.099337   -4.859945   -1.296346
      3          8           0       -6.901155   -1.717823   -1.815684
      4          8           0       -3.670590   -3.049777   -0.129226
      5          8           0       -7.675184   -0.717783    0.095563
      6          8           0        2.847093    2.462819    0.283382
      7          7           0        0.296915   -0.536448    0.657396
      8          7           0       -1.545435    1.810255    0.437694
      9          7           0        3.557290   -3.087531   -0.695055
     10          7           0        0.663189    3.020840    0.162310
     11          6           0       -0.609630   -2.386376    1.392640
     12          6           0       -0.863588   -1.113086    0.930688
     13          6           0        0.839887   -2.602734    1.300729
     14          6           0        1.337342   -1.387289    0.771590
     15          6           0       -3.816317    1.299115    0.389937
     16          6           0       -2.520303    0.797432    0.537531
     17          6           0       -2.140927   -0.525654    0.880499
     18          6           0       -3.680995    2.668444    0.021714
     19          6           0       -1.578673   -3.508276    1.840830
     20          6           0        5.696627   -2.433551   -1.342567
     21          6           0        3.723799   -1.716704   -0.165609
     22          6           0       -2.234757    2.952200    0.102389
     23          6           0        5.113823   -1.402040   -0.459075
     24          6           0       -5.146222    0.572872    0.483759
     25          6           0        2.744952   -0.999862    0.442071
     26          6           0        1.636685   -3.701020    1.808975
     27          6           0        4.657930   -3.591596   -1.306272
     28          6           0       -1.998804   -4.560919    0.738188
     29          6           0       -5.434055   -0.293919   -0.716519
     30          6           0       -4.730765    3.653705   -0.365712
     31          6           0       -1.432421    4.098278   -0.296499
     32          6           0        7.100230   -3.014814   -1.101894
     33          6           0        5.832696   -0.446964    0.113113
     34          6           0       -0.021342    4.123848   -0.197323
     35          6           0        0.897476    5.220543   -0.550598
     36          6           0        2.134351    4.724993   -0.203445
     37          6           0       -3.003954   -4.079210   -0.181203
     38          6           0        5.340175    0.482023    1.235079
     39          6           0       -6.759339   -0.899877   -0.698539
     40          6           0        3.453310    5.379599   -0.410161
     41          6           0        1.904342    3.240047    0.255240
     42          6           0        0.376571    6.529850   -1.248975
     43          6           0        4.220178    5.628753    0.897619
     44          1           0        0.290857    0.418966    0.231941
     45          1           0       -3.003959   -1.172372    1.003707
     46          1           0       -2.595163   -3.055691    2.293593
     47          1           0       -1.152302   -4.391887    2.592478
     48          1           0        5.895500   -2.116706   -2.247217
     49          1           0       -4.969069    0.237521    1.392956
     50          1           0       -5.881353    1.303515    0.593194
     51          1           0        2.955352    0.171742    0.695249
     52          1           0       -0.439242    1.752110    0.304342
     53          1           0        1.290932   -4.801365    1.340155
     54          1           0        2.858424   -3.439255    1.442254
     55          1           0        1.681450   -3.708823    3.163620
     56          1           0        2.654286   -3.601045   -0.831859
     57          1           0       -1.211566   -4.906923   -0.096997
     58          1           0       -2.196528   -5.492006    1.113987
     59          1           0       -4.835245   -1.316347   -0.799494
     60          1           0       -5.247555    0.263707   -1.593563
     61          1           0       -4.833784    4.773574    0.207926
     62          1           0       -5.573063    3.315746   -0.111264
     63          1           0       -4.593241    3.917678   -1.427272
     64          1           0       -1.856041    5.179693   -0.711327
     65          1           0        7.962822   -2.507194   -1.331035
     66          1           0        7.135361   -3.897868   -1.908200
     67          1           0        7.237178   -3.599995   -0.156736
     68          1           0        6.972345   -0.627525   -0.116982
     69          1           0        4.561040    1.419751    0.843760
     70          1           0        6.276537    0.721649    1.716236
     71          1           0        4.869409   -0.268849    2.022649
     72          1           0        3.055789    6.266346   -0.900796
     73          1           0        4.014593    4.700682   -1.131366
     74          1           0        0.119473    6.296309   -2.276810
     75          1           0        1.218097    7.387173   -1.168525
     76          1           0       -0.525345    6.873105   -0.631596
     77          1           0        3.712663    6.142815    1.709172
     78          1           0        5.207417    6.079764    0.613559
     79          1           0        4.368935    4.521201    1.371156
     80          1           0       -3.840955   -4.392358   -1.802585
     81          1           0       -7.756410   -2.071580   -1.800680
 ---------------------------------------------------------------------

 SCF Done:  E(RB3LYP) =  -1949.03405059     A.U. after   17 cycles

 Excitation energies and oscillator strengths:

 Excited State   1:      Singlet-A      2.0187 eV  614.17 nm  f=0.3978  <S**2>=0.000
     156 ->157         0.70500
     156 <-157        -0.10693
 This state for optimization and/or second-order correction.
 Total Energy, E(TD-HF/TD-DFT) =  -1948.95986414
 Copying the excited state density for this state as the 1-particle RhoCI density.

 The electronic state is 1-A.
 Alpha  occ. eigenvalues --  -19.19763 -19.17617 -19.15028 -19.13226 -19.10411
 Alpha  occ. eigenvalues --  -19.09291 -14.39011 -14.36981 -14.36286 -14.28402
 Alpha  occ. eigenvalues --  -10.33950 -10.32377 -10.28872 -10.25267 -10.25236
 Alpha  occ. eigenvalues --  -10.24898 -10.24691 -10.24456 -10.23832 -10.23665
 Alpha  occ. eigenvalues --  -10.23389 -10.22934 -10.22767 -10.22171 -10.21281
 Alpha  occ. eigenvalues --  -10.21234 -10.21197 -10.21013 -10.20943 -10.20570
 Alpha  occ. eigenvalues --  -10.20461 -10.20133 -10.20070 -10.19928 -10.19797
 Alpha  occ. eigenvalues --  -10.19472 -10.19416 -10.19286 -10.19152 -10.18875
 Alpha  occ. eigenvalues --  -10.18506 -10.18468 -10.18317  -1.11160  -1.08975
 Alpha  occ. eigenvalues --   -1.02051  -1.01463  -1.01426  -1.01228  -1.00434
 Alpha  occ. eigenvalues --   -0.97266  -0.93377  -0.93256  -0.83601  -0.82426
 Alpha  occ. eigenvalues --   -0.82296  -0.81597  -0.79468  -0.79251  -0.78781
 Alpha  occ. eigenvalues --   -0.78303  -0.76824  -0.75031  -0.73712  -0.72732
 Alpha  occ. eigenvalues --   -0.71636  -0.70138  -0.69319  -0.68558  -0.68210
 Alpha  occ. eigenvalues --   -0.67572  -0.65803  -0.64037  -0.62192  -0.61282
 Alpha  occ. eigenvalues --   -0.60201  -0.60032  -0.59032  -0.58069  -0.56860
 Alpha  occ. eigenvalues --   -0.56364  -0.55519  -0.55008  -0.53467  -0.53095
 Alpha  occ. eigenvalues --   -0.52709  -0.51982  -0.51375  -0.51134  -0.50811
 Alpha  occ. eigenvalues --   -0.49822  -0.49137  -0.48669  -0.48351  -0.48149
 Alpha  occ. eigenvalues --   -0.47246  -0.46819  -0.46232  -0.45762  -0.45272
 Alpha  occ. eigenvalues --   -0.44901  -0.44769  -0.44289  -0.43938  -0.43862
 Alpha  occ. eigenvalues --   -0.43335  -0.42777  -0.42328  -0.42097  -0.41851
 Alpha  occ. eigenvalues --   -0.41675  -0.41541  -0.41273  -0.41251  -0.41018
 Alpha  occ. eigenvalues --   -0.40631  -0.40472  -0.40070  -0.39381  -0.39285
 Alpha  occ. eigenvalues --   -0.39050  -0.38902  -0.38520  -0.38151  -0.38043
 Alpha  occ. eigenvalues --   -0.37863  -0.37506  -0.37199  -0.37036  -0.36995
 Alpha  occ. eigenvalues --   -0.36420  -0.35980  -0.35872  -0.34884  -0.34181
 Alpha  occ. eigenvalues --   -0.34073  -0.33666  -0.33328  -0.33217  -0.32952
 Alpha  occ. eigenvalues --   -0.32644  -0.32329  -0.32026  -0.30594  -0.29881
 Alpha  occ. eigenvalues --   -0.28483  -0.27530  -0.26328  -0.26051  -0.25491
 Alpha  occ. eigenvalues --   -0.25328  -0.25035  -0.23554  -0.22811  -0.22098
 Alpha  occ. eigenvalues --   -0.18887
 Alpha virt. eigenvalues --   -0.10887  -0.05586  -0.04120  -0.02647  -0.00408
 Alpha virt. eigenvalues --    0.00005   0.01560   0.01829   0.02628   0.03459
 Alpha virt. eigenvalues --    0.03723   0.04182   0.05420   0.05562   0.05850

 Mulliken charges:
               1
     1  O   -0.246973
     2  O   -0.211351
     3  O   -0.199630
     4  O   -0.241539
     5  O   -0.233117
     6  O   -0.253741
     7  N    0.015376
     8  N   -0.164502
     9  N   -0.167141
    10  N   -0.211854
    11  C   -0.069277
    12  C    0.061258
    13  C   -0.098539
    14  C    0.040272
    15  C   -0.160573
    16  C    0.053229
    17  C   -0.061077
    18  C   -0.135326
    19  C    0.019732
    20  C    0.012578
    21  C    0.144273
    22  C    0.123624
    23  C    0.036327
    24  C    0.289442
    25  C   -0.159608
    26  C   -0.138319
    27  C    0.130886
    28  C    0.005427
    29  C   -0.006667
    30  C    0.146303
    31  C   -0.149060
    32  C   -0.001249
    33  C   -0.176034
    34  C    0.040844
    35  C   -0.084107
    36  C   -0.254187
    37  C    0.149020
    38  C   -0.044770
    39  C    0.142381
    40  C    0.099747
    41  C    0.116631
    42  C    0.042088
    43  C   -0.039237
    44  H    0.128801
    45  H   -0.001652
    46  H    0.053437
    47  H    0.039510
    48  H   -0.009934
    49  H   -0.028022
    50  H   -0.025715
    51  H    0.086208
    52  H    0.185019
    53  H    0.051492
    54  H    0.077927
    55  H    0.062800
    56  H    0.147901
    57  H    0.066289
    58  H    0.020176
    59  H    0.085245
    60  H    0.029997
    61  H    0.033532
    62  H   -0.062894
    63  H    0.038037
    64  H    0.014047
    65  H    0.001765
    66  H    0.033451
    67  H    0.017194
    68  H    0.013693
    69  H    0.158934
    70  H    0.003044
    71  H    0.040694
    72  H   -0.018887
    73  H    0.031633
    74  H    0.040866
    75  H    0.042843
    76  H    0.042988
    77  H    0.015188
    78  H    0.024185
    79  H    0.043878
    80  H    0.202336
    81  H    0.152429
 Sum of Mulliken charges =  -0.00000

 Dipole moment (field-independent basis, Debye):
    X=             -3.5481    Y=              0.0453    Z=             -0.9202  Tot=              3.6658
 Quadrupole moment (field-independent basis, Debye-Ang):
   XX=           -258.1629   YY=           -247.9078   ZZ=           -255.1266
   XY=             16.1971   XZ=             13.8632   YZ=            -13.7820

 Normal termination of Gaussian 16 at Tue Jul  2 01:13:39 2019.
