 Gaussian 16, Revision A.03,
 Gaussian 16:  ES64L-G16RevA.03 25-Dec-2016

 --------------------------
 # td=(NStates=1) B3LYP/SVP
 --------------------------

 --
 TD
 --
 Symbolic Z-matrix:
 Charge =  0 Multiplicity = 1

                         Standard orientation:
 ---------------------------------------------------------------------
 Center     Atomic      Atomic             Coordinates (Angstroms)
 Number     Number       Type             X           Y           Z
 ---------------------------------------------------------------------
      1          8           0        4.556374   -4.756378   -1.648686
      2          8           0       -2.783723   -4.794008   -1.275877
      3          8           0       -6.980499   -1.699077   -1.779767
      4          8           0       -3.766427   -3.244563    0.002518
      5          8           0       -7.630744   -0.683295    0.083851
      6          8           0        2.972067    2.541395    0.391783
      7          7           0        0.223102   -0.540385    0.411103
      8          7           0       -1.625118    1.781273    0.518803
      9          7           0        3.434733   -3.011014   -0.717719
     10          7           0        0.685136    2.932171    0.217125
     11          6           0       -0.571822   -2.391234    1.354132
     12          6           0       -0.890405   -1.172860    0.859430
     13          6           0        0.840622   -2.558883    1.200342
     14          6           0        1.308577   -1.368478    0.713233
     15          6           0       -3.907670    1.362745    0.387675
     16          6           0       -2.535637    0.836220    0.658912
     17          6           0       -2.197633   -0.456435    0.956321
     18          6           0       -3.706534    2.666888   -0.018920
     19          6           0       -1.474547   -3.468298    1.919315
     20          6           0        5.680971   -2.583801   -1.348540
     21          6           0        3.571538   -1.770660   -0.250773
     22          6           0       -2.231129    2.822867   -0.009879
     23          6           0        5.062605   -1.481927   -0.448516
     24          6           0       -5.219914    0.623068    0.542942
     25          6           0        2.669534   -0.952985    0.413650
     26          6           0        1.607463   -3.720329    1.710664
     27          6           0        4.572600   -3.553614   -1.253142
     28          6           0       -1.967948   -4.500348    0.830790
     29          6           0       -5.448969   -0.265583   -0.731784
     30          6           0       -4.746230    3.716244   -0.518025
     31          6           0       -1.395859    4.087260   -0.285775
     32          6           0        7.108246   -3.102433   -1.174350
     33          6           0        5.814801   -0.642244    0.178574
     34          6           0       -0.066047    4.027995   -0.197004
     35          6           0        0.884101    5.181684   -0.510438
     36          6           0        2.107743    4.734540   -0.350673
     37          6           0       -2.869822   -3.964405   -0.245899
     38          6           0        5.591128    0.416394    1.294161
     39          6           0       -6.785629   -0.912932   -0.812230
     40          6           0        3.638111    5.419274   -0.449982
     41          6           0        2.031245    3.251498    0.119665
     42          6           0        0.452837    6.598944   -1.027768
     43          6           0        4.137213    5.719592    0.876535
     44          1           0        0.374991    0.297785   -0.166531
     45          1           0       -3.019183   -1.325671    1.152560
     46          1           0       -2.496341   -3.118777    2.131864
     47          1           0       -1.184115   -3.924562    2.791266
     48          1           0        5.549966   -2.123343   -2.447703
     49          1           0       -5.182097   -0.257915    1.161040
     50          1           0       -6.100527    1.262565    0.703271
     51          1           0        2.984125    0.129502    0.872330
     52          1           0       -0.630862    1.956284    0.611532
     53          1           0        1.750518   -4.588446    1.152182
     54          1           0        2.764009   -3.231464    1.686485
     55          1           0        1.315190   -4.128740    2.850704
     56          1           0        2.487904   -3.412738   -0.661133
     57          1           0       -1.276801   -5.042748    0.380446
     58          1           0       -2.500315   -5.447384    1.323243
     59          1           0       -4.639270   -1.096214   -0.549958
     60          1           0       -5.149011    0.347570   -1.567680
     61          1           0       -4.657599    4.573588   -0.041057
     62          1           0       -5.755891    3.322029   -0.294023
     63          1           0       -4.770089    3.645250   -1.605851
     64          1           0       -1.942907    5.035182   -0.671490
     65          1           0        7.742708   -2.469761   -1.684203
     66          1           0        7.063359   -3.961018   -1.964834
     67          1           0        7.543521   -3.213043   -0.018524
     68          1           0        6.798500   -0.703184   -0.202662
     69          1           0        4.977818    1.190926    0.842933
     70          1           0        6.534837    0.661115    1.945311
     71          1           0        4.831424    0.197285    2.160109
     72          1           0        3.347949    6.371421   -1.049250
     73          1           0        4.202366    4.737505   -1.213282
     74          1           0       -0.404658    6.318551   -1.814346
     75          1           0        1.502043    6.987173   -1.528680
     76          1           0       -0.033385    7.337660   -0.170375
     77          1           0        3.459179    6.596106    1.288986
     78          1           0        5.372661    6.160434    0.946505
     79          1           0        4.114352    4.860396    1.655066
     80          1           0       -3.487697   -4.417223   -1.873746
     81          1           0       -7.829245   -2.159587   -1.622147
 ---------------------------------------------------------------------

 SCF Done:  E(RB3LYP) =  -1949.04317196     A.U. after   16 cycles

 Excitation energies and oscillator strengths:

 Excited State   1:      Singlet-A      2.1194 eV  585.00 nm  f=0.3287  <S**2>=0.000
     156 ->157         0.70303
 This state for optimization and/or second-order correction.
 Total Energy, E(TD-HF/TD-DFT) =  -1948.96528592
 Copying the excited state density for this state as the 1-particle RhoCI density.

 The electronic state is 1-A.
 Alpha  occ. eigenvalues --  -19.20944 -19.20887 -19.15295 -19.11739 -19.10218
 Alpha  occ. eigenvalues --  -19.09313 -14.37800 -14.37250 -14.37172 -14.28126
 Alpha  occ. eigenvalues --  -10.33553 -10.32392 -10.29349 -10.25684 -10.25637
 Alpha  occ. eigenvalues --  -10.24474 -10.24218 -10.23102 -10.23088 -10.22696
 Alpha  occ. eigenvalues --  -10.22466 -10.22240 -10.22178 -10.22140 -10.21634
 Alpha  occ. eigenvalues --  -10.21138 -10.20940 -10.20841 -10.20621 -10.20529
 Alpha  occ. eigenvalues --  -10.20518 -10.20472 -10.20143 -10.20098 -10.19692
 Alpha  occ. eigenvalues --  -10.19481 -10.19353 -10.19219 -10.19211 -10.19104
 Alpha  occ. eigenvalues --  -10.18950 -10.18642 -10.18195  -1.13901  -1.13634
 Alpha  occ. eigenvalues --   -1.04762  -1.02483  -1.02035  -1.00706  -0.99349
 Alpha  occ. eigenvalues --   -0.98481  -0.95441  -0.90014  -0.83072  -0.82315
 Alpha  occ. eigenvalues --   -0.82129  -0.80984  -0.78950  -0.78450  -0.77721
 Alpha  occ. eigenvalues --   -0.77355  -0.75990  -0.74558  -0.73411  -0.72601
 Alpha  occ. eigenvalues --   -0.71950  -0.69847  -0.69570  -0.69355  -0.68636
 Alpha  occ. eigenvalues --   -0.66356  -0.65835  -0.64689  -0.62750  -0.61543
 Alpha  occ. eigenvalues --   -0.60720  -0.59041  -0.58808  -0.58510  -0.57053
 Alpha  occ. eigenvalues --   -0.56938  -0.56043  -0.55240  -0.54059  -0.52644
 Alpha  occ. eigenvalues --   -0.52384  -0.51654  -0.51367  -0.50690  -0.50493
 Alpha  occ. eigenvalues --   -0.50432  -0.49872  -0.49249  -0.49188  -0.48401
 Alpha  occ. eigenvalues --   -0.48067  -0.47265  -0.46490  -0.46179  -0.45350
 Alpha  occ. eigenvalues --   -0.45005  -0.44578  -0.44488  -0.43672  -0.43459
 Alpha  occ. eigenvalues --   -0.43416  -0.42654  -0.42604  -0.42353  -0.42088
 Alpha  occ. eigenvalues --   -0.41879  -0.41500  -0.40997  -0.40785  -0.40552
 Alpha  occ. eigenvalues --   -0.40440  -0.39807  -0.39594  -0.39539  -0.39123
 Alpha  occ. eigenvalues --   -0.39104  -0.38702  -0.38630  -0.38230  -0.38009
 Alpha  occ. eigenvalues --   -0.37969  -0.37558  -0.37127  -0.36850  -0.36401
 Alpha  occ. eigenvalues --   -0.36178  -0.35970  -0.35511  -0.35404  -0.34912
 Alpha  occ. eigenvalues --   -0.33686  -0.33414  -0.33338  -0.32909  -0.32091
 Alpha  occ. eigenvalues --   -0.31876  -0.31824  -0.30683  -0.29959  -0.29432
 Alpha  occ. eigenvalues --   -0.27680  -0.27133  -0.26704  -0.25994  -0.25405
 Alpha  occ. eigenvalues --   -0.25283  -0.25119  -0.23601  -0.22987  -0.21276
 Alpha  occ. eigenvalues --   -0.19030
 Alpha virt. eigenvalues --   -0.10233  -0.04035  -0.03124  -0.02689  -0.01082
 Alpha virt. eigenvalues --   -0.00097   0.02060   0.02836   0.03461   0.03543
 Alpha virt. eigenvalues --    0.03692   0.04341   0.04789   0.05051   0.06106

 Mulliken charges:
               1
     1  O   -0.261768
     2  O   -0.151899
     3  O   -0.088775
     4  O   -0.200811
     5  O   -0.290368
     6  O   -0.208562
     7  N   -0.069348
     8  N    0.060909
     9  N   -0.027601
    10  N   -0.354196
    11  C   -0.094479
    12  C   -0.011578
    13  C   -0.113683
    14  C    0.014057
    15  C   -0.069753
    16  C    0.106405
    17  C   -0.110430
    18  C   -0.195204
    19  C    0.174356
    20  C   -0.078572
    21  C    0.076658
    22  C   -0.022699
    23  C   -0.057874
    24  C    0.145272
    25  C   -0.170013
    26  C   -0.027652
    27  C    0.104185
    28  C    0.017229
    29  C   -0.095246
    30  C    0.199541
    31  C   -0.146401
    32  C    0.087255
    33  C   -0.121418
    34  C    0.136628
    35  C   -0.072780
    36  C   -0.230495
    37  C    0.113396
    38  C    0.004986
    39  C    0.129321
    40  C    0.078461
    41  C    0.150539
    42  C   -0.033588
    43  C   -0.069375
    44  H    0.145841
    45  H    0.061737
    46  H    0.001360
    47  H   -0.024087
    48  H    0.070412
    49  H    0.001239
    50  H    0.034743
    51  H    0.086504
    52  H    0.112793
    53  H    0.019689
    54  H    0.052622
    55  H    0.047375
    56  H    0.138007
    57  H   -0.038481
    58  H    0.053127
    59  H    0.073909
    60  H    0.025944
    61  H    0.002020
    62  H   -0.004637
    63  H    0.030184
    64  H    0.005353
    65  H   -0.011501
    66  H    0.043573
    67  H    0.062832
    68  H   -0.029710
    69  H    0.071018
    70  H    0.035794
    71  H    0.027484
    72  H   -0.004075
    73  H    0.039438
    74  H    0.045042
    75  H    0.056365
    76  H    0.061695
    77  H    0.027659
    78  H    0.026415
    79  H    0.055650
    80  H    0.181678
    81  H    0.190359
 Sum of Mulliken charges =  -0.00000

 Dipole moment (field-independent basis, Debye):
    X=             -4.2684    Y=             -0.6721    Z=             -2.2678  Tot=              4.8799
 Quadrupole moment (field-independent basis, Debye-Ang):
   XX=           -249.6654   YY=           -252.6142   ZZ=           -251.9181
   XY=             15.0117   XZ=             17.7897   YZ=             -9.2273

 Normal termination of Gaussian 16 at Thu Jul  4 00:03:14 2019.
