 Gaussian 16, Revision A.03,
 Gaussian 16:  ES64L-G16RevA.03 25-Dec-2016

 --------------------------
 # td=(NStates=1) B3LYP/SVP
 --------------------------

 --
 TD
 --
 Symbolic Z-matrix:
 Charge =  0 Multiplicity = 1

                         Standard orientation:
 ---------------------------------------------------------------------
 Center     Atomic      Atomic             Coordinates (Angstroms)
 Number     Number       Type             X           Y           Z
 ---------------------------------------------------------------------
      1          8           0        4.797543   -4.709669   -1.722829
      2          8           0       -2.632503   -4.821406   -1.321272
      3          8           0       -7.066323   -1.799096   -1.890687
      4          8           0       -3.557838   -3.294250   -0.061836
      5          8           0       -7.717997   -0.626603   -0.102686
      6          8           0        2.887082    2.626284    0.204387
      7          7           0        0.337917   -0.619551    0.572603
      8          7           0       -1.571431    1.791615    0.468621
      9          7           0        3.511843   -3.015261   -0.805515
     10          7           0        0.574825    3.077833    0.206643
     11          6           0       -0.543791   -2.542784    1.454912
     12          6           0       -0.858278   -1.204991    1.057852
     13          6           0        0.876052   -2.677688    1.149645
     14          6           0        1.330644   -1.395828    0.627782
     15          6           0       -3.864330    1.240533    0.336302
     16          6           0       -2.523129    0.727768    0.622113
     17          6           0       -2.193730   -0.584682    1.030635
     18          6           0       -3.651339    2.577339    0.140601
     19          6           0       -1.501302   -3.575593    1.962535
     20          6           0        5.628715   -2.433927   -1.355091
     21          6           0        3.676441   -1.768787   -0.175321
     22          6           0       -2.255495    2.882278    0.124988
     23          6           0        5.133261   -1.375094   -0.407177
     24          6           0       -5.085094    0.462066    0.459679
     25          6           0        2.649819   -1.006809    0.334068
     26          6           0        1.771038   -3.789683    1.733267
     27          6           0        4.688780   -3.501855   -1.391799
     28          6           0       -1.817752   -4.718926    0.962347
     29          6           0       -5.399691   -0.369577   -0.840564
     30          6           0       -4.666274    3.613445   -0.328354
     31          6           0       -1.593665    4.102660   -0.173912
     32          6           0        7.123919   -2.848829   -1.027769
     33          6           0        5.762353   -0.332895    0.147544
     34          6           0       -0.165906    4.057510   -0.106651
     35          6           0        0.744900    5.253795   -0.525417
     36          6           0        2.008529    4.853080   -0.382277
     37          6           0       -2.723464   -4.223850   -0.163466
     38          6           0        5.285016    0.671886    1.132665
     39          6           0       -6.787219   -1.038615   -0.831619
     40          6           0        3.289198    5.441982   -0.481304
     41          6           0        1.935135    3.419697   -0.001273
     42          6           0        0.218191    6.645121   -0.889973
     43          6           0        4.048843    5.750185    0.876443
     44          1           0        0.439953    0.334894    0.518382
     45          1           0       -3.051579   -1.296548    1.176740
     46          1           0       -2.438831   -3.114363    2.183430
     47          1           0       -1.106369   -3.986013    2.844289
     48          1           0        5.691967   -2.090593   -2.420034
     49          1           0       -4.762936   -0.176634    1.249995
     50          1           0       -5.785079    1.095603    0.847571
     51          1           0        2.913151    0.064983    0.663904
     52          1           0       -0.576430    1.842742    0.616947
     53          1           0        1.606422   -4.700133    1.029682
     54          1           0        2.828232   -3.636123    1.875970
     55          1           0        1.277214   -4.223181    2.749713
     56          1           0        2.785248   -3.616626   -0.683828
     57          1           0       -0.838313   -5.091340    0.640124
     58          1           0       -2.231410   -5.412942    1.822537
     59          1           0       -4.560746   -1.064787   -1.169355
     60          1           0       -5.538020    0.432798   -1.690068
     61          1           0       -4.722896    4.308490    0.471377
     62          1           0       -5.628535    3.011143   -0.512000
     63          1           0       -4.385071    4.200464   -1.152674
     64          1           0       -2.250795    5.010259   -0.535387
     65          1           0        7.936961   -2.231249   -1.258456
     66          1           0        7.293408   -3.601559   -1.638924
     67          1           0        7.030266   -3.075284    0.083686
     68          1           0        6.861250   -0.205705   -0.237421
     69          1           0        4.710266    1.561912    0.678300
     70          1           0        6.154760    0.996936    1.839546
     71          1           0        4.587967    0.298123    1.759528
     72          1           0        3.318314    6.488772   -1.068722
     73          1           0        3.786965    4.651267   -1.084417
     74          1           0       -0.551247    6.405537   -1.868325
     75          1           0        1.157132    7.353894   -1.227635
     76          1           0       -0.295437    7.150801   -0.199257
     77          1           0        3.522397    6.191173    1.519305
     78          1           0        4.970790    6.241606    0.656186
     79          1           0        4.303041    4.799062    1.357726
     80          1           0       -3.308652   -4.489346   -2.151508
     81          1           0       -8.037398   -1.926146   -2.052477
 ---------------------------------------------------------------------

 SCF Done:  E(RB3LYP) =  -1949.11205451     A.U. after   16 cycles

 Excitation energies and oscillator strengths:

 Excited State   1:      Singlet-A      1.9803 eV  626.08 nm  f=0.3798  <S**2>=0.000
     156 ->157         0.70584
     156 <-157        -0.10028
 This state for optimization and/or second-order correction.
 Total Energy, E(TD-HF/TD-DFT) =  -1949.03927860
 Copying the excited state density for this state as the 1-particle RhoCI density.

 The electronic state is 1-A.
 Alpha  occ. eigenvalues --  -19.20406 -19.18713 -19.12984 -19.11726 -19.11202
 Alpha  occ. eigenvalues --  -19.10821 -14.37727 -14.36339 -14.35612 -14.28954
 Alpha  occ. eigenvalues --  -10.34011 -10.32468 -10.29160 -10.27178 -10.24583
 Alpha  occ. eigenvalues --  -10.23372 -10.23284 -10.23197 -10.23103 -10.22996
 Alpha  occ. eigenvalues --  -10.22847 -10.22699 -10.21985 -10.21239 -10.20964
 Alpha  occ. eigenvalues --  -10.20932 -10.20406 -10.20364 -10.20312 -10.20192
 Alpha  occ. eigenvalues --  -10.20138 -10.19796 -10.19667 -10.19470 -10.19283
 Alpha  occ. eigenvalues --  -10.19258 -10.19255 -10.19139 -10.19007 -10.17963
 Alpha  occ. eigenvalues --  -10.17865 -10.17837 -10.16210  -1.10258  -1.09210
 Alpha  occ. eigenvalues --   -1.01989  -1.00779  -1.00530  -0.98911  -0.98238
 Alpha  occ. eigenvalues --   -0.97864  -0.94429  -0.92928  -0.83269  -0.82673
 Alpha  occ. eigenvalues --   -0.82247  -0.80652  -0.80172  -0.78647  -0.77690
 Alpha  occ. eigenvalues --   -0.77003  -0.76234  -0.74638  -0.73947  -0.72179
 Alpha  occ. eigenvalues --   -0.70936  -0.70014  -0.69469  -0.69128  -0.68607
 Alpha  occ. eigenvalues --   -0.68393  -0.66319  -0.64281  -0.63544  -0.62321
 Alpha  occ. eigenvalues --   -0.61451  -0.61166  -0.59031  -0.57839  -0.57414
 Alpha  occ. eigenvalues --   -0.56657  -0.55842  -0.55077  -0.54181  -0.53577
 Alpha  occ. eigenvalues --   -0.52810  -0.52250  -0.51685  -0.50075  -0.49252
 Alpha  occ. eigenvalues --   -0.49066  -0.48876  -0.48694  -0.47992  -0.47392
 Alpha  occ. eigenvalues --   -0.47073  -0.46423  -0.46160  -0.45666  -0.45422
 Alpha  occ. eigenvalues --   -0.44939  -0.44551  -0.44223  -0.43993  -0.43760
 Alpha  occ. eigenvalues --   -0.43289  -0.42734  -0.42450  -0.42304  -0.41869
 Alpha  occ. eigenvalues --   -0.41797  -0.41639  -0.41296  -0.40871  -0.40713
 Alpha  occ. eigenvalues --   -0.40551  -0.40489  -0.40194  -0.39899  -0.39463
 Alpha  occ. eigenvalues --   -0.39152  -0.38968  -0.38908  -0.38521  -0.38183
 Alpha  occ. eigenvalues --   -0.37871  -0.37710  -0.37663  -0.37364  -0.36848
 Alpha  occ. eigenvalues --   -0.36107  -0.35950  -0.35781  -0.35617  -0.35024
 Alpha  occ. eigenvalues --   -0.34522  -0.34223  -0.33824  -0.33197  -0.32715
 Alpha  occ. eigenvalues --   -0.32392  -0.32249  -0.31384  -0.29870  -0.28636
 Alpha  occ. eigenvalues --   -0.27238  -0.27089  -0.26333  -0.26034  -0.25663
 Alpha  occ. eigenvalues --   -0.25311  -0.24874  -0.24156  -0.23723  -0.21413
 Alpha  occ. eigenvalues --   -0.17573
 Alpha virt. eigenvalues --   -0.09592  -0.05585  -0.03710  -0.02567  -0.01433
 Alpha virt. eigenvalues --   -0.01123  -0.00937   0.02370   0.03302   0.04031
 Alpha virt. eigenvalues --    0.04187   0.04447   0.05157   0.05632   0.06490

 Mulliken charges:
               1
     1  O   -0.248783
     2  O   -0.217369
     3  O   -0.188954
     4  O   -0.279627
     5  O   -0.277214
     6  O   -0.238726
     7  N    0.066406
     8  N   -0.071538
     9  N   -0.089281
    10  N   -0.258911
    11  C   -0.112020
    12  C    0.013810
    13  C   -0.181352
    14  C    0.027094
    15  C   -0.116385
    16  C    0.076056
    17  C   -0.074921
    18  C   -0.178101
    19  C    0.136868
    20  C   -0.037184
    21  C    0.080931
    22  C    0.079294
    23  C    0.007100
    24  C    0.205611
    25  C   -0.129750
    26  C    0.011684
    27  C    0.112028
    28  C   -0.010041
    29  C   -0.031918
    30  C    0.130111
    31  C   -0.163786
    32  C    0.117991
    33  C   -0.186267
    34  C    0.073086
    35  C   -0.110390
    36  C   -0.111753
    37  C    0.173684
    38  C    0.071926
    39  C    0.164451
    40  C   -0.015393
    41  C    0.162782
    42  C    0.048497
    43  C    0.109453
    44  H    0.087306
    45  H    0.038916
    46  H   -0.001549
    47  H   -0.014261
    48  H    0.055289
    49  H    0.000261
    50  H   -0.012337
    51  H    0.037420
    52  H    0.124134
    53  H    0.026989
    54  H    0.039878
    55  H    0.031362
    56  H    0.088292
    57  H    0.032357
    58  H    0.073454
    59  H    0.059633
    60  H    0.056026
    61  H    0.006234
    62  H    0.029687
    63  H    0.011021
    64  H    0.008464
    65  H   -0.002046
    66  H   -0.021104
    67  H    0.031526
    68  H    0.008817
    69  H    0.095843
    70  H    0.018766
    71  H   -0.013303
    72  H    0.006915
    73  H    0.026196
    74  H    0.041766
    75  H    0.036092
    76  H    0.007338
    77  H   -0.046301
    78  H    0.005656
    79  H    0.012086
    80  H    0.272403
    81  H    0.201574
 Sum of Mulliken charges =  -0.00000

 Dipole moment (field-independent basis, Debye):
    X=             -2.4260    Y=              0.2034    Z=             -0.9725  Tot=              2.6215
 Quadrupole moment (field-independent basis, Debye-Ang):
   XX=           -255.3174   YY=           -244.5578   ZZ=           -247.0233
   XY=             20.2461   XZ=             20.3689   YZ=             -7.9848

 Normal termination of Gaussian 16 at Sat Jul  6 05:14:05 2019.
