 Gaussian 16, Revision A.03,
 Gaussian 16:  ES64L-G16RevA.03 25-Dec-2016

 --------------------------
 # td=(NStates=1) B3LYP/SVP
 --------------------------

 --
 TD
 --
 Symbolic Z-matrix:
 Charge =  0 Multiplicity = 1

                         Standard orientation:
 ---------------------------------------------------------------------
 Center     Atomic      Atomic             Coordinates (Angstroms)
 Number     Number       Type             X           Y           Z
 ---------------------------------------------------------------------
      1          8           0        4.310005   -4.963067   -1.755740
      2          8           0       -2.923810   -4.895162   -1.226821
      3          8           0       -7.153998   -1.421609   -1.805748
      4          8           0       -3.904926   -3.223069   -0.196790
      5          8           0       -7.578013   -0.342285    0.134999
      6          8           0        3.102818    2.479613    0.033279
      7          7           0        0.326846   -0.504565    0.617583
      8          7           0       -1.516214    1.892188    0.428411
      9          7           0        3.315079   -3.265999   -0.623378
     10          7           0        0.822590    2.980940    0.108050
     11          6           0       -0.731405   -2.449332    1.316436
     12          6           0       -0.914554   -1.075385    0.886649
     13          6           0        0.661977   -2.629610    1.341916
     14          6           0        1.261011   -1.501440    0.770352
     15          6           0       -3.691168    1.490385    0.365675
     16          6           0       -2.489352    0.861548    0.602220
     17          6           0       -2.122033   -0.476394    0.733672
     18          6           0       -3.463131    2.830308   -0.015044
     19          6           0       -1.715070   -3.426395    1.949571
     20          6           0        5.497312   -2.850253   -1.356116
     21          6           0        3.559182   -2.043573   -0.081258
     22          6           0       -2.153954    3.083324    0.076579
     23          6           0        4.962273   -1.755967   -0.370357
     24          6           0       -5.015393    0.695303    0.385539
     25          6           0        2.664081   -1.249231    0.489425
     26          6           0        1.529418   -3.798650    1.805487
     27          6           0        4.411478   -3.807711   -1.306774
     28          6           0       -2.224738   -4.544746    0.982454
     29          6           0       -5.402757   -0.050406   -0.906387
     30          6           0       -4.515433    3.879338   -0.323684
     31          6           0       -1.275970    4.140202   -0.198068
     32          6           0        6.855614   -3.201345   -0.957434
     33          6           0        5.677824   -0.708442    0.036725
     34          6           0        0.142467    4.121371   -0.176888
     35          6           0        1.056029    5.187897   -0.409173
     36          6           0        2.291411    4.738477   -0.214667
     37          6           0       -3.081434   -4.120585   -0.178717
     38          6           0        5.361650    0.361796    1.045229
     39          6           0       -6.831838   -0.643863   -0.815482
     40          6           0        3.625145    5.439275   -0.566308
     41          6           0        2.249277    3.305929    0.024938
     42          6           0        0.713304    6.593950   -0.658926
     43          6           0        4.474900    5.710160    0.642837
     44          1           0        0.337053    0.439205    0.122887
     45          1           0       -3.111757   -1.064661    0.878998
     46          1           0       -2.703595   -2.864464    2.020373
     47          1           0       -1.359329   -3.864467    2.847098
     48          1           0        5.688111   -2.359196   -2.294179
     49          1           0       -5.091711    0.139880    1.501011
     50          1           0       -6.042933    1.295775    0.546206
     51          1           0        3.166036   -0.266276    0.724684
     52          1           0       -0.447553    1.792932    0.556800
     53          1           0        1.362978   -4.637925    1.064861
     54          1           0        2.515045   -3.729492    1.911113
     55          1           0        0.990302   -4.132675    2.802146
     56          1           0        2.383620   -3.686194   -0.880082
     57          1           0       -1.263095   -4.942215    0.482828
     58          1           0       -2.635053   -5.246493    1.544611
     59          1           0       -4.655878   -0.845396   -1.412474
     60          1           0       -5.392111    0.630032   -1.754205
     61          1           0       -4.293218    4.881463    0.248540
     62          1           0       -5.517548    3.646203   -0.064221
     63          1           0       -4.435045    4.218033   -1.482030
     64          1           0       -1.748374    5.177311   -0.364224
     65          1           0        7.561062   -2.396002   -0.813478
     66          1           0        7.184591   -4.095370   -1.703820
     67          1           0        6.915909   -3.684355   -0.002830
     68          1           0        6.677193   -0.729607   -0.359742
     69          1           0        5.041764    1.425111    0.622132
     70          1           0        6.429446    0.753847    1.413785
     71          1           0        4.671333   -0.098865    1.826459
     72          1           0        3.381618    6.477967   -0.986985
     73          1           0        4.237747    4.613579   -1.113291
     74          1           0        0.095985    6.904787   -1.620166
     75          1           0        1.615102    7.157378   -0.908833
     76          1           0        0.120868    6.905563    0.136153
     77          1           0        3.942471    6.452954    1.456221
     78          1           0        5.564179    6.139730    0.609761
     79          1           0        4.609289    4.691091    1.358044
     80          1           0       -3.522298   -4.569865   -1.830446
     81          1           0       -7.923666   -1.958246   -1.786325
 ---------------------------------------------------------------------

 SCF Done:  E(RB3LYP) =  -1949.11407418     A.U. after   18 cycles

 Excitation energies and oscillator strengths:

 Excited State   1:      Singlet-A      1.8413 eV  673.36 nm  f=0.3757  <S**2>=0.000
     156 ->157         0.71052
     156 <-157        -0.14200
 This state for optimization and/or second-order correction.
 Total Energy, E(TD-HF/TD-DFT) =  -1949.04640875
 Copying the excited state density for this state as the 1-particle RhoCI density.

 The electronic state is 1-A.
 Alpha  occ. eigenvalues --  -19.20041 -19.19230 -19.14145 -19.11705 -19.11364
 Alpha  occ. eigenvalues --  -19.10565 -14.38725 -14.37414 -14.33910 -14.27214
 Alpha  occ. eigenvalues --  -10.33681 -10.32510 -10.29841 -10.25610 -10.24300
 Alpha  occ. eigenvalues --  -10.23782 -10.23525 -10.22157 -10.21880 -10.21740
 Alpha  occ. eigenvalues --  -10.21697 -10.21517 -10.21352 -10.21319 -10.21256
 Alpha  occ. eigenvalues --  -10.21121 -10.20967 -10.20443 -10.20297 -10.20285
 Alpha  occ. eigenvalues --  -10.20227 -10.20108 -10.20011 -10.19941 -10.19904
 Alpha  occ. eigenvalues --  -10.19717 -10.19515 -10.18974 -10.18851 -10.18746
 Alpha  occ. eigenvalues --  -10.18615 -10.18494 -10.17647  -1.14104  -1.11017
 Alpha  occ. eigenvalues --   -1.03286  -1.02784  -1.02319  -0.99390  -0.98654
 Alpha  occ. eigenvalues --   -0.95873  -0.95672  -0.90600  -0.83352  -0.82846
 Alpha  occ. eigenvalues --   -0.81805  -0.80420  -0.79410  -0.78926  -0.78869
 Alpha  occ. eigenvalues --   -0.77033  -0.76000  -0.75088  -0.74350  -0.72388
 Alpha  occ. eigenvalues --   -0.71145  -0.69991  -0.69872  -0.68525  -0.68312
 Alpha  occ. eigenvalues --   -0.67744  -0.66134  -0.65046  -0.62817  -0.62422
 Alpha  occ. eigenvalues --   -0.61830  -0.59500  -0.58655  -0.58525  -0.57750
 Alpha  occ. eigenvalues --   -0.56016  -0.55669  -0.54091  -0.53936  -0.52774
 Alpha  occ. eigenvalues --   -0.52556  -0.52098  -0.50748  -0.50613  -0.50144
 Alpha  occ. eigenvalues --   -0.49921  -0.49426  -0.49091  -0.48140  -0.47599
 Alpha  occ. eigenvalues --   -0.47091  -0.46795  -0.46655  -0.45878  -0.45713
 Alpha  occ. eigenvalues --   -0.45258  -0.44833  -0.44497  -0.44439  -0.44049
 Alpha  occ. eigenvalues --   -0.43551  -0.43218  -0.43147  -0.42742  -0.41850
 Alpha  occ. eigenvalues --   -0.41503  -0.41198  -0.41060  -0.40876  -0.40571
 Alpha  occ. eigenvalues --   -0.40502  -0.40292  -0.39695  -0.39542  -0.39297
 Alpha  occ. eigenvalues --   -0.39184  -0.39085  -0.38930  -0.38770  -0.37756
 Alpha  occ. eigenvalues --   -0.37720  -0.37362  -0.37162  -0.36817  -0.36639
 Alpha  occ. eigenvalues --   -0.36497  -0.35958  -0.35798  -0.35209  -0.34732
 Alpha  occ. eigenvalues --   -0.34122  -0.33816  -0.33224  -0.32253  -0.31916
 Alpha  occ. eigenvalues --   -0.31627  -0.31451  -0.30842  -0.30130  -0.29764
 Alpha  occ. eigenvalues --   -0.27388  -0.27058  -0.26716  -0.26313  -0.26218
 Alpha  occ. eigenvalues --   -0.25575  -0.24087  -0.23134  -0.22862  -0.21330
 Alpha  occ. eigenvalues --   -0.17429
 Alpha virt. eigenvalues --   -0.10406  -0.05765  -0.03499  -0.01968  -0.01563
 Alpha virt. eigenvalues --    0.00292   0.01944   0.02534   0.04309   0.04657
 Alpha virt. eigenvalues --    0.05006   0.05234   0.05337   0.05862   0.06020

 Mulliken charges:
               1
     1  O   -0.228858
     2  O   -0.091586
     3  O   -0.124562
     4  O   -0.238388
     5  O   -0.266777
     6  O   -0.167114
     7  N   -0.079047
     8  N   -0.209010
     9  N   -0.125177
    10  N   -0.374084
    11  C   -0.111792
    12  C    0.118804
    13  C   -0.173493
    14  C    0.092097
    15  C   -0.036504
    16  C    0.041652
    17  C   -0.097076
    18  C   -0.104791
    19  C    0.107800
    20  C    0.030218
    21  C    0.094320
    22  C    0.155458
    23  C   -0.058841
    24  C   -0.049623
    25  C   -0.134716
    26  C    0.137934
    27  C    0.134095
    28  C    0.039472
    29  C   -0.011985
    30  C    0.046328
    31  C   -0.149280
    32  C    0.021638
    33  C   -0.141342
    34  C    0.097478
    35  C   -0.075839
    36  C   -0.177774
    37  C    0.105412
    38  C    0.002464
    39  C    0.151430
    40  C    0.107892
    41  C    0.156508
    42  C    0.107636
    43  C   -0.139279
    44  H    0.159078
    45  H    0.051463
    46  H    0.022435
    47  H    0.007935
    48  H    0.044770
    49  H    0.053091
    50  H    0.045283
    51  H    0.023048
    52  H    0.154916
    53  H    0.022157
    54  H   -0.003571
    55  H    0.025549
    56  H    0.154490
    57  H    0.035804
    58  H    0.006450
    59  H    0.047128
    60  H    0.026608
    61  H    0.029855
    62  H    0.010718
    63  H    0.034515
    64  H   -0.024659
    65  H    0.024097
    66  H    0.039292
    67  H   -0.007282
    68  H   -0.025019
    69  H    0.094148
    70  H    0.016966
    71  H    0.056143
    72  H    0.018890
    73  H    0.039684
    74  H    0.018511
    75  H   -0.001590
    76  H    0.018543
    77  H    0.013321
    78  H    0.033225
    79  H    0.031904
    80  H    0.143248
    81  H    0.177157
 Sum of Mulliken charges =  -0.00000

 Dipole moment (field-independent basis, Debye):
    X=             -1.6386    Y=             -1.8391    Z=             -1.2029  Tot=              2.7412
 Quadrupole moment (field-independent basis, Debye-Ang):
   XX=           -245.8690   YY=           -244.8811   ZZ=           -252.0050
   XY=             22.4420   XZ=             18.4286   YZ=            -11.1365

 Normal termination of Gaussian 16 at Sat Jul  6 00:12:09 2019.
