 Gaussian 16, Revision A.03,
 Gaussian 16:  ES64L-G16RevA.03 25-Dec-2016

 --------------------------
 # td=(NStates=1) B3LYP/SVP
 --------------------------

 --
 TD
 --
 Symbolic Z-matrix:
 Charge =  0 Multiplicity = 1

                         Standard orientation:
 ---------------------------------------------------------------------
 Center     Atomic      Atomic             Coordinates (Angstroms)
 Number     Number       Type             X           Y           Z
 ---------------------------------------------------------------------
      1          8           0        4.684270   -4.734999   -1.729601
      2          8           0       -2.566596   -4.888349   -1.371067
      3          8           0       -7.157441   -1.673376   -1.808483
      4          8           0       -3.420410   -3.168762   -0.173164
      5          8           0       -7.531777   -0.957093    0.244590
      6          8           0        2.874448    2.695860    0.276366
      7          7           0        0.234304   -0.593158    0.515816
      8          7           0       -1.601525    1.701374    0.167371
      9          7           0        3.588097   -3.112302   -0.497290
     10          7           0        0.594056    3.003180   -0.024833
     11          6           0       -0.638757   -2.419291    1.352327
     12          6           0       -0.937691   -1.051092    0.945862
     13          6           0        0.823003   -2.637504    1.271595
     14          6           0        1.303847   -1.466935    0.697647
     15          6           0       -3.842260    1.319587    0.340357
     16          6           0       -2.448024    0.684575    0.502697
     17          6           0       -2.247362   -0.550932    0.939347
     18          6           0       -3.611479    2.618387   -0.069848
     19          6           0       -1.436315   -3.465893    1.868370
     20          6           0        5.639992   -2.517499   -1.344944
     21          6           0        3.716398   -1.816594   -0.181297
     22          6           0       -2.208444    2.911108   -0.113673
     23          6           0        5.095323   -1.405751   -0.410813
     24          6           0       -5.176524    0.620594    0.477909
     25          6           0        2.677845   -1.123759    0.431306
     26          6           0        1.584614   -3.643429    1.892336
     27          6           0        4.585738   -3.614967   -1.314307
     28          6           0       -1.903320   -4.645885    0.903551
     29          6           0       -5.402447   -0.435764   -0.693791
     30          6           0       -4.637390    3.663217   -0.276821
     31          6           0       -1.524170    4.079589   -0.333349
     32          6           0        7.078214   -3.031063   -1.210186
     33          6           0        5.771623   -0.392752    0.230728
     34          6           0       -0.173978    3.983494   -0.307974
     35          6           0        0.748719    5.311809   -0.544440
     36          6           0        2.028740    4.886165   -0.332953
     37          6           0       -2.684597   -4.233613   -0.265246
     38          6           0        5.444179    0.649241    1.180896
     39          6           0       -6.778479   -1.015888   -0.626339
     40          6           0        3.392991    5.658258   -0.382967
     41          6           0        1.963380    3.419316   -0.012472
     42          6           0        0.249525    6.596213   -0.829712
     43          6           0        3.966503    5.760533    1.060799
     44          1           0        0.648023    0.226400    0.213248
     45          1           0       -3.082366   -1.274273    1.035643
     46          1           0       -2.361509   -3.263631    2.116548
     47          1           0       -0.959220   -4.027746    2.949799
     48          1           0        5.612937   -1.937557   -2.336181
     49          1           0       -5.282123    0.169882    1.440961
     50          1           0       -6.072172    1.343642    0.312887
     51          1           0        3.155828   -0.004052    0.476738
     52          1           0       -0.736746    2.022004    0.414347
     53          1           0        1.572657   -4.720306    1.390340
     54          1           0        2.669432   -3.334217    2.090768
     55          1           0        1.261001   -4.149264    2.855141
     56          1           0        2.755546   -3.772963   -0.398045
     57          1           0       -1.177409   -5.337667    0.479007
     58          1           0       -2.481379   -5.192076    1.598726
     59          1           0       -4.591680   -1.325918   -0.792850
     60          1           0       -5.145736    0.027654   -1.582351
     61          1           0       -4.747988    4.510516    0.379253
     62          1           0       -5.801398    3.191477   -0.374485
     63          1           0       -4.369222    3.907560   -1.392345
     64          1           0       -1.944803    5.032968   -0.925289
     65          1           0        7.919116   -2.419317   -1.364284
     66          1           0        7.016552   -3.979654   -1.819901
     67          1           0        7.266884   -3.360845   -0.110648
     68          1           0        6.767687   -0.252358   -0.235424
     69          1           0        4.845715    1.443385    0.765012
     70          1           0        6.324190    0.881592    1.760206
     71          1           0        4.684727    0.425738    1.816200
     72          1           0        3.282616    6.590992   -1.048118
     73          1           0        3.867880    5.060726   -0.909427
     74          1           0       -0.503191    6.647043   -1.610969
     75          1           0        1.155380    7.429115   -1.173578
     76          1           0       -0.254653    7.172634   -0.074295
     77          1           0        3.481414    6.530973    1.628167
     78          1           0        4.796169    6.307089    1.028366
     79          1           0        4.188874    4.722486    1.548223
     80          1           0       -3.002595   -4.383208   -2.152454
     81          1           0       -8.039315   -2.249581   -1.703116
 ---------------------------------------------------------------------

 SCF Done:  E(RB3LYP) =  -1949.02026767     A.U. after   16 cycles

 Excitation energies and oscillator strengths:

 Excited State   1:      Singlet-A      1.9823 eV  625.47 nm  f=0.3885  <S**2>=0.000
     156 ->157         0.70448
 This state for optimization and/or second-order correction.
 Total Energy, E(TD-HF/TD-DFT) =  -1948.94742111
 Copying the excited state density for this state as the 1-particle RhoCI density.

 The electronic state is 1-A.
 Alpha  occ. eigenvalues --  -19.21956 -19.15827 -19.12782 -19.12428 -19.11598
 Alpha  occ. eigenvalues --  -19.11566 -14.37050 -14.37025 -14.35067 -14.29038
 Alpha  occ. eigenvalues --  -10.33794 -10.31024 -10.29115 -10.27452 -10.23955
 Alpha  occ. eigenvalues --  -10.23729 -10.23311 -10.23123 -10.22741 -10.22565
 Alpha  occ. eigenvalues --  -10.21192 -10.20996 -10.20978 -10.20926 -10.20838
 Alpha  occ. eigenvalues --  -10.20825 -10.20331 -10.20319 -10.20282 -10.20192
 Alpha  occ. eigenvalues --  -10.20160 -10.19865 -10.19822 -10.19593 -10.19210
 Alpha  occ. eigenvalues --  -10.18999 -10.18882 -10.18857 -10.18690 -10.18384
 Alpha  occ. eigenvalues --  -10.18379 -10.17314 -10.16750  -1.12428  -1.09059
 Alpha  occ. eigenvalues --   -1.04727  -1.03416  -0.99242  -0.98516  -0.98370
 Alpha  occ. eigenvalues --   -0.98271  -0.96590  -0.92535  -0.82749  -0.82404
 Alpha  occ. eigenvalues --   -0.81532  -0.81056  -0.79952  -0.79457  -0.78178
 Alpha  occ. eigenvalues --   -0.77216  -0.76956  -0.75879  -0.75158  -0.73256
 Alpha  occ. eigenvalues --   -0.70929  -0.70113  -0.69557  -0.69300  -0.67887
 Alpha  occ. eigenvalues --   -0.67243  -0.65403  -0.64910  -0.63556  -0.63518
 Alpha  occ. eigenvalues --   -0.61821  -0.60035  -0.57871  -0.57495  -0.56769
 Alpha  occ. eigenvalues --   -0.56310  -0.55949  -0.55368  -0.54572  -0.53460
 Alpha  occ. eigenvalues --   -0.52699  -0.51906  -0.51307  -0.50509  -0.50321
 Alpha  occ. eigenvalues --   -0.50129  -0.48985  -0.48425  -0.48050  -0.46840
 Alpha  occ. eigenvalues --   -0.46670  -0.46338  -0.46163  -0.45947  -0.45684
 Alpha  occ. eigenvalues --   -0.45132  -0.44683  -0.44426  -0.44155  -0.43932
 Alpha  occ. eigenvalues --   -0.43474  -0.43329  -0.42975  -0.42459  -0.42129
 Alpha  occ. eigenvalues --   -0.41894  -0.41579  -0.41372  -0.41148  -0.40557
 Alpha  occ. eigenvalues --   -0.40439  -0.40263  -0.40038  -0.39825  -0.39609
 Alpha  occ. eigenvalues --   -0.39562  -0.39364  -0.39047  -0.38373  -0.38131
 Alpha  occ. eigenvalues --   -0.38036  -0.37254  -0.37118  -0.36780  -0.36100
 Alpha  occ. eigenvalues --   -0.35885  -0.35499  -0.35157  -0.34941  -0.34681
 Alpha  occ. eigenvalues --   -0.34537  -0.34104  -0.33514  -0.32741  -0.32315
 Alpha  occ. eigenvalues --   -0.32113  -0.32041  -0.31285  -0.30198  -0.28305
 Alpha  occ. eigenvalues --   -0.27940  -0.27368  -0.26909  -0.25957  -0.25276
 Alpha  occ. eigenvalues --   -0.24895  -0.24517  -0.23962  -0.23326  -0.21596
 Alpha  occ. eigenvalues --   -0.17690
 Alpha virt. eigenvalues --   -0.09699  -0.05067  -0.03716  -0.02962   0.00224
 Alpha virt. eigenvalues --    0.01161   0.01816   0.02049   0.03145   0.03525
 Alpha virt. eigenvalues --    0.03777   0.04202   0.04562   0.05195   0.06074

 Mulliken charges:
               1
     1  O   -0.190606
     2  O   -0.135334
     3  O   -0.300676
     4  O   -0.324509
     5  O   -0.158786
     6  O   -0.170565
     7  N    0.008559
     8  N   -0.027152
     9  N   -0.113247
    10  N   -0.271142
    11  C   -0.102443
    12  C    0.117152
    13  C   -0.063482
    14  C    0.031550
    15  C   -0.094376
    16  C    0.139676
    17  C   -0.124497
    18  C   -0.092135
    19  C    0.066824
    20  C   -0.093991
    21  C    0.010974
    22  C    0.072969
    23  C   -0.013590
    24  C    0.109004
    25  C   -0.149909
    26  C   -0.016201
    27  C    0.128360
    28  C    0.080549
    29  C   -0.053166
    30  C    0.006743
    31  C   -0.167905
    32  C    0.044757
    33  C   -0.175470
    34  C    0.041547
    35  C   -0.062738
    36  C   -0.219519
    37  C    0.123877
    38  C    0.174809
    39  C    0.148866
    40  C    0.199276
    41  C    0.150521
    42  C    0.025476
    43  C    0.055029
    44  H    0.110174
    45  H    0.044911
    46  H   -0.050932
    47  H    0.030260
    48  H    0.054204
    49  H    0.018637
    50  H    0.024655
    51  H    0.030095
    52  H    0.090786
    53  H    0.008995
    54  H    0.052236
    55  H    0.009311
    56  H    0.156039
    57  H    0.012077
    58  H    0.025826
    59  H    0.087275
    60  H    0.001104
    61  H    0.044589
    62  H    0.025651
    63  H    0.033883
    64  H    0.028784
    65  H    0.010455
    66  H    0.045303
    67  H    0.010378
    68  H   -0.007752
    69  H    0.052066
    70  H    0.014296
    71  H   -0.028140
    72  H    0.000487
    73  H   -0.070981
    74  H    0.012517
    75  H    0.026680
    76  H    0.021590
    77  H   -0.008890
    78  H   -0.041891
    79  H    0.063214
    80  H    0.232089
    81  H    0.214938
 Sum of Mulliken charges =  -0.00000

 Dipole moment (field-independent basis, Debye):
    X=             -1.7870    Y=              0.8174    Z=             -0.8087  Tot=              2.1250
 Quadrupole moment (field-independent basis, Debye-Ang):
   XX=           -258.2722   YY=           -232.4892   ZZ=           -252.1758
   XY=             19.5960   XZ=             13.9377   YZ=             -8.8003

 Normal termination of Gaussian 16 at Tue Jul  2 06:24:11 2019.
