 Gaussian 16, Revision A.03,
 Gaussian 16:  ES64L-G16RevA.03 25-Dec-2016

 --------------------------
 # td=(NStates=1) B3LYP/SVP
 --------------------------

 --
 TD
 --
 Symbolic Z-matrix:
 Charge =  0 Multiplicity = 1

                         Standard orientation:
 ---------------------------------------------------------------------
 Center     Atomic      Atomic             Coordinates (Angstroms)
 Number     Number       Type             X           Y           Z
 ---------------------------------------------------------------------
      1          8           0        4.247239   -4.822620   -1.789271
      2          8           0       -2.874758   -4.778370   -1.284830
      3          8           0       -7.057715   -1.564285   -1.825526
      4          8           0       -3.717820   -3.056287   -0.143827
      5          8           0       -7.630089   -0.422435    0.091227
      6          8           0        3.028212    2.356134    0.253212
      7          7           0        0.234425   -0.589892    0.566326
      8          7           0       -1.488619    1.828539    0.315632
      9          7           0        3.289853   -3.055368   -0.518771
     10          7           0        0.768494    2.894467    0.058883
     11          6           0       -0.744113   -2.420460    1.317436
     12          6           0       -1.027694   -1.106012    0.906343
     13          6           0        0.666803   -2.670693    1.323973
     14          6           0        1.178569   -1.434298    0.712346
     15          6           0       -3.679102    1.545509    0.496973
     16          6           0       -2.429416    0.915779    0.609239
     17          6           0       -2.230685   -0.479184    0.868988
     18          6           0       -3.504809    2.852539    0.000203
     19          6           0       -1.635933   -3.515386    1.891840
     20          6           0        5.499620   -2.701269   -1.368813
     21          6           0        3.549990   -1.796351   -0.185799
     22          6           0       -2.058108    2.950688   -0.019846
     23          6           0        5.009576   -1.587412   -0.529528
     24          6           0       -5.071837    0.744575    0.407607
     25          6           0        2.536345   -1.029807    0.414172
     26          6           0        1.411405   -3.891869    1.975592
     27          6           0        4.338861   -3.740305   -1.275436
     28          6           0       -2.008277   -4.502009    0.882654
     29          6           0       -5.433104   -0.010845   -0.792020
     30          6           0       -4.443805    3.914557   -0.287196
     31          6           0       -1.284585    4.192518   -0.264895
     32          6           0        6.876037   -3.215157   -1.119949
     33          6           0        5.833057   -0.649247    0.097427
     34          6           0        0.113757    4.010043   -0.242214
     35          6           0        1.064057    5.162188   -0.442373
     36          6           0        2.305818    4.679753   -0.237032
     37          6           0       -3.033841   -4.009166   -0.133056
     38          6           0        5.447859    0.346587    1.115227
     39          6           0       -6.806722   -0.727313   -0.763730
     40          6           0        3.676679    5.367886   -0.427384
     41          6           0        2.176586    3.174029    0.151014
     42          6           0        0.621051    6.513959   -0.867533
     43          6           0        4.487156    5.451242    0.835938
     44          1           0        0.258270    0.283497    0.123024
     45          1           0       -3.091632   -1.204486    0.908291
     46          1           0       -2.693372   -2.894425    2.120177
     47          1           0       -1.000045   -3.968164    2.617304
     48          1           0        5.380942   -2.301625   -2.501088
     49          1           0       -4.949346   -0.106758    1.291913
     50          1           0       -5.952622    1.244536    0.684595
     51          1           0        2.788321   -0.018301    0.517344
     52          1           0       -0.417030    2.165393    0.658994
     53          1           0        1.564881   -4.569767    1.136325
     54          1           0        2.419371   -3.585010    2.230227
     55          1           0        0.829484   -4.104687    2.930140
     56          1           0        2.361841   -3.580866   -0.621443
     57          1           0       -1.246133   -4.882521    0.146982
     58          1           0       -2.512922   -5.382267    1.361989
     59          1           0       -4.805330   -0.897550   -0.929007
     60          1           0       -5.318259    0.603634   -1.762823
     61          1           0       -4.053909    4.822705    0.104781
     62          1           0       -5.568699    3.665970   -0.067784
     63          1           0       -4.366289    3.899254   -1.481607
     64          1           0       -1.729749    5.245807   -0.452136
     65          1           0        7.590877   -2.550606   -1.241846
     66          1           0        7.135221   -4.025426   -1.807503
     67          1           0        7.108482   -3.977858   -0.285059
     68          1           0        6.899830   -0.861685   -0.125206
     69          1           0        4.829887    1.139192    0.776172
     70          1           0        6.272373    0.709086    1.724779
     71          1           0        4.910799   -0.159193    1.920777
     72          1           0        3.200342    6.289278   -0.884449
     73          1           0        4.139582    4.755974   -1.193484
     74          1           0        0.293089    6.452943   -1.859725
     75          1           0        1.364341    7.238089   -0.981062
     76          1           0       -0.366799    7.032131   -0.394185
     77          1           0        3.973290    6.281130    1.697442
     78          1           0        5.477744    5.927072    0.521214
     79          1           0        4.865586    4.515003    1.296199
     80          1           0       -3.499098   -4.577640   -2.135988
     81          1           0       -8.090127   -1.873596   -1.707647
 ---------------------------------------------------------------------

 SCF Done:  E(RB3LYP) =  -1949.09863245     A.U. after   16 cycles

 Excitation energies and oscillator strengths:

 Excited State   1:      Singlet-A      2.0115 eV  616.37 nm  f=0.4454  <S**2>=0.000
     156 ->157         0.70733
     156 <-157        -0.11246
 This state for optimization and/or second-order correction.
 Total Energy, E(TD-HF/TD-DFT) =  -1949.02471085
 Copying the excited state density for this state as the 1-particle RhoCI density.

 The electronic state is 1-A.
 Alpha  occ. eigenvalues --  -19.19072 -19.18064 -19.14944 -19.13406 -19.12347
 Alpha  occ. eigenvalues --  -19.10781 -14.37781 -14.37528 -14.33693 -14.28333
 Alpha  occ. eigenvalues --  -10.33224 -10.31927 -10.30823 -10.26670 -10.25024
 Alpha  occ. eigenvalues --  -10.24065 -10.22571 -10.22198 -10.22054 -10.21869
 Alpha  occ. eigenvalues --  -10.21614 -10.21495 -10.21408 -10.21228 -10.21079
 Alpha  occ. eigenvalues --  -10.20927 -10.20720 -10.20000 -10.19959 -10.19947
 Alpha  occ. eigenvalues --  -10.19900 -10.19812 -10.19549 -10.19077 -10.19077
 Alpha  occ. eigenvalues --  -10.18954 -10.18936 -10.18915 -10.18481 -10.18268
 Alpha  occ. eigenvalues --  -10.18005 -10.17969 -10.17275  -1.10251  -1.07393
 Alpha  occ. eigenvalues --   -1.05347  -1.03207  -1.00634  -1.00584  -0.99159
 Alpha  occ. eigenvalues --   -0.98591  -0.96486  -0.90893  -0.83501  -0.82357
 Alpha  occ. eigenvalues --   -0.81021  -0.80222  -0.79113  -0.78173  -0.77826
 Alpha  occ. eigenvalues --   -0.77048  -0.76065  -0.74963  -0.73947  -0.71806
 Alpha  occ. eigenvalues --   -0.70888  -0.70489  -0.68764  -0.68425  -0.67899
 Alpha  occ. eigenvalues --   -0.65632  -0.65180  -0.64591  -0.61993  -0.60902
 Alpha  occ. eigenvalues --   -0.59691  -0.59002  -0.57861  -0.57432  -0.57014
 Alpha  occ. eigenvalues --   -0.55219  -0.54847  -0.54010  -0.53346  -0.52311
 Alpha  occ. eigenvalues --   -0.51827  -0.51678  -0.50904  -0.49890  -0.49200
 Alpha  occ. eigenvalues --   -0.48823  -0.48469  -0.48177  -0.47604  -0.47392
 Alpha  occ. eigenvalues --   -0.46876  -0.46760  -0.45964  -0.45679  -0.45386
 Alpha  occ. eigenvalues --   -0.45004  -0.44656  -0.44130  -0.44059  -0.43736
 Alpha  occ. eigenvalues --   -0.43082  -0.42765  -0.42642  -0.42215  -0.41759
 Alpha  occ. eigenvalues --   -0.41603  -0.41547  -0.41288  -0.41063  -0.40871
 Alpha  occ. eigenvalues --   -0.40672  -0.40494  -0.40205  -0.40093  -0.39640
 Alpha  occ. eigenvalues --   -0.39549  -0.39408  -0.39343  -0.38852  -0.38739
 Alpha  occ. eigenvalues --   -0.38534  -0.38396  -0.38096  -0.37447  -0.37278
 Alpha  occ. eigenvalues --   -0.36632  -0.36546  -0.35407  -0.34462  -0.33992
 Alpha  occ. eigenvalues --   -0.33775  -0.33475  -0.33281  -0.33106  -0.32694
 Alpha  occ. eigenvalues --   -0.31996  -0.31580  -0.30834  -0.29966  -0.29720
 Alpha  occ. eigenvalues --   -0.28104  -0.27333  -0.27170  -0.25559  -0.25315
 Alpha  occ. eigenvalues --   -0.24628  -0.23611  -0.23410  -0.22869  -0.21041
 Alpha  occ. eigenvalues --   -0.17062
 Alpha virt. eigenvalues --   -0.09157  -0.04920  -0.03583  -0.01503  -0.00766
 Alpha virt. eigenvalues --    0.00140   0.01736   0.02149   0.02682   0.03475
 Alpha virt. eigenvalues --    0.04086   0.04647   0.05237   0.05739   0.06222

 Mulliken charges:
               1
     1  O   -0.177706
     2  O   -0.298414
     3  O   -0.255670
     4  O   -0.159014
     5  O   -0.242705
     6  O   -0.165121
     7  N    0.048463
     8  N   -0.085555
     9  N   -0.173505
    10  N   -0.342283
    11  C   -0.150180
    12  C    0.064692
    13  C   -0.228180
    14  C    0.054171
    15  C   -0.070754
    16  C    0.064129
    17  C   -0.105860
    18  C   -0.134308
    19  C    0.155068
    20  C   -0.057340
    21  C    0.072338
    22  C    0.012181
    23  C   -0.063426
    24  C    0.032748
    25  C   -0.097577
    26  C    0.131641
    27  C    0.128676
    28  C   -0.006649
    29  C    0.016753
    30  C    0.071882
    31  C   -0.147246
    32  C    0.107817
    33  C   -0.116887
    34  C    0.062848
    35  C   -0.069265
    36  C   -0.247285
    37  C    0.123881
    38  C    0.101782
    39  C    0.150648
    40  C    0.108830
    41  C    0.177838
    42  C    0.110187
    43  C   -0.043926
    44  H    0.114327
    45  H    0.037338
    46  H    0.044571
    47  H   -0.019182
    48  H    0.070357
    49  H    0.015336
    50  H   -0.000702
    51  H   -0.031782
    52  H    0.215955
    53  H    0.020412
    54  H    0.017979
    55  H    0.054957
    56  H    0.161686
    57  H    0.052446
    58  H    0.046581
    59  H    0.027107
    60  H    0.042442
    61  H    0.028459
    62  H    0.039749
    63  H    0.035147
    64  H    0.002214
    65  H   -0.013522
    66  H    0.001755
    67  H    0.023214
    68  H   -0.005349
    69  H    0.065116
    70  H   -0.004665
    71  H    0.013349
    72  H    0.000713
    73  H    0.012559
    74  H   -0.002635
    75  H   -0.012239
    76  H    0.035427
    77  H    0.034726
    78  H    0.010367
    79  H    0.042738
    80  H    0.234572
    81  H    0.230754
 Sum of Mulliken charges =  -0.00000

 Dipole moment (field-independent basis, Debye):
    X=              0.0961    Y=             -2.0148    Z=             -1.2810  Tot=              2.3895
 Quadrupole moment (field-independent basis, Debye-Ang):
   XX=           -243.1149   YY=           -238.9783   ZZ=           -251.9916
   XY=             11.4657   XZ=             16.2638   YZ=            -10.8351

 Normal termination of Gaussian 16 at Sat Jun 29 01:09:51 2019.
