 Gaussian 16, Revision A.03,
 Gaussian 16:  ES64L-G16RevA.03 25-Dec-2016

 --------------------------
 # td=(NStates=1) B3LYP/SVP
 --------------------------

 --
 TD
 --
 Symbolic Z-matrix:
 Charge =  0 Multiplicity = 1

                         Standard orientation:
 ---------------------------------------------------------------------
 Center     Atomic      Atomic             Coordinates (Angstroms)
 Number     Number       Type             X           Y           Z
 ---------------------------------------------------------------------
      1          8           0       -4.467234   -4.773345    1.924647
      2          8           0        3.007535   -4.660870    1.345100
      3          8           0        7.041721   -1.455439    1.817090
      4          8           0        3.756864   -2.983357    0.091897
      5          8           0        7.630925   -0.659728   -0.167883
      6          8           0       -3.045097    2.366263   -0.199562
      7          7           0       -0.315649   -0.524392   -0.653137
      8          7           0        1.571403    1.787520   -0.317266
      9          7           0       -3.349148   -3.192974    0.649344
     10          7           0       -0.771688    2.980307   -0.197060
     11          6           0        0.617112   -2.482381   -1.361995
     12          6           0        0.987083   -1.105529   -1.019649
     13          6           0       -0.703355   -2.626919   -1.298302
     14          6           0       -1.310914   -1.422272   -0.736877
     15          6           0        3.790390    1.600760   -0.275273
     16          6           0        2.507971    0.862279   -0.442155
     17          6           0        2.275988   -0.449298   -0.884294
     18          6           0        3.548016    2.870285   -0.098036
     19          6           0        1.812243   -3.314186   -1.773426
     20          6           0       -5.531434   -2.611780    1.243485
     21          6           0       -3.546127   -1.918150    0.122396
     22          6           0        2.103876    2.967517   -0.086666
     23          6           0       -4.995281   -1.683144    0.244161
     24          6           0        5.131383    0.764671   -0.376612
     25          6           0       -2.641270   -1.132301   -0.411758
     26          6           0       -1.288949   -3.989691   -1.725707
     27          6           0       -4.449901   -3.615083    1.442069
     28          6           0        2.152388   -4.527192   -0.868001
     29          6           0        5.467406   -0.078892    0.844599
     30          6           0        4.563647    3.937513    0.333000
     31          6           0        1.326038    4.183337    0.204846
     32          6           0       -7.011469   -3.250775    1.147475
     33          6           0       -5.687329   -0.698440   -0.359890
     34          6           0       -0.166912    4.131955    0.010273
     35          6           0       -1.128114    5.238785    0.462583
     36          6           0       -2.334279    4.635055    0.299816
     37          6           0        3.030303   -3.966484    0.221399
     38          6           0       -5.430926    0.350737   -1.420693
     39          6           0        6.787310   -0.722216    0.724790
     40          6           0       -3.742439    5.211547    0.610640
     41          6           0       -2.159299    3.164443   -0.074671
     42          6           0       -0.788274    6.601854    0.958466
     43          6           0       -4.614608    5.337330   -0.657395
     44          1           0       -0.782973    0.424333   -0.327877
     45          1           0        3.046747   -1.168053   -1.168472
     46          1           0        2.605628   -2.628486   -2.064872
     47          1           0        1.465376   -3.863588   -2.780059
     48          1           0       -5.424977   -2.114710    2.303303
     49          1           0        4.959992    0.154127   -1.107489
     50          1           0        6.035268    1.499854   -0.566395
     51          1           0       -2.767673   -0.102859   -0.535961
     52          1           0        0.559668    1.850974   -0.542956
     53          1           0       -1.133598   -4.563312   -0.828650
     54          1           0       -2.508186   -3.861420   -1.916822
     55          1           0       -0.909105   -4.514380   -2.608185
     56          1           0       -2.447051   -3.747874    0.768461
     57          1           0        1.399505   -4.943426   -0.358472
     58          1           0        2.838041   -5.380516   -1.384568
     59          1           0        4.823227   -0.870508    1.101970
     60          1           0        5.421108    0.559938    1.764486
     61          1           0        4.620651    4.795082   -0.187674
     62          1           0        5.458153    3.449207    0.038943
     63          1           0        4.394163    4.063466    1.413342
     64          1           0        1.943225    5.148661    0.166060
     65          1           0       -7.644566   -2.403796    1.586691
     66          1           0       -6.852593   -4.257960    1.670399
     67          1           0       -7.202378   -3.452748    0.089471
     68          1           0       -6.814368   -0.715491   -0.118232
     69          1           0       -4.722997    1.153980   -1.156835
     70          1           0       -6.445148    0.627231   -1.950700
     71          1           0       -4.732243   -0.160943   -2.183180
     72          1           0       -3.751376    6.225912    0.978366
     73          1           0       -4.282305    4.494796    1.427907
     74          1           0       -0.136058    6.413013    1.781804
     75          1           0       -1.537492    7.372055    1.014681
     76          1           0       -0.032762    7.078610    0.168046
     77          1           0       -3.907161    5.832160   -1.441508
     78          1           0       -5.481810    5.906608   -0.434003
     79          1           0       -4.451091    4.389201   -1.120301
     80          1           0        3.781479   -4.186347    1.901062
     81          1           0        7.851904   -2.104216    1.753151
 ---------------------------------------------------------------------

 SCF Done:  E(RB3LYP) =  -1949.10705878     A.U. after   16 cycles

 Excitation energies and oscillator strengths:

 Excited State   1:      Singlet-A      1.9374 eV  639.94 nm  f=0.4079  <S**2>=0.000
     156 ->157         0.71045
     156 <-157        -0.12230
 This state for optimization and/or second-order correction.
 Total Energy, E(TD-HF/TD-DFT) =  -1949.03585953
 Copying the excited state density for this state as the 1-particle RhoCI density.

 The electronic state is 1-A.
 Alpha  occ. eigenvalues --  -19.20928 -19.17660 -19.13979 -19.11667 -19.11525
 Alpha  occ. eigenvalues --  -19.11371 -14.38436 -14.37514 -14.35954 -14.29266
 Alpha  occ. eigenvalues --  -10.33331 -10.31465 -10.29649 -10.27134 -10.24351
 Alpha  occ. eigenvalues --  -10.23853 -10.23741 -10.23698 -10.23309 -10.22885
 Alpha  occ. eigenvalues --  -10.22721 -10.22114 -10.21679 -10.21654 -10.21069
 Alpha  occ. eigenvalues --  -10.20707 -10.20554 -10.20205 -10.19892 -10.19869
 Alpha  occ. eigenvalues --  -10.19863 -10.19830 -10.19820 -10.19745 -10.19657
 Alpha  occ. eigenvalues --  -10.19617 -10.19468 -10.19003 -10.18983 -10.18670
 Alpha  occ. eigenvalues --  -10.18272 -10.18109 -10.17087  -1.11719  -1.08253
 Alpha  occ. eigenvalues --   -1.03304  -1.02102  -1.01217  -1.00531  -0.98369
 Alpha  occ. eigenvalues --   -0.97157  -0.94744  -0.92117  -0.83179  -0.82312
 Alpha  occ. eigenvalues --   -0.81914  -0.80746  -0.79396  -0.78972  -0.78669
 Alpha  occ. eigenvalues --   -0.78001  -0.75619  -0.74860  -0.74133  -0.71539
 Alpha  occ. eigenvalues --   -0.71476  -0.69822  -0.69043  -0.68232  -0.68179
 Alpha  occ. eigenvalues --   -0.67442  -0.65712  -0.64640  -0.62102  -0.60366
 Alpha  occ. eigenvalues --   -0.60287  -0.59649  -0.58933  -0.57726  -0.57075
 Alpha  occ. eigenvalues --   -0.56151  -0.55029  -0.54705  -0.53445  -0.52981
 Alpha  occ. eigenvalues --   -0.52229  -0.51835  -0.51614  -0.50682  -0.49874
 Alpha  occ. eigenvalues --   -0.49673  -0.49452  -0.49021  -0.47977  -0.47228
 Alpha  occ. eigenvalues --   -0.46856  -0.46777  -0.46721  -0.46167  -0.45794
 Alpha  occ. eigenvalues --   -0.45358  -0.45057  -0.44688  -0.44470  -0.43978
 Alpha  occ. eigenvalues --   -0.43186  -0.42871  -0.42696  -0.42396  -0.42235
 Alpha  occ. eigenvalues --   -0.42122  -0.42001  -0.41555  -0.41253  -0.41108
 Alpha  occ. eigenvalues --   -0.40580  -0.40075  -0.39870  -0.39739  -0.39575
 Alpha  occ. eigenvalues --   -0.39312  -0.39236  -0.38972  -0.38719  -0.38140
 Alpha  occ. eigenvalues --   -0.37984  -0.37618  -0.37358  -0.36571  -0.36482
 Alpha  occ. eigenvalues --   -0.36169  -0.35759  -0.35638  -0.34966  -0.34847
 Alpha  occ. eigenvalues --   -0.34676  -0.34075  -0.33776  -0.33271  -0.33217
 Alpha  occ. eigenvalues --   -0.32647  -0.31314  -0.30213  -0.30052  -0.29544
 Alpha  occ. eigenvalues --   -0.28767  -0.27391  -0.26807  -0.26705  -0.26081
 Alpha  occ. eigenvalues --   -0.25652  -0.24859  -0.24431  -0.23345  -0.21711
 Alpha  occ. eigenvalues --   -0.17224
 Alpha virt. eigenvalues --   -0.09657  -0.05754  -0.03494  -0.01726  -0.01109
 Alpha virt. eigenvalues --    0.00246   0.01494   0.02071   0.02965   0.03494
 Alpha virt. eigenvalues --    0.03902   0.04548   0.05076   0.05506   0.05859

 Mulliken charges:
               1
     1  O   -0.252914
     2  O   -0.188824
     3  O   -0.234309
     4  O   -0.261228
     5  O   -0.246414
     6  O   -0.188928
     7  N   -0.160573
     8  N    0.026701
     9  N   -0.167952
    10  N   -0.321390
    11  C   -0.048581
    12  C    0.006893
    13  C   -0.170961
    14  C    0.021559
    15  C   -0.094581
    16  C    0.069479
    17  C   -0.015987
    18  C   -0.190001
    19  C    0.061867
    20  C   -0.075885
    21  C    0.200021
    22  C   -0.039195
    23  C    0.011464
    24  C    0.192170
    25  C   -0.129798
    26  C    0.019478
    27  C    0.111964
    28  C    0.094927
    29  C    0.019106
    30  C    0.205536
    31  C   -0.088576
    32  C    0.042314
    33  C   -0.169339
    34  C    0.057777
    35  C   -0.111357
    36  C   -0.210232
    37  C    0.095041
    38  C    0.019069
    39  C    0.134026
    40  C    0.039421
    41  C    0.170334
    42  C    0.125662
    43  C    0.035633
    44  H    0.192659
    45  H    0.012701
    46  H    0.024492
    47  H    0.016010
    48  H    0.059275
    49  H   -0.043285
    50  H    0.038140
    51  H   -0.034482
    52  H    0.140640
    53  H    0.020508
    54  H    0.048522
    55  H    0.033112
    56  H    0.151228
    57  H   -0.010871
    58  H    0.076749
    59  H    0.018104
    60  H    0.035684
    61  H   -0.017769
    62  H   -0.018526
    63  H    0.040717
    64  H    0.005828
    65  H    0.050677
    66  H    0.060807
    67  H    0.025221
    68  H    0.002530
    69  H    0.081268
    70  H    0.041195
    71  H    0.022618
    72  H   -0.020745
    73  H    0.029719
    74  H    0.021316
    75  H    0.022716
    76  H    0.018155
    77  H   -0.008733
    78  H    0.023931
    79  H    0.004038
    80  H    0.225289
    81  H    0.217145
 Sum of Mulliken charges =  -0.00000

 Dipole moment (field-independent basis, Debye):
    X=              2.0325    Y=             -0.6267    Z=              0.6040  Tot=              2.2111
 Quadrupole moment (field-independent basis, Debye-Ang):
   XX=           -257.8689   YY=           -238.9245   ZZ=           -255.6595
   XY=            -19.6553   XZ=             17.5384   YZ=             10.9441

 Normal termination of Gaussian 16 at Thu Jul  4 19:03:04 2019.
