 Gaussian 16, Revision A.03,
 Gaussian 16:  ES64L-G16RevA.03 25-Dec-2016

 --------------------------
 # td=(NStates=1) B3LYP/SVP
 --------------------------

 --
 TD
 --
 Symbolic Z-matrix:
 Charge =  0 Multiplicity = 1

                         Standard orientation:
 ---------------------------------------------------------------------
 Center     Atomic      Atomic             Coordinates (Angstroms)
 Number     Number       Type             X           Y           Z
 ---------------------------------------------------------------------
      1          8           0       -4.548051   -4.702783    1.807656
      2          8           0        2.802993   -4.907071    1.290955
      3          8           0        6.811035   -1.666963    2.027658
      4          8           0        3.744505   -3.249305    0.014708
      5          8           0        7.671129   -0.697721    0.179567
      6          8           0       -2.899675    2.482851   -0.168975
      7          7           0       -0.283456   -0.483885   -0.673339
      8          7           0        1.576487    1.868983   -0.498279
      9          7           0       -3.563590   -3.129115    0.504577
     10          7           0       -0.548655    2.931992   -0.191332
     11          6           0        0.599330   -2.513519   -1.457135
     12          6           0        0.885409   -1.156304   -0.995390
     13          6           0       -0.820906   -2.575015   -1.345814
     14          6           0       -1.269506   -1.343929   -0.687108
     15          6           0        3.852631    1.408017   -0.479758
     16          6           0        2.511302    0.798462   -0.705338
     17          6           0        2.172247   -0.600968   -1.045565
     18          6           0        3.633266    2.726455   -0.230864
     19          6           0        1.604760   -3.520034   -1.947926
     20          6           0       -5.683893   -2.441400    1.417574
     21          6           0       -3.651025   -1.825538    0.067491
     22          6           0        2.148997    2.924870   -0.057501
     23          6           0       -5.088602   -1.425745    0.414405
     24          6           0        5.169917    0.614922   -0.387933
     25          6           0       -2.643763   -0.893605   -0.378357
     26          6           0       -1.555214   -3.750469   -1.774699
     27          6           0       -4.603375   -3.558528    1.305834
     28          6           0        1.954143   -4.566715   -0.838639
     29          6           0        5.350189   -0.306678    0.878172
     30          6           0        4.621985    3.722388    0.237149
     31          6           0        1.522011    4.108526    0.237391
     32          6           0       -7.057804   -2.991730    1.202747
     33          6           0       -5.852509   -0.449035   -0.141672
     34          6           0        0.122239    4.083500    0.124830
     35          6           0       -0.785092    5.181137    0.433311
     36          6           0       -2.072081    4.700020    0.323464
     37          6           0        2.907513   -4.113826    0.212688
     38          6           0       -5.430176    0.474294   -1.214465
     39          6           0        6.704913   -0.913327    0.939910
     40          6           0       -3.410495    5.387495    0.641297
     41          6           0       -1.978294    3.284736   -0.053189
     42          6           0       -0.341627    6.598627    0.898116
     43          6           0       -4.408276    5.587720   -0.703536
     44          1           0       -0.514055    0.406795   -0.204272
     45          1           0        2.783106   -1.123781   -1.381525
     46          1           0        2.622358   -2.956217   -2.269978
     47          1           0        1.106965   -4.025173   -2.745097
     48          1           0       -5.538335   -2.112641    2.495653
     49          1           0        5.183176   -0.205934   -1.081017
     50          1           0        6.114345    1.251083   -0.484735
     51          1           0       -2.971413    0.019293   -0.562611
     52          1           0        0.566545    1.932186   -0.723871
     53          1           0       -1.576271   -4.524897   -1.100502
     54          1           0       -2.501240   -3.538263   -2.181395
     55          1           0       -0.975531   -4.034956   -2.770717
     56          1           0       -2.522466   -3.443493    0.574676
     57          1           0        1.027613   -4.961146   -0.373656
     58          1           0        2.469994   -5.563839   -1.268665
     59          1           0        4.576277   -0.900838    1.040068
     60          1           0        5.305668    0.527929    1.660096
     61          1           0        4.674148    4.696623   -0.371652
     62          1           0        5.693430    3.315053    0.134543
     63          1           0        4.632563    4.046433    1.306515
     64          1           0        2.035288    5.048327    0.489262
     65          1           0       -7.858844   -2.317750    1.346483
     66          1           0       -7.298126   -3.891884    1.930111
     67          1           0       -7.225789   -3.583787    0.125374
     68          1           0       -6.876640   -0.293082    0.145953
     69          1           0       -4.815604    1.301235   -0.846071
     70          1           0       -6.343272    0.814838   -1.702411
     71          1           0       -4.831956   -0.033228   -1.956366
     72          1           0       -3.212490    6.305751    1.210525
     73          1           0       -4.085075    4.793801    1.416540
     74          1           0        0.252047    6.686242    1.795262
     75          1           0       -1.283729    7.272790    0.598050
     76          1           0        0.592874    6.686264    0.099689
     77          1           0       -4.042482    6.417301   -1.447765
     78          1           0       -5.432331    5.753043   -0.146770
     79          1           0       -4.558985    4.504335   -1.174720
     80          1           0        3.524198   -4.627059    1.802333
     81          1           0        7.733746   -1.958087    2.081802
 ---------------------------------------------------------------------

 SCF Done:  E(RB3LYP) =  -1949.10051817     A.U. after   16 cycles

 Excitation energies and oscillator strengths:

 Excited State   1:      Singlet-A      1.8885 eV  656.52 nm  f=0.3882  <S**2>=0.000
     156 ->157         0.70818
     156 <-157        -0.12154
 This state for optimization and/or second-order correction.
 Total Energy, E(TD-HF/TD-DFT) =  -1949.03111656
 Copying the excited state density for this state as the 1-particle RhoCI density.

 The electronic state is 1-A.
 Alpha  occ. eigenvalues --  -19.20475 -19.18846 -19.14772 -19.12324 -19.11312
 Alpha  occ. eigenvalues --  -19.10842 -14.38662 -14.38360 -14.35178 -14.28492
 Alpha  occ. eigenvalues --  -10.33894 -10.32235 -10.30087 -10.26662 -10.25507
 Alpha  occ. eigenvalues --  -10.24163 -10.23714 -10.23357 -10.22884 -10.22686
 Alpha  occ. eigenvalues --  -10.22594 -10.22288 -10.22033 -10.21792 -10.20847
 Alpha  occ. eigenvalues --  -10.20808 -10.20660 -10.20549 -10.20546 -10.20377
 Alpha  occ. eigenvalues --  -10.20354 -10.20098 -10.20091 -10.20076 -10.19836
 Alpha  occ. eigenvalues --  -10.19701 -10.19639 -10.19405 -10.19358 -10.19209
 Alpha  occ. eigenvalues --  -10.18859 -10.18215 -10.17181  -1.12704  -1.10303
 Alpha  occ. eigenvalues --   -1.03072  -1.02597  -1.01032  -1.00192  -0.99094
 Alpha  occ. eigenvalues --   -0.98360  -0.95037  -0.90215  -0.83298  -0.81704
 Alpha  occ. eigenvalues --   -0.81476  -0.80608  -0.78784  -0.78397  -0.77986
 Alpha  occ. eigenvalues --   -0.77363  -0.76653  -0.74838  -0.73173  -0.72257
 Alpha  occ. eigenvalues --   -0.70629  -0.69953  -0.69409  -0.68180  -0.67605
 Alpha  occ. eigenvalues --   -0.66997  -0.65357  -0.64330  -0.61988  -0.61608
 Alpha  occ. eigenvalues --   -0.61006  -0.60415  -0.59256  -0.58585  -0.57503
 Alpha  occ. eigenvalues --   -0.56175  -0.55603  -0.54909  -0.53817  -0.53040
 Alpha  occ. eigenvalues --   -0.51959  -0.51546  -0.51275  -0.50679  -0.50155
 Alpha  occ. eigenvalues --   -0.49536  -0.49139  -0.48752  -0.48157  -0.48053
 Alpha  occ. eigenvalues --   -0.47568  -0.47281  -0.46751  -0.45963  -0.45436
 Alpha  occ. eigenvalues --   -0.45102  -0.44482  -0.44050  -0.43987  -0.43829
 Alpha  occ. eigenvalues --   -0.43558  -0.43359  -0.43068  -0.42644  -0.42469
 Alpha  occ. eigenvalues --   -0.42126  -0.41916  -0.41598  -0.41337  -0.40961
 Alpha  occ. eigenvalues --   -0.40600  -0.40503  -0.40146  -0.40092  -0.39687
 Alpha  occ. eigenvalues --   -0.39397  -0.39285  -0.38853  -0.38639  -0.38085
 Alpha  occ. eigenvalues --   -0.37442  -0.37361  -0.36993  -0.36575  -0.36405
 Alpha  occ. eigenvalues --   -0.35971  -0.35373  -0.35123  -0.34846  -0.34703
 Alpha  occ. eigenvalues --   -0.34543  -0.34362  -0.34235  -0.33770  -0.33096
 Alpha  occ. eigenvalues --   -0.32677  -0.32412  -0.31900  -0.30362  -0.29763
 Alpha  occ. eigenvalues --   -0.27989  -0.27697  -0.26763  -0.25957  -0.25522
 Alpha  occ. eigenvalues --   -0.25204  -0.24641  -0.23809  -0.22923  -0.21546
 Alpha  occ. eigenvalues --   -0.17340
 Alpha virt. eigenvalues --   -0.09922  -0.06186  -0.03930  -0.02096  -0.01346
 Alpha virt. eigenvalues --   -0.00529   0.02032   0.02633   0.03480   0.03940
 Alpha virt. eigenvalues --    0.04351   0.04925   0.05275   0.05912   0.06042

 Mulliken charges:
               1
     1  O   -0.239450
     2  O   -0.127649
     3  O   -0.155362
     4  O   -0.236297
     5  O   -0.268184
     6  O   -0.212873
     7  N   -0.013627
     8  N   -0.036795
     9  N   -0.111862
    10  N   -0.404550
    11  C   -0.106594
    12  C    0.054731
    13  C   -0.207524
    14  C    0.026951
    15  C   -0.040404
    16  C    0.055295
    17  C    0.198053
    18  C   -0.119387
    19  C    0.144173
    20  C   -0.016883
    21  C    0.021854
    22  C    0.072284
    23  C   -0.037188
    24  C    0.067554
    25  C    0.030770
    26  C    0.119122
    27  C    0.106350
    28  C   -0.037159
    29  C    0.032655
    30  C    0.025647
    31  C   -0.135563
    32  C   -0.001274
    33  C   -0.141786
    34  C    0.110396
    35  C   -0.099801
    36  C   -0.133747
    37  C    0.128881
    38  C    0.066791
    39  C    0.149578
    40  C    0.008444
    41  C    0.188774
    42  C    0.029200
    43  C   -0.091655
    44  H    0.160019
    45  H   -0.255369
    46  H    0.061392
    47  H   -0.011017
    48  H    0.057256
    49  H    0.005111
    50  H    0.039647
    51  H   -0.072765
    52  H    0.143539
    53  H    0.019467
    54  H    0.006233
    55  H    0.020860
    56  H    0.170405
    57  H    0.031596
    58  H    0.068666
    59  H   -0.006580
    60  H    0.044332
    61  H    0.024436
    62  H    0.007935
    63  H    0.028400
    64  H   -0.023963
    65  H    0.016076
    66  H    0.043286
    67  H    0.035535
    68  H   -0.014118
    69  H    0.082738
    70  H    0.000690
    71  H    0.014922
    72  H   -0.002569
    73  H    0.030197
    74  H    0.038293
    75  H    0.067057
    76  H    0.032043
    77  H    0.052924
    78  H    0.029493
    79  H    0.061108
    80  H    0.154140
    81  H    0.176700
 Sum of Mulliken charges =  -0.00000

 Dipole moment (field-independent basis, Debye):
    X=              1.0009    Y=             -0.4187    Z=              1.2168  Tot=              1.6303
 Quadrupole moment (field-independent basis, Debye-Ang):
   XX=           -255.9491   YY=           -241.6587   ZZ=           -252.6858
   XY=            -18.2889   XZ=             18.0036   YZ=             12.8924

 Normal termination of Gaussian 16 at Tue Jul  2 02:50:33 2019.
