 Gaussian 16, Revision A.03,
 Gaussian 16:  ES64L-G16RevA.03 25-Dec-2016

 --------------------------
 # td=(NStates=1) B3LYP/SVP
 --------------------------

 --
 TD
 --
 Symbolic Z-matrix:
 Charge =  0 Multiplicity = 1

                         Standard orientation:
 ---------------------------------------------------------------------
 Center     Atomic      Atomic             Coordinates (Angstroms)
 Number     Number       Type             X           Y           Z
 ---------------------------------------------------------------------
      1          8           0       -4.322185   -4.664717    1.895593
      2          8           0        2.859212   -4.795841    1.423227
      3          8           0        7.115908   -1.536809    1.777560
      4          8           0        3.711674   -3.169067    0.016933
      5          8           0        7.684829   -0.615631   -0.094865
      6          8           0       -2.983223    2.476302   -0.305220
      7          7           0       -0.301815   -0.603480   -0.684680
      8          7           0        1.511968    1.810812   -0.609601
      9          7           0       -3.350773   -3.135826    0.565138
     10          7           0       -0.777077    2.892944   -0.172970
     11          6           0        0.706290   -2.436241   -1.310091
     12          6           0        0.920202   -1.129312   -1.028459
     13          6           0       -0.657740   -2.709167   -1.287102
     14          6           0       -1.330355   -1.506240   -0.765320
     15          6           0        3.724627    1.379647   -0.378458
     16          6           0        2.520438    0.817945   -0.701637
     17          6           0        2.200671   -0.461799   -1.040563
     18          6           0        3.546630    2.751877    0.009780
     19          6           0        1.684778   -3.578030   -1.698879
     20          6           0       -5.523671   -2.689036    1.290952
     21          6           0       -3.694881   -1.904721   -0.029437
     22          6           0        2.108002    2.998610   -0.112193
     23          6           0       -5.044378   -1.568819    0.278052
     24          6           0        5.190987    0.850785   -0.404089
     25          6           0       -2.652391   -1.115877   -0.599919
     26          6           0       -1.468188   -3.818334   -1.793574
     27          6           0       -4.373325   -3.686744    1.290088
     28          6           0        1.899060   -4.480430   -0.655109
     29          6           0        5.479929   -0.069167    0.853594
     30          6           0        4.535990    3.835773    0.404646
     31          6           0        1.337200    4.059683    0.136392
     32          6           0       -6.817299   -3.375839    1.063300
     33          6           0       -5.904845   -0.540197   -0.019079
     34          6           0       -0.038596    4.032219    0.140039
     35          6           0       -0.998854    5.195320    0.455644
     36          6           0       -2.230945    4.757310    0.298421
     37          6           0        2.944419   -4.014388    0.289106
     38          6           0       -5.610854    0.514980   -1.139992
     39          6           0        6.843659   -0.713190    0.725524
     40          6           0       -3.580922    5.304089    0.603073
     41          6           0       -2.066635    3.280482   -0.053636
     42          6           0       -0.526629    6.583841    0.911281
     43          6           0       -4.405762    5.637157   -0.596368
     44          1           0       -0.280309    0.299619   -0.175806
     45          1           0        2.913240   -1.246956   -1.354656
     46          1           0        2.567438   -3.134645   -2.180799
     47          1           0        1.133658   -4.009561   -2.464295
     48          1           0       -5.405596   -2.291995    2.359315
     49          1           0        5.062827    0.173161   -1.302075
     50          1           0        5.854382    1.511074   -0.602866
     51          1           0       -2.888898   -0.063381   -0.739134
     52          1           0        0.369820    1.810015   -0.724696
     53          1           0       -1.311423   -4.871885   -1.145115
     54          1           0       -2.463241   -3.244603   -1.924618
     55          1           0       -1.138738   -4.161049   -2.883906
     56          1           0       -2.395093   -3.442641    0.771177
     57          1           0        0.947907   -4.662410   -0.036944
     58          1           0        2.416348   -5.366891   -0.964134
     59          1           0        4.705581   -0.799452    1.129850
     60          1           0        5.616644    0.613447    1.708162
     61          1           0        4.483665    4.560029   -0.301750
     62          1           0        5.639934    3.651024    0.378160
     63          1           0        4.256886    4.106748    1.565751
     64          1           0        1.803553    4.981960    0.659576
     65          1           0       -7.798901   -2.760024    1.123247
     66          1           0       -6.885309   -4.304657    1.684296
     67          1           0       -6.892087   -3.634262   -0.028897
     68          1           0       -6.864449   -0.381405    0.373390
     69          1           0       -4.857988    1.292353   -0.601536
     70          1           0       -6.439396    1.027769   -1.551605
     71          1           0       -4.935453    0.190058   -1.851491
     72          1           0       -3.760808    6.096649    1.395207
     73          1           0       -4.234908    4.411940    1.059935
     74          1           0       -0.031565    6.647852    1.998075
     75          1           0       -1.541380    7.138334    0.944973
     76          1           0        0.275107    7.047246    0.321717
     77          1           0       -3.893233    6.470523   -1.099496
     78          1           0       -5.272451    6.259416   -0.278821
     79          1           0       -4.476007    4.781759   -1.107297
     80          1           0        3.409185   -4.296428    2.263627
     81          1           0        7.905535   -1.916897    1.376530
 ---------------------------------------------------------------------

 SCF Done:  E(RB3LYP) =  -1949.11191489     A.U. after   16 cycles

 Excitation energies and oscillator strengths:

 Excited State   1:      Singlet-A      1.8298 eV  677.60 nm  f=0.4012  <S**2>=0.000
     156 ->157         0.71070
     156 <-157        -0.12353
 This state for optimization and/or second-order correction.
 Total Energy, E(TD-HF/TD-DFT) =  -1949.04467267
 Copying the excited state density for this state as the 1-particle RhoCI density.

 The electronic state is 1-A.
 Alpha  occ. eigenvalues --  -19.19682 -19.16849 -19.14799 -19.13064 -19.11203
 Alpha  occ. eigenvalues --  -19.09318 -14.37473 -14.36852 -14.35075 -14.29436
 Alpha  occ. eigenvalues --  -10.32694 -10.31657 -10.28339 -10.26002 -10.25610
 Alpha  occ. eigenvalues --  -10.23736 -10.23450 -10.23035 -10.23028 -10.22629
 Alpha  occ. eigenvalues --  -10.21712 -10.21680 -10.21455 -10.21114 -10.20951
 Alpha  occ. eigenvalues --  -10.20859 -10.20833 -10.20627 -10.20574 -10.20562
 Alpha  occ. eigenvalues --  -10.20504 -10.20308 -10.20171 -10.19401 -10.19397
 Alpha  occ. eigenvalues --  -10.19374 -10.19361 -10.19270 -10.19191 -10.18910
 Alpha  occ. eigenvalues --  -10.18570 -10.17699 -10.16536  -1.11302  -1.10195
 Alpha  occ. eigenvalues --   -1.07118  -1.02034  -1.00737  -1.00037  -0.98786
 Alpha  occ. eigenvalues --   -0.95978  -0.95479  -0.90873  -0.84173  -0.82041
 Alpha  occ. eigenvalues --   -0.81418  -0.81145  -0.80226  -0.79387  -0.78829
 Alpha  occ. eigenvalues --   -0.77078  -0.76633  -0.75555  -0.74698  -0.72840
 Alpha  occ. eigenvalues --   -0.71456  -0.70041  -0.69061  -0.68428  -0.67940
 Alpha  occ. eigenvalues --   -0.67401  -0.65544  -0.64587  -0.62689  -0.60895
 Alpha  occ. eigenvalues --   -0.59213  -0.58515  -0.57826  -0.57513  -0.56585
 Alpha  occ. eigenvalues --   -0.56141  -0.55225  -0.54731  -0.54266  -0.52955
 Alpha  occ. eigenvalues --   -0.52433  -0.51699  -0.51368  -0.50915  -0.50121
 Alpha  occ. eigenvalues --   -0.49705  -0.49173  -0.48800  -0.48511  -0.48307
 Alpha  occ. eigenvalues --   -0.47612  -0.47239  -0.46638  -0.46171  -0.45814
 Alpha  occ. eigenvalues --   -0.45587  -0.44986  -0.44774  -0.44426  -0.43975
 Alpha  occ. eigenvalues --   -0.43607  -0.43469  -0.43165  -0.42799  -0.42490
 Alpha  occ. eigenvalues --   -0.42164  -0.41757  -0.41517  -0.40950  -0.40874
 Alpha  occ. eigenvalues --   -0.40665  -0.40471  -0.40291  -0.39926  -0.39675
 Alpha  occ. eigenvalues --   -0.39300  -0.39238  -0.39093  -0.38638  -0.38464
 Alpha  occ. eigenvalues --   -0.38129  -0.37815  -0.37695  -0.36900  -0.36645
 Alpha  occ. eigenvalues --   -0.36535  -0.36271  -0.36188  -0.35016  -0.34856
 Alpha  occ. eigenvalues --   -0.34590  -0.34310  -0.33618  -0.33262  -0.33061
 Alpha  occ. eigenvalues --   -0.32927  -0.32198  -0.31205  -0.29958  -0.29417
 Alpha  occ. eigenvalues --   -0.28770  -0.27920  -0.26987  -0.26356  -0.25766
 Alpha  occ. eigenvalues --   -0.25104  -0.24432  -0.24296  -0.23971  -0.21671
 Alpha  occ. eigenvalues --   -0.17805
 Alpha virt. eigenvalues --   -0.10632  -0.06446  -0.04535  -0.01079   0.00874
 Alpha virt. eigenvalues --    0.00886   0.01192   0.02154   0.02831   0.03640
 Alpha virt. eigenvalues --    0.04296   0.04746   0.05310   0.06319   0.06854

 Mulliken charges:
               1
     1  O   -0.139028
     2  O   -0.286626
     3  O   -0.194113
     4  O   -0.176747
     5  O   -0.206750
     6  O   -0.242375
     7  N   -0.062461
     8  N   -0.244084
     9  N   -0.116960
    10  N   -0.285810
    11  C   -0.143609
    12  C   -0.039707
    13  C   -0.162704
    14  C    0.093331
    15  C   -0.112077
    16  C    0.203586
    17  C   -0.084430
    18  C   -0.121572
    19  C    0.236408
    20  C   -0.084412
    21  C    0.103999
    22  C    0.145111
    23  C    0.019677
    24  C    0.194499
    25  C   -0.134697
    26  C   -0.016118
    27  C    0.058303
    28  C    0.051675
    29  C    0.021769
    30  C    0.088217
    31  C   -0.170037
    32  C    0.020191
    33  C   -0.106615
    34  C    0.082963
    35  C   -0.085955
    36  C   -0.110081
    37  C    0.101307
    38  C    0.012174
    39  C    0.116474
    40  C   -0.023630
    41  C    0.135329
    42  C    0.032224
    43  C    0.077090
    44  H    0.139565
    45  H    0.000737
    46  H    0.002198
    47  H   -0.039346
    48  H    0.053066
    49  H    0.020166
    50  H   -0.053041
    51  H    0.011212
    52  H    0.202969
    53  H    0.047273
    54  H    0.058215
    55  H    0.037295
    56  H    0.140749
    57  H    0.051371
    58  H    0.027937
    59  H    0.050736
    60  H    0.033250
    61  H    0.010256
    62  H    0.013686
    63  H    0.053266
    64  H   -0.005411
    65  H    0.021655
    66  H    0.046068
    67  H    0.008865
    68  H   -0.014705
    69  H    0.096852
    70  H    0.011221
    71  H    0.002238
    72  H    0.008724
    73  H    0.023842
    74  H    0.036068
    75  H    0.037503
    76  H    0.029073
    77  H   -0.015177
    78  H   -0.000260
    79  H    0.008872
    80  H    0.243875
    81  H    0.155408
 Sum of Mulliken charges =  -0.00000

 Dipole moment (field-independent basis, Debye):
    X=              1.7568    Y=              0.9169    Z=              1.3499  Tot=              2.3978
 Quadrupole moment (field-independent basis, Debye-Ang):
   XX=           -255.6811   YY=           -243.7620   ZZ=           -254.6892
   XY=             -9.1591   XZ=             10.2383   YZ=             12.8819

 Normal termination of Gaussian 16 at Mon Jul  1 00:09:22 2019.
