 Gaussian 16, Revision A.03,
 Gaussian 16:  ES64L-G16RevA.03 25-Dec-2016

 --------------------------
 # td=(NStates=1) B3LYP/SVP
 --------------------------

 --
 TD
 --
 Symbolic Z-matrix:
 Charge =  0 Multiplicity = 1

                         Standard orientation:
 ---------------------------------------------------------------------
 Center     Atomic      Atomic             Coordinates (Angstroms)
 Number     Number       Type             X           Y           Z
 ---------------------------------------------------------------------
      1          8           0       -4.510801   -4.920417    1.905063
      2          8           0        3.374606   -4.900694    1.110484
      3          8           0        7.153279   -1.217016    1.940267
      4          8           0        3.869669   -2.972548    0.036320
      5          8           0        7.554040   -0.512490   -0.265370
      6          8           0       -3.197934    2.427045   -0.231684
      7          7           0       -0.185067   -0.658080   -0.515902
      8          7           0        1.420067    1.828505   -0.311165
      9          7           0       -3.399479   -3.339866    0.641505
     10          7           0       -0.891456    2.888356   -0.161329
     11          6           0        0.790794   -2.530277   -1.323322
     12          6           0        1.041582   -1.194310   -0.765540
     13          6           0       -0.600014   -2.734651   -1.276052
     14          6           0       -1.195966   -1.515225   -0.669010
     15          6           0        3.738531    1.506140   -0.409471
     16          6           0        2.448596    0.858482   -0.403034
     17          6           0        2.260054   -0.433674   -0.762677
     18          6           0        3.403806    2.918685   -0.048151
     19          6           0        1.763179   -3.382990   -1.924055
     20          6           0       -5.485265   -2.630966    1.361885
     21          6           0       -3.609183   -2.053235    0.031304
     22          6           0        2.016950    3.094810   -0.073085
     23          6           0       -4.948642   -1.656218    0.367606
     24          6           0        5.053558    0.962752   -0.268978
     25          6           0       -2.621826   -1.107118   -0.274567
     26          6           0       -1.319759   -3.850803   -1.772870
     27          6           0       -4.468939   -3.807290    1.303478
     28          6           0        2.185734   -4.470776   -0.857188
     29          6           0        5.467483    0.084877    0.917842
     30          6           0        4.460316    3.910790    0.361553
     31          6           0        1.111970    4.186356    0.136738
     32          6           0       -6.880804   -3.229583    1.031216
     33          6           0       -5.708185   -0.688557   -0.194996
     34          6           0       -0.307938    4.067499    0.003375
     35          6           0       -1.207767    5.173682    0.423448
     36          6           0       -2.394307    4.570045    0.387720
     37          6           0        3.226285   -3.933380    0.116930
     38          6           0       -5.407048    0.375522   -1.249263
     39          6           0        6.806832   -0.638296    0.751422
     40          6           0       -3.773345    5.202720    0.480041
     41          6           0       -2.219116    3.115160   -0.053507
     42          6           0       -0.753770    6.517212    0.714050
     43          6           0       -4.365306    5.461577   -0.735784
     44          1           0       -0.292015    0.299593   -0.047582
     45          1           0        3.035039   -1.117594   -0.789486
     46          1           0        2.754240   -2.699854   -2.209987
     47          1           0        1.109995   -3.959335   -2.817128
     48          1           0       -5.661152   -2.317003    2.422838
     49          1           0        5.245249    0.238199   -1.034762
     50          1           0        5.900976    1.888029   -0.506137
     51          1           0       -2.730000   -0.028102   -0.111735
     52          1           0        0.319233    1.824296   -0.356956
     53          1           0       -1.522731   -4.688590   -1.213426
     54          1           0       -2.342222   -3.691260   -2.179282
     55          1           0       -0.864903   -4.173450   -2.790319
     56          1           0       -2.558524   -3.994670    0.500327
     57          1           0        1.311117   -5.169571   -0.513995
     58          1           0        2.736053   -5.010611   -1.567952
     59          1           0        4.773676   -0.470434    1.147069
     60          1           0        5.557719    0.592378    2.028904
     61          1           0        4.362084    4.830810   -0.284300
     62          1           0        5.337778    3.640742   -0.006508
     63          1           0        4.636100    3.893767    1.652458
     64          1           0        1.696048    5.126905    0.400562
     65          1           0       -7.679901   -2.556523    1.339870
     66          1           0       -7.352288   -4.143974    1.580860
     67          1           0       -7.173235   -3.258517   -0.116411
     68          1           0       -6.849729   -0.645672    0.109073
     69          1           0       -4.894395    1.399834   -0.789840
     70          1           0       -6.226034    0.610025   -2.037787
     71          1           0       -4.467551    0.131885   -1.716115
     72          1           0       -3.638112    6.291154    0.826584
     73          1           0       -4.528812    4.722018    1.233212
     74          1           0       -0.101899    6.716525    1.680018
     75          1           0       -1.520992    7.157332    1.081295
     76          1           0       -0.303398    7.024876    0.047963
     77          1           0       -3.702639    6.023610   -1.440700
     78          1           0       -5.388227    6.058986   -0.729339
     79          1           0       -4.447288    4.547083   -1.450224
     80          1           0        3.945900   -4.386695    1.643919
     81          1           0        7.922571   -1.863390    1.520270
 ---------------------------------------------------------------------

 SCF Done:  E(RB3LYP) =  -1948.99146268     A.U. after   17 cycles

 Excitation energies and oscillator strengths:

 Excited State   1:      Singlet-A      1.8731 eV  661.90 nm  f=0.4232  <S**2>=0.000
     156 ->157         0.71102
     156 <-157        -0.12240
 This state for optimization and/or second-order correction.
 Total Energy, E(TD-HF/TD-DFT) =  -1948.92262591
 Copying the excited state density for this state as the 1-particle RhoCI density.

 The electronic state is 1-A.
 Alpha  occ. eigenvalues --  -19.20789 -19.19369 -19.17194 -19.14140 -19.10425
 Alpha  occ. eigenvalues --  -19.10193 -14.39385 -14.38594 -14.35026 -14.29624
 Alpha  occ. eigenvalues --  -10.34872 -10.33765 -10.28953 -10.26423 -10.25685
 Alpha  occ. eigenvalues --  -10.25252 -10.23746 -10.23661 -10.23635 -10.23482
 Alpha  occ. eigenvalues --  -10.23004 -10.22776 -10.21391 -10.21383 -10.21315
 Alpha  occ. eigenvalues --  -10.21314 -10.21236 -10.21063 -10.21038 -10.20792
 Alpha  occ. eigenvalues --  -10.20623 -10.20423 -10.20380 -10.20326 -10.20214
 Alpha  occ. eigenvalues --  -10.19452 -10.19262 -10.19161 -10.18795 -10.18526
 Alpha  occ. eigenvalues --  -10.18179 -10.18081 -10.17527  -1.13886  -1.08816
 Alpha  occ. eigenvalues --   -1.05233  -1.02345  -1.01483  -0.99964  -0.99436
 Alpha  occ. eigenvalues --   -0.95509  -0.94301  -0.93376  -0.84123  -0.82640
 Alpha  occ. eigenvalues --   -0.82079  -0.81393  -0.80931  -0.79252  -0.78093
 Alpha  occ. eigenvalues --   -0.77553  -0.77143  -0.75794  -0.73720  -0.73291
 Alpha  occ. eigenvalues --   -0.71969  -0.70326  -0.69929  -0.68847  -0.68072
 Alpha  occ. eigenvalues --   -0.67659  -0.65345  -0.64278  -0.62191  -0.60941
 Alpha  occ. eigenvalues --   -0.59906  -0.59459  -0.58698  -0.58309  -0.57909
 Alpha  occ. eigenvalues --   -0.55913  -0.55066  -0.54370  -0.54122  -0.53232
 Alpha  occ. eigenvalues --   -0.53007  -0.52765  -0.52107  -0.51186  -0.50506
 Alpha  occ. eigenvalues --   -0.50303  -0.50185  -0.49183  -0.48942  -0.47834
 Alpha  occ. eigenvalues --   -0.47643  -0.47124  -0.46498  -0.46134  -0.45544
 Alpha  occ. eigenvalues --   -0.45458  -0.45327  -0.44872  -0.44766  -0.44501
 Alpha  occ. eigenvalues --   -0.44025  -0.43840  -0.43237  -0.43087  -0.42897
 Alpha  occ. eigenvalues --   -0.42669  -0.42227  -0.41818  -0.41639  -0.41069
 Alpha  occ. eigenvalues --   -0.40804  -0.40771  -0.40688  -0.40324  -0.39875
 Alpha  occ. eigenvalues --   -0.39653  -0.39128  -0.39054  -0.38740  -0.38262
 Alpha  occ. eigenvalues --   -0.38105  -0.37704  -0.37240  -0.36396  -0.36292
 Alpha  occ. eigenvalues --   -0.36126  -0.35609  -0.34959  -0.34699  -0.34558
 Alpha  occ. eigenvalues --   -0.34514  -0.33835  -0.33421  -0.33230  -0.32762
 Alpha  occ. eigenvalues --   -0.32275  -0.32185  -0.31879  -0.30480  -0.29398
 Alpha  occ. eigenvalues --   -0.29138  -0.29072  -0.26147  -0.25897  -0.25654
 Alpha  occ. eigenvalues --   -0.24910  -0.24494  -0.24105  -0.23800  -0.21873
 Alpha  occ. eigenvalues --   -0.18243
 Alpha virt. eigenvalues --   -0.10940  -0.06343  -0.04827  -0.02691  -0.01885
 Alpha virt. eigenvalues --   -0.00474   0.00764   0.01384   0.02280   0.02712
 Alpha virt. eigenvalues --    0.03426   0.04410   0.04832   0.05187   0.05365

 Mulliken charges:
               1
     1  O   -0.271827
     2  O   -0.179367
     3  O   -0.233596
     4  O   -0.160818
     5  O   -0.271660
     6  O   -0.214265
     7  N   -0.044805
     8  N   -0.217774
     9  N   -0.138710
    10  N   -0.267384
    11  C   -0.030334
    12  C   -0.015180
    13  C   -0.127584
    14  C    0.016711
    15  C   -0.031687
    16  C    0.109964
    17  C    0.016182
    18  C   -0.189190
    19  C   -0.089151
    20  C   -0.053196
    21  C    0.143668
    22  C    0.100620
    23  C   -0.007264
    24  C    0.041031
    25  C   -0.049447
    26  C    0.040531
    27  C    0.144364
    28  C    0.048773
    29  C    0.097017
    30  C    0.165537
    31  C   -0.127560
    32  C   -0.026738
    33  C   -0.140724
    34  C    0.090936
    35  C   -0.051800
    36  C   -0.204246
    37  C    0.136439
    38  C   -0.011157
    39  C    0.184488
    40  C    0.092486
    41  C    0.154205
    42  C    0.192397
    43  C   -0.042921
    44  H    0.159914
    45  H   -0.026007
    46  H    0.059721
    47  H    0.041433
    48  H    0.056039
    49  H    0.014087
    50  H    0.051851
    51  H    0.030603
    52  H    0.169251
    53  H    0.006231
    54  H    0.017133
    55  H    0.019115
    56  H    0.158170
    57  H    0.069318
    58  H    0.030400
    59  H   -0.075284
    60  H    0.042428
    61  H    0.019897
    62  H   -0.068046
    63  H    0.059411
    64  H   -0.008887
    65  H   -0.005968
    66  H    0.045328
    67  H    0.022382
    68  H    0.022858
    69  H    0.108440
    70  H    0.038925
    71  H   -0.001112
    72  H   -0.009162
    73  H    0.023507
    74  H    0.014619
    75  H   -0.021660
    76  H   -0.037411
    77  H   -0.010201
    78  H    0.024313
    79  H    0.011993
    80  H    0.142803
    81  H    0.226603
 Sum of Mulliken charges =  -0.00000

 Dipole moment (field-independent basis, Debye):
    X=              3.5746    Y=             -0.3239    Z=             -0.2151  Tot=              3.5957
 Quadrupole moment (field-independent basis, Debye-Ang):
   XX=           -258.7501   YY=           -247.6683   ZZ=           -258.0220
   XY=            -19.3133   XZ=             15.5760   YZ=             16.8788

 Normal termination of Gaussian 16 at Wed Jun 26 21:27:35 2019.
