 Gaussian 16, Revision A.03,
 Gaussian 16:  ES64L-G16RevA.03 25-Dec-2016

 --------------------------
 # td=(NStates=1) B3LYP/SVP
 --------------------------

 --
 TD
 --
 Symbolic Z-matrix:
 Charge =  0 Multiplicity = 1

                         Standard orientation:
 ---------------------------------------------------------------------
 Center     Atomic      Atomic             Coordinates (Angstroms)
 Number     Number       Type             X           Y           Z
 ---------------------------------------------------------------------
      1          8           0        4.560497   -4.534861   -1.957016
      2          8           0       -2.920610   -4.857300   -1.276144
      3          8           0       -7.159731   -1.669722   -1.728230
      4          8           0       -3.680070   -3.028743   -0.029184
      5          8           0       -7.501702   -0.707179    0.213321
      6          8           0        2.957774    2.513854    0.255786
      7          7           0        0.329605   -0.609511    0.604891
      8          7           0       -1.664993    1.819404    0.411581
      9          7           0        3.513703   -3.105720   -0.641793
     10          7           0        0.635627    2.900116    0.058225
     11          6           0       -0.571421   -2.529068    1.407218
     12          6           0       -0.913415   -1.192458    1.041267
     13          6           0        0.880857   -2.623117    1.321404
     14          6           0        1.337515   -1.509418    0.750246
     15          6           0       -3.790373    1.310823    0.295765
     16          6           0       -2.497022    0.792117    0.590793
     17          6           0       -2.139858   -0.532094    0.898313
     18          6           0       -3.647737    2.634104   -0.028853
     19          6           0       -1.500476   -3.529129    1.879796
     20          6           0        5.679369   -2.544101   -1.401150
     21          6           0        3.690257   -1.778693   -0.020679
     22          6           0       -2.184460    2.876216    0.022569
     23          6           0        5.079822   -1.477966   -0.416129
     24          6           0       -5.172763    0.603839    0.326259
     25          6           0        2.689859   -1.028358    0.462914
     26          6           0        1.669731   -3.863925    1.857235
     27          6           0        4.533851   -3.569641   -1.376716
     28          6           0       -1.969581   -4.526350    0.825462
     29          6           0       -5.523812   -0.077855   -0.954943
     30          6           0       -4.614540    3.738713   -0.483682
     31          6           0       -1.460349    4.035335   -0.354336
     32          6           0        7.044198   -3.071538   -1.140627
     33          6           0        5.812819   -0.461233    0.140319
     34          6           0       -0.063589    3.971533   -0.220143
     35          6           0        0.836268    5.166048   -0.520089
     36          6           0        2.106252    4.752663   -0.298887
     37          6           0       -3.007990   -4.012908   -0.249754
     38          6           0        5.491581    0.668924    1.122165
     39          6           0       -6.735277   -0.843297   -0.710369
     40          6           0        3.403801    5.466758   -0.411124
     41          6           0        2.010860    3.275307    0.061606
     42          6           0        0.322476    6.562333   -0.700391
     43          6           0        4.325315    5.517964    0.901526
     44          1           0        0.388733    0.328038    0.155753
     45          1           0       -3.013437   -1.211353    1.023425
     46          1           0       -2.358550   -3.270398    2.349083
     47          1           0       -1.055743   -3.971895    2.776089
     48          1           0        5.640768   -2.075981   -2.260020
     49          1           0       -5.317384   -0.121602    1.237895
     50          1           0       -5.870293    1.276373    0.813601
     51          1           0        2.970185    0.058622    0.600899
     52          1           0       -0.537734    1.852121    0.587303
     53          1           0        1.438243   -5.014964    1.413008
     54          1           0        2.852863   -3.642185    1.641496
     55          1           0        1.255916   -3.950543    2.887145
     56          1           0        2.673040   -3.679926   -0.789718
     57          1           0       -1.154345   -5.134619    0.538127
     58          1           0       -2.380193   -5.322879    1.301196
     59          1           0       -4.778320   -0.833597   -1.059164
     60          1           0       -5.653837    0.699396   -1.746802
     61          1           0       -4.416731    4.408152    0.361842
     62          1           0       -5.734963    3.614407   -0.445792
     63          1           0       -4.274439    4.018508   -1.350311
     64          1           0       -1.940836    4.910177   -0.828315
     65          1           0        7.637519   -2.121259   -1.424567
     66          1           0        7.338393   -3.820743   -1.678035
     67          1           0        7.221121   -3.173752   -0.049115
     68          1           0        6.775044   -0.210656   -0.372868
     69          1           0        4.829614    1.184681    0.465883
     70          1           0        6.293621    1.165728    1.593899
     71          1           0        4.946991    0.307449    2.035866
     72          1           0        3.100930    6.453471   -0.668342
     73          1           0        4.054510    4.860853   -1.231621
     74          1           0       -0.438200    6.493872   -1.479336
     75          1           0        1.034443    7.230778   -0.994580
     76          1           0       -0.081344    7.038898    0.232627
     77          1           0        3.687110    6.027834    1.693207
     78          1           0        5.259257    5.920307    0.654057
     79          1           0        4.656203    4.366258    1.108322
     80          1           0       -3.560698   -4.644174   -1.983210
     81          1           0       -7.967319   -1.982976   -1.669441
 ---------------------------------------------------------------------

 SCF Done:  E(RB3LYP) =  -1949.08965759     A.U. after   16 cycles

 Excitation energies and oscillator strengths:

 Excited State   1:      Singlet-A      2.1069 eV  588.47 nm  f=0.3931  <S**2>=0.000
     156 ->157         0.70321
 This state for optimization and/or second-order correction.
 Total Energy, E(TD-HF/TD-DFT) =  -1949.01223132
 Copying the excited state density for this state as the 1-particle RhoCI density.

 The electronic state is 1-A.
 Alpha  occ. eigenvalues --  -19.21523 -19.15912 -19.15558 -19.12105 -19.10625
 Alpha  occ. eigenvalues --  -19.09641 -14.36777 -14.35502 -14.35300 -14.29315
 Alpha  occ. eigenvalues --  -10.34931 -10.31764 -10.26879 -10.26563 -10.24167
 Alpha  occ. eigenvalues --  -10.22941 -10.22794 -10.22741 -10.22624 -10.22425
 Alpha  occ. eigenvalues --  -10.22028 -10.21213 -10.20519 -10.19879 -10.19838
 Alpha  occ. eigenvalues --  -10.19834 -10.19801 -10.19744 -10.19566 -10.19544
 Alpha  occ. eigenvalues --  -10.19491 -10.19463 -10.19151 -10.19138 -10.19038
 Alpha  occ. eigenvalues --  -10.18891 -10.18801 -10.18768 -10.18413 -10.18297
 Alpha  occ. eigenvalues --  -10.18177 -10.17446 -10.17393  -1.11964  -1.09603
 Alpha  occ. eigenvalues --   -1.07299  -1.04082  -1.01736  -1.00880  -1.00333
 Alpha  occ. eigenvalues --   -0.96967  -0.93705  -0.92068  -0.82580  -0.82301
 Alpha  occ. eigenvalues --   -0.81047  -0.80887  -0.79757  -0.78711  -0.78542
 Alpha  occ. eigenvalues --   -0.77342  -0.76434  -0.74883  -0.74120  -0.72247
 Alpha  occ. eigenvalues --   -0.71426  -0.69797  -0.69126  -0.68501  -0.68119
 Alpha  occ. eigenvalues --   -0.67506  -0.65348  -0.64228  -0.63428  -0.62152
 Alpha  occ. eigenvalues --   -0.61532  -0.60516  -0.59030  -0.57421  -0.56775
 Alpha  occ. eigenvalues --   -0.56242  -0.55078  -0.54874  -0.53671  -0.52648
 Alpha  occ. eigenvalues --   -0.52425  -0.52357  -0.51114  -0.50994  -0.50670
 Alpha  occ. eigenvalues --   -0.49697  -0.49082  -0.48440  -0.48058  -0.47270
 Alpha  occ. eigenvalues --   -0.47102  -0.46678  -0.46542  -0.45923  -0.45417
 Alpha  occ. eigenvalues --   -0.44945  -0.44748  -0.44593  -0.44038  -0.43780
 Alpha  occ. eigenvalues --   -0.43510  -0.43196  -0.43015  -0.42754  -0.42728
 Alpha  occ. eigenvalues --   -0.42543  -0.41871  -0.41339  -0.41084  -0.40856
 Alpha  occ. eigenvalues --   -0.40492  -0.40353  -0.40162  -0.40016  -0.39663
 Alpha  occ. eigenvalues --   -0.39374  -0.39306  -0.39151  -0.38129  -0.38057
 Alpha  occ. eigenvalues --   -0.37668  -0.37287  -0.36564  -0.36337  -0.36090
 Alpha  occ. eigenvalues --   -0.36066  -0.35976  -0.35320  -0.34884  -0.34792
 Alpha  occ. eigenvalues --   -0.34651  -0.34597  -0.33458  -0.33304  -0.32940
 Alpha  occ. eigenvalues --   -0.32742  -0.31946  -0.31581  -0.30498  -0.30070
 Alpha  occ. eigenvalues --   -0.27797  -0.27679  -0.26115  -0.25435  -0.24785
 Alpha  occ. eigenvalues --   -0.24466  -0.24171  -0.24032  -0.23492  -0.21527
 Alpha  occ. eigenvalues --   -0.17954
 Alpha virt. eigenvalues --   -0.09547  -0.05146  -0.03263  -0.01294  -0.00280
 Alpha virt. eigenvalues --    0.02572   0.02921   0.03380   0.03941   0.04584
 Alpha virt. eigenvalues --    0.05399   0.05913   0.06068   0.06692   0.07001

 Mulliken charges:
               1
     1  O   -0.127187
     2  O   -0.155064
     3  O   -0.161466
     4  O   -0.209454
     5  O   -0.224984
     6  O   -0.214495
     7  N   -0.130241
     8  N    0.018731
     9  N   -0.166244
    10  N   -0.316898
    11  C   -0.069539
    12  C    0.064681
    13  C   -0.123183
    14  C    0.088973
    15  C   -0.084730
    16  C    0.036304
    17  C   -0.053846
    18  C   -0.159675
    19  C    0.140269
    20  C    0.030255
    21  C    0.158090
    22  C    0.003394
    23  C   -0.093015
    24  C   -0.010570
    25  C   -0.132236
    26  C   -0.028831
    27  C    0.016749
    28  C    0.060826
    29  C    0.151842
    30  C    0.165706
    31  C   -0.151330
    32  C    0.138706
    33  C   -0.180593
    34  C    0.079640
    35  C   -0.125371
    36  C   -0.156384
    37  C    0.178951
    38  C    0.079032
    39  C    0.092128
    40  C    0.040106
    41  C    0.175468
    42  C    0.137766
    43  C   -0.028637
    44  H    0.138887
    45  H    0.016640
    46  H   -0.037182
    47  H   -0.020688
    48  H   -0.021325
    49  H    0.019615
    50  H    0.006683
    51  H    0.035040
    52  H    0.194226
    53  H    0.039575
    54  H    0.071658
    55  H    0.035624
    56  H    0.129240
    57  H   -0.013572
    58  H   -0.014661
    59  H    0.020082
    60  H    0.056904
    61  H    0.025985
    62  H    0.022222
    63  H   -0.004201
    64  H   -0.017646
    65  H    0.006120
    66  H   -0.014582
    67  H    0.012881
    68  H    0.002124
    69  H    0.083131
    70  H    0.002716
    71  H    0.021460
    72  H   -0.017360
    73  H    0.036740
    74  H    0.015918
    75  H   -0.025506
    76  H    0.037181
    77  H    0.035355
    78  H    0.002949
    79  H    0.051729
    80  H    0.189824
    81  H    0.122567
 Sum of Mulliken charges =  -0.00000

 Dipole moment (field-independent basis, Debye):
    X=             -3.2490    Y=              0.3410    Z=             -1.1159  Tot=              3.4522
 Quadrupole moment (field-independent basis, Debye-Ang):
   XX=           -253.3538   YY=           -232.4383   ZZ=           -252.1948
   XY=             18.7575   XZ=             17.9641   YZ=             -8.8643

 Normal termination of Gaussian 16 at Sat Jul  6 19:57:18 2019.
