 Gaussian 16, Revision A.03,
 Gaussian 16:  ES64L-G16RevA.03 25-Dec-2016

 --------------------------
 # td=(NStates=1) B3LYP/SVP
 --------------------------

 --
 TD
 --
 Symbolic Z-matrix:
 Charge =  0 Multiplicity = 1

                         Standard orientation:
 ---------------------------------------------------------------------
 Center     Atomic      Atomic             Coordinates (Angstroms)
 Number     Number       Type             X           Y           Z
 ---------------------------------------------------------------------
      1          8           0        4.456248   -4.858526   -1.685303
      2          8           0       -2.792596   -4.826912   -1.319659
      3          8           0       -7.154140   -1.594580   -1.711202
      4          8           0       -3.607937   -3.035817   -0.288393
      5          8           0       -7.482774   -0.487353    0.281965
      6          8           0        3.002547    2.424462    0.270852
      7          7           0        0.309961   -0.512389    0.739781
      8          7           0       -1.482493    1.813132    0.365930
      9          7           0        3.378918   -3.229165   -0.549738
     10          7           0        0.745830    2.965838    0.093361
     11          6           0       -0.725579   -2.430295    1.256705
     12          6           0       -0.963606   -1.067393    0.904558
     13          6           0        0.617204   -2.750465    1.271372
     14          6           0        1.346252   -1.481604    0.871083
     15          6           0       -3.749649    1.467736    0.292810
     16          6           0       -2.531017    0.864368    0.550719
     17          6           0       -2.188404   -0.424587    0.852847
     18          6           0       -3.482564    2.739488   -0.135330
     19          6           0       -1.783404   -3.463373    1.790071
     20          6           0        5.420855   -2.677937   -1.323370
     21          6           0        3.700146   -1.985238   -0.004365
     22          6           0       -2.108538    3.094794   -0.111961
     23          6           0        5.061268   -1.600168   -0.353484
     24          6           0       -5.141284    0.777904    0.386118
     25          6           0        2.685040   -1.183369    0.546638
     26          6           0        1.323394   -3.890818    1.694525
     27          6           0        4.363824   -3.776789   -1.216466
     28          6           0       -2.178405   -4.645181    0.949919
     29          6           0       -5.397870   -0.193624   -0.783893
     30          6           0       -4.429913    3.856801   -0.340718
     31          6           0       -1.296840    4.175369   -0.362629
     32          6           0        6.856034   -3.328241   -1.175150
     33          6           0        5.819476   -0.489014    0.117272
     34          6           0        0.040510    4.141479   -0.010993
     35          6           0        0.989777    5.148505   -0.463944
     36          6           0        2.260675    4.736707   -0.421120
     37          6           0       -2.893215   -4.025380   -0.322754
     38          6           0        5.493727    0.467406    1.214868
     39          6           0       -6.812919   -0.738081   -0.686153
     40          6           0        3.638261    5.356549   -0.463843
     41          6           0        2.143870    3.231605    0.102747
     42          6           0        0.578686    6.484052   -0.905738
     43          6           0        4.186006    5.877447    0.846052
     44          1           0        0.546505    0.516931    0.222341
     45          1           0       -3.098490   -1.117076    0.900780
     46          1           0       -2.606527   -2.666919    2.119355
     47          1           0       -1.538082   -3.978983    2.617692
     48          1           0        5.477784   -2.347108   -2.294097
     49          1           0       -5.395330    0.258844    1.406450
     50          1           0       -5.972031    1.506318    0.428022
     51          1           0        2.931480   -0.099690    0.590661
     52          1           0       -0.429008    1.939075    0.330464
     53          1           0        1.355228   -4.839993    1.014727
     54          1           0        2.415763   -3.830972    1.878299
     55          1           0        1.024452   -4.453429    2.518777
     56          1           0        2.545218   -3.603854   -0.415636
     57          1           0       -1.331586   -5.163322    0.430531
     58          1           0       -3.169810   -5.239384    1.390527
     59          1           0       -4.801197   -1.200500   -0.950964
     60          1           0       -5.233018    0.428018   -1.788100
     61          1           0       -4.301993    4.696790    0.285940
     62          1           0       -5.473185    3.475940   -0.136842
     63          1           0       -4.574071    4.305389   -1.392804
     64          1           0       -1.495187    4.983110   -0.942982
     65          1           0        7.516649   -2.284931   -1.303183
     66          1           0        7.278665   -4.079962   -1.839088
     67          1           0        7.091665   -3.711430   -0.325430
     68          1           0        6.748199   -0.483486   -0.512787
     69          1           0        5.054521    1.448237    0.809621
     70          1           0        6.438519    0.654826    1.703716
     71          1           0        4.728038    0.040752    1.710821
     72          1           0        3.597639    6.217016   -1.085917
     73          1           0        4.356499    4.611574   -1.007591
     74          1           0       -0.123555    6.280018   -1.772022
     75          1           0        1.569176    7.009224   -1.462871
     76          1           0        0.093728    7.172674   -0.152383
     77          1           0        3.644071    6.472403    1.500661
     78          1           0        5.133264    6.285102    0.841242
     79          1           0        4.495437    5.116322    1.725296
     80          1           0       -3.265901   -4.426132   -1.994086
     81          1           0       -8.320607   -1.735424   -1.378925
 ---------------------------------------------------------------------

 SCF Done:  E(RB3LYP) =  -1949.02097442     A.U. after   18 cycles

 Excitation energies and oscillator strengths:

 Excited State   1:      Singlet-A      1.7674 eV  701.51 nm  f=0.4107  <S**2>=0.000
     156 ->157         0.71400
     156 <-157        -0.14482
 This state for optimization and/or second-order correction.
 Total Energy, E(TD-HF/TD-DFT) =  -1948.95602398
 Copying the excited state density for this state as the 1-particle RhoCI density.

 The electronic state is 1-A.
 Alpha  occ. eigenvalues --  -19.20921 -19.19421 -19.13872 -19.13011 -19.11058
 Alpha  occ. eigenvalues --  -19.10596 -14.38678 -14.36957 -14.33192 -14.28692
 Alpha  occ. eigenvalues --  -10.33108 -10.31649 -10.28283 -10.26513 -10.25281
 Alpha  occ. eigenvalues --  -10.24924 -10.23603 -10.23288 -10.22825 -10.22285
 Alpha  occ. eigenvalues --  -10.21840 -10.21620 -10.21363 -10.20940 -10.20863
 Alpha  occ. eigenvalues --  -10.20737 -10.20733 -10.20626 -10.20491 -10.20448
 Alpha  occ. eigenvalues --  -10.20128 -10.19849 -10.19821 -10.19744 -10.19700
 Alpha  occ. eigenvalues --  -10.19100 -10.18774 -10.18660 -10.18418 -10.18286
 Alpha  occ. eigenvalues --  -10.18155 -10.17833 -10.17381  -1.15013  -1.07790
 Alpha  occ. eigenvalues --   -1.05673  -1.02967  -1.02506  -0.99428  -0.98019
 Alpha  occ. eigenvalues --   -0.96118  -0.93727  -0.90583  -0.82490  -0.82151
 Alpha  occ. eigenvalues --   -0.81313  -0.80611  -0.79224  -0.78915  -0.78215
 Alpha  occ. eigenvalues --   -0.76864  -0.76228  -0.75671  -0.74906  -0.72879
 Alpha  occ. eigenvalues --   -0.71317  -0.70594  -0.69172  -0.68335  -0.67997
 Alpha  occ. eigenvalues --   -0.66048  -0.65734  -0.64745  -0.63131  -0.62166
 Alpha  occ. eigenvalues --   -0.61376  -0.60851  -0.58659  -0.56919  -0.56638
 Alpha  occ. eigenvalues --   -0.56082  -0.55090  -0.54983  -0.53803  -0.52174
 Alpha  occ. eigenvalues --   -0.51587  -0.51497  -0.50858  -0.50456  -0.49918
 Alpha  occ. eigenvalues --   -0.49476  -0.48883  -0.48690  -0.48000  -0.47729
 Alpha  occ. eigenvalues --   -0.46856  -0.46356  -0.46277  -0.46227  -0.45971
 Alpha  occ. eigenvalues --   -0.44975  -0.44645  -0.44477  -0.44020  -0.43509
 Alpha  occ. eigenvalues --   -0.43226  -0.43189  -0.43009  -0.42666  -0.42458
 Alpha  occ. eigenvalues --   -0.42042  -0.41747  -0.41253  -0.40977  -0.40802
 Alpha  occ. eigenvalues --   -0.40432  -0.40212  -0.40063  -0.39903  -0.39513
 Alpha  occ. eigenvalues --   -0.39315  -0.39257  -0.38589  -0.38375  -0.37961
 Alpha  occ. eigenvalues --   -0.37585  -0.37390  -0.37277  -0.37170  -0.36964
 Alpha  occ. eigenvalues --   -0.36465  -0.36284  -0.36009  -0.35035  -0.34577
 Alpha  occ. eigenvalues --   -0.34311  -0.33962  -0.33466  -0.33337  -0.32956
 Alpha  occ. eigenvalues --   -0.32766  -0.32005  -0.31329  -0.29845  -0.29011
 Alpha  occ. eigenvalues --   -0.28235  -0.27550  -0.26840  -0.26216  -0.25654
 Alpha  occ. eigenvalues --   -0.25246  -0.24227  -0.23451  -0.22758  -0.21436
 Alpha  occ. eigenvalues --   -0.17348
 Alpha virt. eigenvalues --   -0.10632  -0.06581  -0.04380  -0.01860  -0.00902
 Alpha virt. eigenvalues --    0.00610   0.00726   0.02442   0.02921   0.04199
 Alpha virt. eigenvalues --    0.04795   0.05144   0.05397   0.05520   0.05860

 Mulliken charges:
               1
     1  O   -0.175460
     2  O   -0.059176
     3  O   -0.298291
     4  O   -0.240338
     5  O   -0.233895
     6  O   -0.176149
     7  N   -0.193510
     8  N   -0.255309
     9  N    0.024183
    10  N   -0.377774
    11  C   -0.114235
    12  C    0.134904
    13  C   -0.055363
    14  C    0.077382
    15  C   -0.011475
    16  C    0.118324
    17  C   -0.107580
    18  C   -0.107416
    19  C    0.123620
    20  C   -0.064681
    21  C    0.030467
    22  C    0.176198
    23  C   -0.019887
    24  C    0.078913
    25  C   -0.104094
    26  C    0.034717
    27  C    0.084721
    28  C   -0.032924
    29  C   -0.096378
    30  C    0.065729
    31  C   -0.105395
    32  C    0.062604
    33  C   -0.139368
    34  C    0.153414
    35  C   -0.137399
    36  C   -0.186210
    37  C    0.067153
    38  C    0.149643
    39  C    0.177416
    40  C    0.138361
    41  C    0.165580
    42  C    0.016394
    43  C    0.027801
    44  H    0.219776
    45  H    0.040637
    46  H    0.036352
    47  H   -0.028672
    48  H    0.019474
    49  H    0.035658
    50  H    0.008371
    51  H    0.025294
    52  H    0.140327
    53  H    0.012641
    54  H    0.025717
    55  H   -0.011651
    56  H    0.060216
    57  H    0.047885
    58  H    0.084255
    59  H    0.090400
    60  H    0.051354
    61  H    0.014930
    62  H   -0.006111
    63  H    0.017813
    64  H   -0.065179
    65  H    0.006318
    66  H    0.027605
    67  H   -0.043015
    68  H   -0.000274
    69  H    0.080340
    70  H    0.022847
    71  H   -0.008256
    72  H   -0.022308
    73  H    0.026074
    74  H    0.034301
    75  H    0.030295
    76  H    0.046795
    77  H   -0.011125
    78  H   -0.017511
    79  H   -0.004686
    80  H    0.146942
    81  H    0.250957
 Sum of Mulliken charges =  -0.00000

 Dipole moment (field-independent basis, Debye):
    X=             -1.9078    Y=             -0.6758    Z=             -0.6632  Tot=              2.1298
 Quadrupole moment (field-independent basis, Debye-Ang):
   XX=           -244.8079   YY=           -240.5753   ZZ=           -254.2799
   XY=             19.6113   XZ=             14.9824   YZ=            -12.0320

 Normal termination of Gaussian 16 at Thu Jul  4 23:50:51 2019.
