 Gaussian 16, Revision A.03,
 Gaussian 16:  ES64L-G16RevA.03 25-Dec-2016

 --------------------------
 # td=(NStates=1) B3LYP/SVP
 --------------------------

 --
 TD
 --
 Symbolic Z-matrix:
 Charge =  0 Multiplicity = 1

                         Standard orientation:
 ---------------------------------------------------------------------
 Center     Atomic      Atomic             Coordinates (Angstroms)
 Number     Number       Type             X           Y           Z
 ---------------------------------------------------------------------
      1          8           0       -4.441070   -4.560816    2.012300
      2          8           0        2.821054   -4.766190    1.294974
      3          8           0        6.849137   -1.630572    1.857684
      4          8           0        3.789712   -3.314075   -0.081005
      5          8           0        7.611438   -0.738383   -0.015893
      6          8           0       -3.014376    2.522127   -0.090541
      7          7           0       -0.231185   -0.503483   -0.591381
      8          7           0        1.568966    1.723144   -0.483155
      9          7           0       -3.429354   -3.112336    0.636186
     10          7           0       -0.614454    2.945562   -0.239536
     11          6           0        0.616807   -2.409064   -1.376530
     12          6           0        0.898351   -1.078434   -0.932399
     13          6           0       -0.801116   -2.649752   -1.244725
     14          6           0       -1.296105   -1.474166   -0.725979
     15          6           0        3.825756    1.384346   -0.339413
     16          6           0        2.521870    0.707231   -0.654791
     17          6           0        2.192929   -0.531687   -0.939381
     18          6           0        3.660680    2.792014   -0.029085
     19          6           0        1.580071   -3.425374   -1.818524
     20          6           0       -5.672325   -2.439553    1.383113
     21          6           0       -3.614604   -1.707999    0.110510
     22          6           0        2.178479    2.930911   -0.146068
     23          6           0       -5.092483   -1.479980    0.321350
     24          6           0        5.201844    0.647396   -0.363712
     25          6           0       -2.701974   -1.087883   -0.469142
     26          6           0       -1.600499   -3.861072   -1.883749
     27          6           0       -4.525900   -3.491590    1.419916
     28          6           0        1.813776   -4.548169   -0.813180
     29          6           0        5.375774   -0.334968    0.789923
     30          6           0        4.574774    3.720763    0.439837
     31          6           0        1.447692    4.083814    0.082803
     32          6           0       -7.028695   -3.037702    1.127989
     33          6           0       -5.932218   -0.529526   -0.177935
     34          6           0        0.069589    4.060072    0.105517
     35          6           0       -0.831399    5.195924    0.444780
     36          6           0       -2.087543    4.753586    0.386581
     37          6           0        2.807200   -4.106553    0.169583
     38          6           0       -5.485480    0.326123   -1.357910
     39          6           0        6.751770   -0.891127    0.842834
     40          6           0       -3.390473    5.447606    0.599966
     41          6           0       -2.030471    3.244866    0.003849
     42          6           0       -0.323403    6.581798    0.767715
     43          6           0       -4.177575    5.697901   -0.724548
     44          1           0       -0.423040    0.358288   -0.086779
     45          1           0        3.018059   -1.302935   -1.086718
     46          1           0        2.390244   -2.734800   -2.054162
     47          1           0        1.244159   -4.028731   -2.788113
     48          1           0       -5.433864   -2.121882    2.572241
     49          1           0        5.442422    0.114224   -1.343285
     50          1           0        5.909790    1.386937   -0.129911
     51          1           0       -2.811310   -0.044729   -0.704221
     52          1           0        0.548528    1.690610   -0.733748
     53          1           0       -1.859486   -4.621627   -1.109456
     54          1           0       -2.481014   -3.343654   -2.516500
     55          1           0       -1.089999   -4.408595   -2.643538
     56          1           0       -2.736328   -3.757427    0.302431
     57          1           0        0.844052   -4.782840   -0.166463
     58          1           0        2.169704   -5.682774   -1.204443
     59          1           0        4.624659   -1.189626    0.534267
     60          1           0        4.860694   -0.025351    1.989058
     61          1           0        4.502417    4.660116   -0.174184
     62          1           0        5.649439    3.288871    0.448223
     63          1           0        4.242309    4.086232    1.646904
     64          1           0        2.037328    5.024479    0.016809
     65          1           0       -7.860492   -2.340950    1.059131
     66          1           0       -7.306979   -3.933243    1.767110
     67          1           0       -6.867078   -3.564635    0.104106
     68          1           0       -6.997791   -0.071230    0.287751
     69          1           0       -5.124162    1.400680   -0.996266
     70          1           0       -6.297804    0.659429   -1.917290
     71          1           0       -4.598353   -0.157358   -1.871205
     72          1           0       -3.217609    6.430041    1.101871
     73          1           0       -4.004142    4.828375    1.212316
     74          1           0        0.198265    6.553361    1.942448
     75          1           0       -0.999910    7.409448    0.869333
     76          1           0        0.674291    6.878420    0.235385
     77          1           0       -3.667313    6.480058   -1.580308
     78          1           0       -5.070550    6.254125   -0.430220
     79          1           0       -4.466554    4.732337   -1.324483
     80          1           0        3.719809   -4.432948    1.767461
     81          1           0        7.702049   -2.096154    1.934320
 ---------------------------------------------------------------------

 SCF Done:  E(RB3LYP) =  -1949.07702431     A.U. after   16 cycles

 Excitation energies and oscillator strengths:

 Excited State   1:      Singlet-A      2.1190 eV  585.11 nm  f=0.3752  <S**2>=0.000
     156 ->157         0.70444
 This state for optimization and/or second-order correction.
 Total Energy, E(TD-HF/TD-DFT) =  -1948.99915353
 Copying the excited state density for this state as the 1-particle RhoCI density.

 The electronic state is 1-A.
 Alpha  occ. eigenvalues --  -19.20950 -19.19448 -19.13187 -19.12001 -19.11465
 Alpha  occ. eigenvalues --  -19.09032 -14.38202 -14.35957 -14.34657 -14.29632
 Alpha  occ. eigenvalues --  -10.33481 -10.31462 -10.27851 -10.27825 -10.24760
 Alpha  occ. eigenvalues --  -10.24034 -10.23575 -10.23427 -10.23334 -10.23199
 Alpha  occ. eigenvalues --  -10.23103 -10.22312 -10.22191 -10.21903 -10.21751
 Alpha  occ. eigenvalues --  -10.21712 -10.21559 -10.21251 -10.21239 -10.21066
 Alpha  occ. eigenvalues --  -10.20777 -10.20566 -10.20053 -10.20045 -10.20010
 Alpha  occ. eigenvalues --  -10.19980 -10.19521 -10.19384 -10.19298 -10.18849
 Alpha  occ. eigenvalues --  -10.18572 -10.18072 -10.18034  -1.12885  -1.11443
 Alpha  occ. eigenvalues --   -1.01833  -1.01221  -1.00084  -0.99042  -0.98306
 Alpha  occ. eigenvalues --   -0.96407  -0.91119  -0.91084  -0.82850  -0.82412
 Alpha  occ. eigenvalues --   -0.81570  -0.80529  -0.80028  -0.79366  -0.77857
 Alpha  occ. eigenvalues --   -0.77668  -0.76461  -0.74746  -0.74277  -0.72665
 Alpha  occ. eigenvalues --   -0.71668  -0.69582  -0.68987  -0.68642  -0.68070
 Alpha  occ. eigenvalues --   -0.67463  -0.65066  -0.63767  -0.61898  -0.61454
 Alpha  occ. eigenvalues --   -0.60390  -0.59940  -0.58254  -0.57004  -0.55976
 Alpha  occ. eigenvalues --   -0.55579  -0.55196  -0.54416  -0.53660  -0.52338
 Alpha  occ. eigenvalues --   -0.51801  -0.51693  -0.51014  -0.50353  -0.49723
 Alpha  occ. eigenvalues --   -0.49255  -0.48782  -0.48399  -0.48246  -0.47805
 Alpha  occ. eigenvalues --   -0.47102  -0.46661  -0.46149  -0.45577  -0.45093
 Alpha  occ. eigenvalues --   -0.44800  -0.44688  -0.44441  -0.44159  -0.43308
 Alpha  occ. eigenvalues --   -0.42999  -0.42834  -0.42452  -0.42285  -0.42081
 Alpha  occ. eigenvalues --   -0.41798  -0.41367  -0.41062  -0.40736  -0.40510
 Alpha  occ. eigenvalues --   -0.40441  -0.39997  -0.39928  -0.39478  -0.39326
 Alpha  occ. eigenvalues --   -0.39116  -0.38748  -0.38724  -0.38020  -0.37842
 Alpha  occ. eigenvalues --   -0.37677  -0.37506  -0.37213  -0.36698  -0.36621
 Alpha  occ. eigenvalues --   -0.36100  -0.35891  -0.35255  -0.34502  -0.34310
 Alpha  occ. eigenvalues --   -0.33771  -0.33462  -0.32974  -0.32789  -0.32429
 Alpha  occ. eigenvalues --   -0.32244  -0.32185  -0.31579  -0.29933  -0.28808
 Alpha  occ. eigenvalues --   -0.28654  -0.27707  -0.26314  -0.25185  -0.24847
 Alpha  occ. eigenvalues --   -0.24749  -0.24234  -0.23752  -0.23325  -0.22200
 Alpha  occ. eigenvalues --   -0.18729
 Alpha virt. eigenvalues --   -0.10275  -0.05777  -0.04037  -0.03303   0.00136
 Alpha virt. eigenvalues --    0.00892   0.01609   0.02041   0.02122   0.02904
 Alpha virt. eigenvalues --    0.03784   0.03860   0.04496   0.04893   0.05576

 Mulliken charges:
               1
     1  O   -0.236052
     2  O   -0.170833
     3  O   -0.096884
     4  O   -0.322497
     5  O   -0.255610
     6  O   -0.201800
     7  N   -0.062287
     8  N   -0.151773
     9  N   -0.187410
    10  N   -0.368916
    11  C   -0.181646
    12  C    0.080407
    13  C   -0.119870
    14  C    0.032235
    15  C   -0.113122
    16  C    0.156026
    17  C   -0.146275
    18  C   -0.055284
    19  C    0.114689
    20  C   -0.072845
    21  C    0.272330
    22  C    0.103983
    23  C    0.011266
    24  C    0.163526
    25  C   -0.188112
    26  C    0.053247
    27  C    0.093134
    28  C   -0.028936
    29  C   -0.180845
    30  C   -0.018775
    31  C   -0.162415
    32  C    0.038760
    33  C   -0.178767
    34  C    0.139364
    35  C   -0.033970
    36  C   -0.196287
    37  C    0.134694
    38  C    0.015861
    39  C    0.130910
    40  C    0.125326
    41  C    0.198853
    42  C    0.027191
    43  C   -0.087652
    44  H    0.141652
    45  H    0.046391
    46  H    0.018850
    47  H    0.018935
    48  H    0.063201
    49  H    0.048881
    50  H   -0.025953
    51  H    0.009249
    52  H    0.156827
    53  H    0.037335
    54  H    0.064125
    55  H    0.000482
    56  H    0.111351
    57  H    0.060744
    58  H    0.089168
    59  H    0.081288
    60  H    0.056663
    61  H    0.042898
    62  H    0.048168
    63  H    0.055139
    64  H   -0.016577
    65  H    0.026109
    66  H    0.039566
    67  H    0.018119
    68  H    0.051744
    69  H    0.059516
    70  H   -0.010703
    71  H    0.038695
    72  H   -0.001148
    73  H    0.006647
    74  H    0.025760
    75  H    0.022014
    76  H    0.033969
    77  H    0.023439
    78  H    0.014930
    79  H    0.054367
    80  H    0.233077
    81  H    0.182149
 Sum of Mulliken charges =  -0.00000

 Dipole moment (field-independent basis, Debye):
    X=              2.7335    Y=              1.0825    Z=              0.3053  Tot=              2.9559
 Quadrupole moment (field-independent basis, Debye-Ang):
   XX=           -255.1366   YY=           -233.9367   ZZ=           -256.4737
   XY=            -20.9889   XZ=             24.9958   YZ=             14.4576

 Normal termination of Gaussian 16 at Tue Jul  2 07:02:30 2019.
