 Gaussian 16, Revision A.03,
 Gaussian 16:  ES64L-G16RevA.03 25-Dec-2016

 --------------------------
 # td=(NStates=1) B3LYP/SVP
 --------------------------

 --
 TD
 --
 Symbolic Z-matrix:
 Charge =  0 Multiplicity = 1

                         Standard orientation:
 ---------------------------------------------------------------------
 Center     Atomic      Atomic             Coordinates (Angstroms)
 Number     Number       Type             X           Y           Z
 ---------------------------------------------------------------------
      1          8           0        4.740753   -4.770094   -1.652323
      2          8           0       -3.037152   -4.842068   -1.398993
      3          8           0       -7.287945   -1.303948   -1.914770
      4          8           0       -3.557377   -3.078359   -0.159654
      5          8           0       -7.573839   -0.906735    0.327952
      6          8           0        2.964178    2.434066   -0.016339
      7          7           0        0.266195   -0.625855    0.519581
      8          7           0       -1.598685    1.720175    0.444107
      9          7           0        3.509714   -3.044877   -0.797409
     10          7           0        0.692007    2.872968    0.060293
     11          6           0       -0.555702   -2.435146    1.399663
     12          6           0       -0.910023   -1.219779    0.946320
     13          6           0        0.834707   -2.679971    1.318681
     14          6           0        1.369539   -1.424906    0.792598
     15          6           0       -3.855802    1.352259    0.373486
     16          6           0       -2.525329    0.689741    0.615515
     17          6           0       -2.168679   -0.554307    0.865295
     18          6           0       -3.678402    2.666226   -0.053891
     19          6           0       -1.591776   -3.511926    1.801877
     20          6           0        5.761155   -2.420605   -1.269925
     21          6           0        3.663956   -1.831478   -0.151209
     22          6           0       -2.284652    2.861646   -0.023336
     23          6           0        5.039112   -1.414114   -0.386947
     24          6           0       -5.164260    0.516043    0.566957
     25          6           0        2.655719   -1.004960    0.429329
     26          6           0        1.560435   -3.847367    1.802978
     27          6           0        4.653880   -3.588925   -1.308788
     28          6           0       -1.918756   -4.592868    0.790149
     29          6           0       -5.475092   -0.037308   -0.835181
     30          6           0       -4.703924    3.823288   -0.282367
     31          6           0       -1.477639    3.950620   -0.207626
     32          6           0        7.092782   -2.868693   -1.043535
     33          6           0        5.809924   -0.429816    0.198481
     34          6           0       -0.068008    4.016478   -0.212701
     35          6           0        0.894488    5.164108   -0.489595
     36          6           0        2.150527    4.698393   -0.321313
     37          6           0       -2.908687   -4.113065   -0.246124
     38          6           0        5.599082    0.610440    1.227815
     39          6           0       -6.859412   -0.839665   -0.701548
     40          6           0        3.466268    5.364405   -0.386370
     41          6           0        2.048322    3.284039   -0.021624
     42          6           0        0.484000    6.482984   -0.890021
     43          6           0        4.066769    5.756181    0.944546
     44          1           0        0.494721    0.410582    0.370204
     45          1           0       -3.017986   -1.405615    0.757192
     46          1           0       -2.468936   -2.940949    2.266935
     47          1           0       -1.215379   -3.954658    2.729536
     48          1           0        5.620770   -1.858735   -2.371216
     49          1           0       -5.037938   -0.373359    1.236844
     50          1           0       -5.943971    1.122355    1.075965
     51          1           0        2.777250    0.007893    0.391065
     52          1           0       -0.594148    1.729602    0.483674
     53          1           0        1.724500   -4.773116    1.016962
     54          1           0        2.708429   -3.339030    2.061810
     55          1           0        1.025213   -4.389641    2.672653
     56          1           0        2.784863   -3.562248   -0.605379
     57          1           0       -1.047972   -5.012038    0.269976
     58          1           0       -2.404402   -5.466322    1.184790
     59          1           0       -4.642302   -0.949009   -1.161051
     60          1           0       -5.565516    0.671883   -1.677741
     61          1           0       -4.284318    4.953414    0.004289
     62          1           0       -5.761899    3.449641    0.190294
     63          1           0       -4.727134    3.949477   -1.347198
     64          1           0       -1.913794    4.839911   -0.505533
     65          1           0        8.087425   -2.297565   -1.194232
     66          1           0        7.393095   -3.859997   -1.602320
     67          1           0        7.049760   -3.589005   -0.110968
     68          1           0        6.836850   -0.346231   -0.274523
     69          1           0        4.999674    1.542694    0.720296
     70          1           0        6.513425    1.158260    1.525072
     71          1           0        4.933260    0.249850    2.031954
     72          1           0        3.622545    6.126980   -1.288204
     73          1           0        4.199617    4.422009   -0.845866
     74          1           0       -0.239322    6.368220   -1.718126
     75          1           0        1.373091    7.163330   -0.989572
     76          1           0       -0.003138    6.990501   -0.006662
     77          1           0        3.488722    6.304531    1.358775
     78          1           0        4.959954    6.300201    0.650936
     79          1           0        4.144818    5.230828    1.823071
     80          1           0       -3.769636   -4.688391   -2.084556
     81          1           0       -8.200892   -1.437745   -1.561666
 ---------------------------------------------------------------------

 SCF Done:  E(RB3LYP) =  -1949.04010570     A.U. after   16 cycles

 Excitation energies and oscillator strengths:

 Excited State   1:      Singlet-A      1.7681 eV  701.21 nm  f=0.3133  <S**2>=0.000
     156 ->157         0.70780
     156 <-157        -0.10770
 This state for optimization and/or second-order correction.
 Total Energy, E(TD-HF/TD-DFT) =  -1948.97512739
 Copying the excited state density for this state as the 1-particle RhoCI density.

 The electronic state is 1-A.
 Alpha  occ. eigenvalues --  -19.19330 -19.18668 -19.13903 -19.13890 -19.11521
 Alpha  occ. eigenvalues --  -19.09858 -14.36851 -14.36489 -14.34641 -14.28534
 Alpha  occ. eigenvalues --  -10.34029 -10.33176 -10.29842 -10.25672 -10.24794
 Alpha  occ. eigenvalues --  -10.23672 -10.23094 -10.22929 -10.22922 -10.22779
 Alpha  occ. eigenvalues --  -10.22545 -10.22485 -10.22478 -10.22014 -10.21973
 Alpha  occ. eigenvalues --  -10.21765 -10.21103 -10.21092 -10.20975 -10.20627
 Alpha  occ. eigenvalues --  -10.20096 -10.20079 -10.19980 -10.19933 -10.19773
 Alpha  occ. eigenvalues --  -10.19690 -10.19014 -10.18677 -10.18562 -10.18121
 Alpha  occ. eigenvalues --  -10.18069 -10.17923 -10.15312  -1.09964  -1.09170
 Alpha  occ. eigenvalues --   -1.03468  -1.00263  -0.99638  -0.99510  -0.97279
 Alpha  occ. eigenvalues --   -0.96287  -0.96035  -0.89662  -0.82118  -0.81939
 Alpha  occ. eigenvalues --   -0.81397  -0.81282  -0.79916  -0.78674  -0.77971
 Alpha  occ. eigenvalues --   -0.76644  -0.76473  -0.75852  -0.74319  -0.72399
 Alpha  occ. eigenvalues --   -0.70540  -0.70207  -0.70102  -0.68247  -0.67321
 Alpha  occ. eigenvalues --   -0.66725  -0.65097  -0.64279  -0.63081  -0.62384
 Alpha  occ. eigenvalues --   -0.61690  -0.58548  -0.57841  -0.57500  -0.56311
 Alpha  occ. eigenvalues --   -0.55839  -0.55347  -0.54576  -0.53107  -0.52843
 Alpha  occ. eigenvalues --   -0.51910  -0.51804  -0.50832  -0.50024  -0.49649
 Alpha  occ. eigenvalues --   -0.49338  -0.48904  -0.48491  -0.48116  -0.47415
 Alpha  occ. eigenvalues --   -0.46988  -0.46599  -0.45686  -0.45510  -0.45047
 Alpha  occ. eigenvalues --   -0.44679  -0.44438  -0.44276  -0.43831  -0.43637
 Alpha  occ. eigenvalues --   -0.43245  -0.42560  -0.42330  -0.42254  -0.41970
 Alpha  occ. eigenvalues --   -0.41844  -0.41541  -0.41444  -0.41002  -0.40625
 Alpha  occ. eigenvalues --   -0.40413  -0.40309  -0.40017  -0.39443  -0.39304
 Alpha  occ. eigenvalues --   -0.38787  -0.38680  -0.38579  -0.38466  -0.38151
 Alpha  occ. eigenvalues --   -0.37922  -0.37661  -0.37188  -0.37057  -0.36686
 Alpha  occ. eigenvalues --   -0.36211  -0.35970  -0.35381  -0.34605  -0.34391
 Alpha  occ. eigenvalues --   -0.33895  -0.33793  -0.33292  -0.32876  -0.32683
 Alpha  occ. eigenvalues --   -0.32441  -0.30249  -0.30061  -0.29235  -0.29066
 Alpha  occ. eigenvalues --   -0.28821  -0.26951  -0.26405  -0.26172  -0.25319
 Alpha  occ. eigenvalues --   -0.24808  -0.24153  -0.24012  -0.22897  -0.20584
 Alpha  occ. eigenvalues --   -0.17285
 Alpha virt. eigenvalues --   -0.10140  -0.06075  -0.04216  -0.01840  -0.01338
 Alpha virt. eigenvalues --   -0.00583   0.02117   0.02780   0.03033   0.03149
 Alpha virt. eigenvalues --    0.04144   0.04710   0.04977   0.05853   0.06477

 Mulliken charges:
               1
     1  O   -0.218956
     2  O   -0.243136
     3  O   -0.184567
     4  O   -0.233708
     5  O   -0.277882
     6  O   -0.235395
     7  N   -0.131875
     8  N   -0.127013
     9  N    0.014097
    10  N   -0.357360
    11  C   -0.117480
    12  C    0.062466
    13  C   -0.093622
    14  C    0.041656
    15  C   -0.108571
    16  C    0.126414
    17  C   -0.120782
    18  C   -0.100825
    19  C    0.085128
    20  C   -0.070725
    21  C    0.065942
    22  C    0.145760
    23  C   -0.058607
    24  C    0.107445
    25  C   -0.042177
    26  C   -0.078870
    27  C    0.110306
    28  C    0.101045
    29  C   -0.093827
    30  C    0.043558
    31  C   -0.087578
    32  C    0.007829
    33  C   -0.129462
    34  C    0.068668
    35  C   -0.094561
    36  C   -0.126555
    37  C    0.135905
    38  C    0.036203
    39  C    0.186535
    40  C   -0.070098
    41  C    0.177057
    42  C    0.103458
    43  C    0.208222
    44  H    0.167737
    45  H    0.083316
    46  H    0.020217
    47  H   -0.010755
    48  H    0.061260
    49  H    0.030436
    50  H    0.031775
    51  H   -0.032288
    52  H    0.106363
    53  H    0.043346
    54  H    0.065874
    55  H    0.035435
    56  H    0.059910
    57  H    0.037184
    58  H    0.031341
    59  H    0.094659
    60  H    0.050510
    61  H    0.054138
    62  H    0.060540
    63  H    0.020355
    64  H   -0.088234
    65  H    0.049666
    66  H    0.027420
    67  H    0.013387
    68  H    0.003352
    69  H    0.087717
    70  H    0.012652
    71  H    0.031670
    72  H    0.028893
    73  H    0.030967
    74  H    0.038627
    75  H    0.015203
    76  H    0.022279
    77  H   -0.097323
    78  H    0.006614
    79  H   -0.014166
    80  H    0.224939
    81  H    0.170924
 Sum of Mulliken charges =  -0.00000

 Dipole moment (field-independent basis, Debye):
    X=             -3.5242    Y=              1.4603    Z=             -0.5109  Tot=              3.8488
 Quadrupole moment (field-independent basis, Debye-Ang):
   XX=           -246.7242   YY=           -231.0484   ZZ=           -255.4171
   XY=             16.0198   XZ=             17.7249   YZ=             -8.8946

 Normal termination of Gaussian 16 at Fri Jul  5 14:47:42 2019.
