 Gaussian 16, Revision A.03,
 Gaussian 16:  ES64L-G16RevA.03 25-Dec-2016

 --------------------------
 # td=(NStates=1) B3LYP/SVP
 --------------------------

 --
 TD
 --
 Symbolic Z-matrix:
 Charge =  0 Multiplicity = 1

                         Standard orientation:
 ---------------------------------------------------------------------
 Center     Atomic      Atomic             Coordinates (Angstroms)
 Number     Number       Type             X           Y           Z
 ---------------------------------------------------------------------
      1          8           0        4.507652   -4.736729   -1.921290
      2          8           0       -3.278159   -4.872325   -1.304524
      3          8           0       -7.373767   -1.197186   -1.749375
      4          8           0       -3.785872   -2.948304   -0.040641
      5          8           0       -7.581755   -0.570035    0.371862
      6          8           0        3.079736    2.289724    0.120296
      7          7           0        0.300922   -0.599573    0.533509
      8          7           0       -1.480007    1.787789    0.281814
      9          7           0        3.436828   -3.168137   -0.684656
     10          7           0        0.832376    2.923477    0.104535
     11          6           0       -0.690724   -2.548370    1.283110
     12          6           0       -0.999618   -1.221588    0.932577
     13          6           0        0.705455   -2.633277    1.240050
     14          6           0        1.323497   -1.513135    0.793855
     15          6           0       -3.809774    1.488462    0.227371
     16          6           0       -2.488524    0.839410    0.495072
     17          6           0       -2.305467   -0.457699    0.832689
     18          6           0       -3.568533    2.768037   -0.131024
     19          6           0       -1.719692   -3.386194    1.910634
     20          6           0        5.604393   -2.678965   -1.345761
     21          6           0        3.619487   -1.948085   -0.104193
     22          6           0       -2.038241    2.953282   -0.041968
     23          6           0        5.006201   -1.555386   -0.334116
     24          6           0       -5.129437    0.851217    0.385183
     25          6           0        2.713733   -1.087758    0.380369
     26          6           0        1.309821   -3.864549    1.727676
     27          6           0        4.473464   -3.738587   -1.303301
     28          6           0       -2.122992   -4.495173    0.901519
     29          6           0       -5.424257   -0.106179   -0.820150
     30          6           0       -4.347813    3.964589   -0.440740
     31          6           0       -1.193742    4.071165   -0.258081
     32          6           0        6.920305   -3.391761   -0.971269
     33          6           0        5.838214   -0.680913    0.279292
     34          6           0        0.179398    3.997127   -0.182259
     35          6           0        1.209194    5.161220   -0.531761
     36          6           0        2.423357    4.554678   -0.447430
     37          6           0       -3.123971   -3.985967   -0.165185
     38          6           0        5.486396    0.413689    1.126100
     39          6           0       -6.826249   -0.683980   -0.634878
     40          6           0        3.680998    5.375063   -0.326107
     41          6           0        2.186113    3.129199    0.035979
     42          6           0        0.653370    6.462158   -0.848676
     43          6           0        4.179204    5.725813    1.095960
     44          1           0        0.361247    0.283005    0.048230
     45          1           0       -3.063662   -1.192229    1.138465
     46          1           0       -2.506503   -2.875111    2.263686
     47          1           0       -1.059006   -4.047369    2.726444
     48          1           0        5.434767   -2.277465   -2.209444
     49          1           0       -5.046818    0.357750    1.420818
     50          1           0       -5.921434    1.380309    0.548279
     51          1           0        3.016158   -0.007668    0.396988
     52          1           0       -0.611592    1.808453    0.500806
     53          1           0        1.471614   -4.588038    0.666013
     54          1           0        2.342814   -4.000572    2.309154
     55          1           0        0.689735   -4.384580    2.382827
     56          1           0        2.400431   -3.431301   -1.117356
     57          1           0       -1.298649   -4.861370    0.391189
     58          1           0       -2.640716   -5.432975    1.467907
     59          1           0       -4.653782   -0.767373   -0.852473
     60          1           0       -5.441281    0.392279   -1.868466
     61          1           0       -4.209190    4.687763    0.378736
     62          1           0       -5.369533    3.625040   -0.544239
     63          1           0       -4.002636    4.531598   -1.519226
     64          1           0       -1.671024    5.000714   -0.557589
     65          1           0        7.758058   -2.602393   -0.758921
     66          1           0        7.230075   -3.991569   -1.834851
     67          1           0        6.878788   -3.787793   -0.012204
     68          1           0        6.878553   -0.568131   -0.247909
     69          1           0        4.943248    1.180813    0.511003
     70          1           0        6.284995    0.797069    1.956573
     71          1           0        4.759980    0.046804    1.890778
     72          1           0        3.575749    6.291358   -0.832477
     73          1           0        4.521891    4.724853   -1.027417
     74          1           0        0.203242    6.804245   -1.981449
     75          1           0        1.555785    7.223571   -0.670439
     76          1           0       -0.070926    6.761969   -0.081563
     77          1           0        3.638565    6.711990    1.445796
     78          1           0        5.303096    6.093634    1.139533
     79          1           0        3.964769    4.926511    1.834520
     80          1           0       -3.908359   -4.298966   -1.923360
     81          1           0       -8.253359   -1.506120   -1.398632
 ---------------------------------------------------------------------

 SCF Done:  E(RB3LYP) =  -1949.04110215     A.U. after   16 cycles

 Excitation energies and oscillator strengths:

 Excited State   1:      Singlet-A      1.9870 eV  623.98 nm  f=0.2785  <S**2>=0.000
     156 ->157         0.70336
 This state for optimization and/or second-order correction.
 Total Energy, E(TD-HF/TD-DFT) =  -1948.96808185
 Copying the excited state density for this state as the 1-particle RhoCI density.

 The electronic state is 1-A.
 Alpha  occ. eigenvalues --  -19.19757 -19.19212 -19.16017 -19.12934 -19.11095
 Alpha  occ. eigenvalues --  -19.10414 -14.37235 -14.36879 -14.36475 -14.29060
 Alpha  occ. eigenvalues --  -10.34856 -10.33090 -10.27644 -10.27429 -10.25329
 Alpha  occ. eigenvalues --  -10.24731 -10.23293 -10.23084 -10.23073 -10.22931
 Alpha  occ. eigenvalues --  -10.22930 -10.22029 -10.21954 -10.21845 -10.21804
 Alpha  occ. eigenvalues --  -10.21782 -10.21711 -10.21443 -10.20467 -10.20444
 Alpha  occ. eigenvalues --  -10.20351 -10.20131 -10.19891 -10.19435 -10.19226
 Alpha  occ. eigenvalues --  -10.19160 -10.18972 -10.18807 -10.18641 -10.18590
 Alpha  occ. eigenvalues --  -10.18397 -10.18156 -10.17653  -1.10185  -1.07983
 Alpha  occ. eigenvalues --   -1.05170  -1.01808  -1.00376  -1.00344  -0.98454
 Alpha  occ. eigenvalues --   -0.96128  -0.95064  -0.93227  -0.84469  -0.83197
 Alpha  occ. eigenvalues --   -0.81132  -0.80311  -0.80111  -0.78984  -0.78465
 Alpha  occ. eigenvalues --   -0.77535  -0.76400  -0.74882  -0.74149  -0.73087
 Alpha  occ. eigenvalues --   -0.71753  -0.70055  -0.68748  -0.68551  -0.68113
 Alpha  occ. eigenvalues --   -0.66757  -0.65137  -0.63253  -0.61978  -0.61365
 Alpha  occ. eigenvalues --   -0.60489  -0.60077  -0.59283  -0.58238  -0.57897
 Alpha  occ. eigenvalues --   -0.57121  -0.56206  -0.54318  -0.53830  -0.53395
 Alpha  occ. eigenvalues --   -0.52167  -0.51541  -0.51077  -0.50467  -0.50210
 Alpha  occ. eigenvalues --   -0.49316  -0.48914  -0.48117  -0.47765  -0.47308
 Alpha  occ. eigenvalues --   -0.46914  -0.46780  -0.46231  -0.45533  -0.45335
 Alpha  occ. eigenvalues --   -0.45159  -0.44652  -0.44371  -0.44245  -0.44189
 Alpha  occ. eigenvalues --   -0.43526  -0.43454  -0.42826  -0.42749  -0.42532
 Alpha  occ. eigenvalues --   -0.41900  -0.41724  -0.41439  -0.41061  -0.40991
 Alpha  occ. eigenvalues --   -0.40714  -0.40598  -0.40396  -0.40241  -0.40136
 Alpha  occ. eigenvalues --   -0.39676  -0.39576  -0.39432  -0.39152  -0.38468
 Alpha  occ. eigenvalues --   -0.38189  -0.37993  -0.37610  -0.37283  -0.37001
 Alpha  occ. eigenvalues --   -0.36434  -0.35634  -0.35244  -0.34856  -0.34667
 Alpha  occ. eigenvalues --   -0.34354  -0.34105  -0.33948  -0.33686  -0.32131
 Alpha  occ. eigenvalues --   -0.31954  -0.31507  -0.30826  -0.30600  -0.29932
 Alpha  occ. eigenvalues --   -0.28527  -0.27332  -0.26986  -0.26346  -0.25543
 Alpha  occ. eigenvalues --   -0.24785  -0.24388  -0.24219  -0.23624  -0.21693
 Alpha  occ. eigenvalues --   -0.18464
 Alpha virt. eigenvalues --   -0.10108  -0.05861  -0.03894  -0.03299  -0.01662
 Alpha virt. eigenvalues --    0.00555   0.01074   0.02131   0.02403   0.02582
 Alpha virt. eigenvalues --    0.03584   0.04419   0.05035   0.05382   0.05825

 Mulliken charges:
               1
     1  O   -0.172198
     2  O   -0.279130
     3  O   -0.179533
     4  O   -0.240505
     5  O   -0.293724
     6  O   -0.208475
     7  N   -0.171254
     8  N    0.055972
     9  N   -0.110755
    10  N   -0.238889
    11  C   -0.070651
    12  C   -0.032508
    13  C   -0.152390
    14  C    0.131664
    15  C   -0.094099
    16  C    0.170268
    17  C   -0.049225
    18  C   -0.090755
    19  C    0.118067
    20  C   -0.023998
    21  C    0.119609
    22  C    0.016032
    23  C   -0.078954
    24  C    0.150968
    25  C   -0.130280
    26  C    0.007086
    27  C    0.046656
    28  C    0.020000
    29  C    0.036943
    30  C    0.058363
    31  C   -0.111929
    32  C    0.117914
    33  C   -0.143323
    34  C    0.051601
    35  C   -0.020343
    36  C   -0.198284
    37  C    0.185314
    38  C    0.010178
    39  C    0.165115
    40  C    0.032057
    41  C    0.170058
    42  C   -0.001859
    43  C   -0.034697
    44  H    0.122358
    45  H    0.012477
    46  H   -0.015553
    47  H    0.039651
    48  H   -0.025303
    49  H    0.035228
    50  H   -0.058395
    51  H    0.041503
    52  H    0.039815
    53  H    0.021115
    54  H    0.044464
    55  H   -0.024550
    56  H    0.185481
    57  H    0.018027
    58  H    0.071711
    59  H    0.014131
    60  H    0.051457
    61  H    0.044617
    62  H    0.015637
    63  H    0.052617
    64  H   -0.035708
    65  H    0.003145
    66  H    0.038837
    67  H   -0.009287
    68  H    0.020602
    69  H    0.091913
    70  H    0.019258
    71  H    0.016239
    72  H   -0.007564
    73  H    0.026726
    74  H    0.068141
    75  H    0.019123
    76  H    0.030093
    77  H    0.013455
    78  H    0.033581
    79  H    0.038714
    80  H    0.219575
    81  H    0.190562
 Sum of Mulliken charges =  -0.00000

 Dipole moment (field-independent basis, Debye):
    X=             -4.6226    Y=              2.5299    Z=             -0.3770  Tot=              5.2831
 Quadrupole moment (field-independent basis, Debye-Ang):
   XX=           -261.7745   YY=           -242.5951   ZZ=           -254.2739
   XY=             13.3312   XZ=             16.3195   YZ=            -12.0971

 Normal termination of Gaussian 16 at Sat Jun 29 11:48:47 2019.
