 Gaussian 16, Revision A.03,
 Gaussian 16:  ES64L-G16RevA.03 25-Dec-2016

 --------------------------
 # td=(NStates=1) B3LYP/SVP
 --------------------------

 --
 TD
 --
 Symbolic Z-matrix:
 Charge =  0 Multiplicity = 1

                         Standard orientation:
 ---------------------------------------------------------------------
 Center     Atomic      Atomic             Coordinates (Angstroms)
 Number     Number       Type             X           Y           Z
 ---------------------------------------------------------------------
      1          8           0        4.521813   -4.843054   -1.651985
      2          8           0       -3.011764   -4.872445   -1.214320
      3          8           0       -7.043417   -1.420153   -1.879658
      4          8           0       -3.777994   -3.139489   -0.157471
      5          8           0       -7.574187   -0.416959    0.150040
      6          8           0        3.008933    2.383480    0.195551
      7          7           0        0.268099   -0.613270    0.398211
      8          7           0       -1.544777    1.838274    0.260853
      9          7           0        3.351816   -3.105549   -0.562081
     10          7           0        0.744790    2.848892    0.005454
     11          6           0       -0.685453   -2.501391    1.273186
     12          6           0       -1.045450   -1.138345    0.781018
     13          6           0        0.720303   -2.740495    1.215189
     14          6           0        1.259619   -1.504512    0.650253
     15          6           0       -3.745660    1.458876    0.392295
     16          6           0       -2.486336    0.871763    0.465250
     17          6           0       -2.238855   -0.505083    0.711144
     18          6           0       -3.512535    2.852287    0.137692
     19          6           0       -1.648874   -3.500982    1.850662
     20          6           0        5.527513   -2.680663   -1.216200
     21          6           0        3.572202   -1.844037   -0.060277
     22          6           0       -2.083533    2.971712    0.040550
     23          6           0        4.957322   -1.520349   -0.364518
     24          6           0       -5.039752    0.789535    0.371659
     25          6           0        2.624095   -1.130513    0.437103
     26          6           0        1.429877   -3.944835    1.904083
     27          6           0        4.520350   -3.709790   -1.235523
     28          6           0       -2.142015   -4.563187    0.796862
     29          6           0       -5.266953   -0.154407   -0.857434
     30          6           0       -4.479071    3.976576   -0.132037
     31          6           0       -1.236623    4.154789   -0.165133
     32          6           0        6.982401   -3.257935   -1.021400
     33          6           0        5.735612   -0.508136    0.155560
     34          6           0        0.058722    4.049216   -0.231825
     35          6           0        1.033172    5.191488   -0.491900
     36          6           0        2.223410    4.639420   -0.363910
     37          6           0       -3.064655   -4.092879   -0.149312
     38          6           0        5.294099    0.379751    1.159121
     39          6           0       -6.763670   -0.752365   -0.678530
     40          6           0        3.574538    5.345549   -0.497788
     41          6           0        2.088463    3.157613   -0.013540
     42          6           0        0.594001    6.640666   -0.606885
     43          6           0        4.539067    5.665485    0.731885
     44          1           0        0.360830    0.325578   -0.033216
     45          1           0       -3.069259   -1.151757    0.924355
     46          1           0       -2.635168   -2.912696    2.025309
     47          1           0       -1.351446   -3.975921    2.828598
     48          1           0        5.605925   -2.241585   -2.300799
     49          1           0       -5.288121    0.094280    1.304391
     50          1           0       -5.727683    1.739622    0.494716
     51          1           0        2.839242   -0.029468    0.364661
     52          1           0       -0.434151    2.006304    0.326812
     53          1           0        1.565853   -4.833390    1.233559
     54          1           0        2.550019   -3.648258    1.950077
     55          1           0        0.826339   -4.130305    2.794866
     56          1           0        2.433651   -3.551948   -0.675374
     57          1           0       -1.327224   -4.872238    0.401643
     58          1           0       -2.692182   -5.436768    1.384819
     59          1           0       -4.602069   -0.885679   -0.814862
     60          1           0       -5.310839    0.134915   -1.850088
     61          1           0       -4.376269    4.664249    0.628846
     62          1           0       -5.543727    3.825163   -0.024994
     63          1           0       -4.450287    4.493015   -1.112399
     64          1           0       -1.728351    5.058257   -0.300262
     65          1           0        7.753591   -2.430820   -1.090121
     66          1           0        7.279544   -3.989571   -1.817244
     67          1           0        6.978051   -3.679126   -0.103957
     68          1           0        6.654919   -0.465765   -0.269009
     69          1           0        4.844307    1.300671    0.733625
     70          1           0        6.143872    0.742634    1.832777
     71          1           0        4.541066   -0.093611    1.841384
     72          1           0        3.286703    6.316923   -1.102866
     73          1           0        4.203154    4.690272   -1.320157
     74          1           0        0.026989    6.737820   -1.473722
     75          1           0        1.452633    7.402763   -0.786244
     76          1           0        0.195561    7.167768    0.359019
     77          1           0        4.022855    6.305582    1.529416
     78          1           0        5.417075    6.315420    0.308032
     79          1           0        4.693440    4.736113    1.313937
     80          1           0       -3.778944   -4.683062   -1.817007
     81          1           0       -7.858453   -1.923772   -1.866629
 ---------------------------------------------------------------------

 SCF Done:  E(RB3LYP) =  -1949.15470159     A.U. after   17 cycles

 Excitation energies and oscillator strengths:

 Excited State   1:      Singlet-A      2.0053 eV  618.27 nm  f=0.4159  <S**2>=0.000
     156 ->157         0.70258
     156 <-157        -0.10515
 This state for optimization and/or second-order correction.
 Total Energy, E(TD-HF/TD-DFT) =  -1949.08100638
 Copying the excited state density for this state as the 1-particle RhoCI density.

 The electronic state is 1-A.
 Alpha  occ. eigenvalues --  -19.19093 -19.17336 -19.14030 -19.13528 -19.12568
 Alpha  occ. eigenvalues --  -19.08411 -14.38555 -14.36545 -14.33713 -14.27931
 Alpha  occ. eigenvalues --  -10.32836 -10.32266 -10.30189 -10.25390 -10.25144
 Alpha  occ. eigenvalues --  -10.23884 -10.23872 -10.22173 -10.21918 -10.21807
 Alpha  occ. eigenvalues --  -10.21806 -10.21760 -10.21696 -10.21366 -10.21265
 Alpha  occ. eigenvalues --  -10.21191 -10.20511 -10.20488 -10.20455 -10.19937
 Alpha  occ. eigenvalues --  -10.19727 -10.19707 -10.19512 -10.19042 -10.19038
 Alpha  occ. eigenvalues --  -10.18692 -10.18661 -10.18573 -10.18001 -10.17811
 Alpha  occ. eigenvalues --  -10.17608 -10.17512 -10.16523  -1.12600  -1.07636
 Alpha  occ. eigenvalues --   -1.04546  -1.02439  -1.00629  -0.99811  -0.99088
 Alpha  occ. eigenvalues --   -0.97071  -0.95328  -0.89855  -0.83494  -0.82205
 Alpha  occ. eigenvalues --   -0.81992  -0.80784  -0.79288  -0.79080  -0.78142
 Alpha  occ. eigenvalues --   -0.77077  -0.76022  -0.75794  -0.73278  -0.72004
 Alpha  occ. eigenvalues --   -0.71190  -0.70431  -0.69302  -0.68351  -0.67932
 Alpha  occ. eigenvalues --   -0.66681  -0.66233  -0.64778  -0.61806  -0.61311
 Alpha  occ. eigenvalues --   -0.60582  -0.59849  -0.58362  -0.57420  -0.57297
 Alpha  occ. eigenvalues --   -0.56309  -0.54818  -0.54615  -0.54307  -0.53413
 Alpha  occ. eigenvalues --   -0.53132  -0.51891  -0.51117  -0.50893  -0.49941
 Alpha  occ. eigenvalues --   -0.49469  -0.48684  -0.48395  -0.47951  -0.47499
 Alpha  occ. eigenvalues --   -0.47053  -0.46523  -0.45673  -0.45174  -0.44888
 Alpha  occ. eigenvalues --   -0.44597  -0.44301  -0.43938  -0.43639  -0.43446
 Alpha  occ. eigenvalues --   -0.43268  -0.43134  -0.42587  -0.42510  -0.41976
 Alpha  occ. eigenvalues --   -0.41753  -0.41452  -0.41158  -0.40917  -0.40750
 Alpha  occ. eigenvalues --   -0.40539  -0.40218  -0.40105  -0.39978  -0.39602
 Alpha  occ. eigenvalues --   -0.39208  -0.38790  -0.38671  -0.38462  -0.38451
 Alpha  occ. eigenvalues --   -0.38125  -0.37695  -0.37134  -0.36833  -0.36590
 Alpha  occ. eigenvalues --   -0.36295  -0.36009  -0.35691  -0.35331  -0.34741
 Alpha  occ. eigenvalues --   -0.34641  -0.34162  -0.33878  -0.33357  -0.32794
 Alpha  occ. eigenvalues --   -0.32285  -0.32021  -0.31198  -0.30283  -0.30050
 Alpha  occ. eigenvalues --   -0.28173  -0.27639  -0.26844  -0.25908  -0.25885
 Alpha  occ. eigenvalues --   -0.24900  -0.23398  -0.23190  -0.23073  -0.21369
 Alpha  occ. eigenvalues --   -0.17895
 Alpha virt. eigenvalues --   -0.09949  -0.04607  -0.03244  -0.01749  -0.01392
 Alpha virt. eigenvalues --   -0.00221   0.02457   0.03279   0.03641   0.04102
 Alpha virt. eigenvalues --    0.04693   0.05504   0.06111   0.06153   0.06415

 Mulliken charges:
               1
     1  O   -0.181979
     2  O   -0.177283
     3  O   -0.233286
     4  O   -0.200089
     5  O   -0.201713
     6  O   -0.232414
     7  N   -0.110059
     8  N   -0.042044
     9  N   -0.204271
    10  N   -0.353448
    11  C   -0.101107
    12  C    0.109294
    13  C   -0.174126
    14  C    0.073216
    15  C   -0.059270
    16  C    0.074991
    17  C   -0.053378
    18  C   -0.131367
    19  C    0.019205
    20  C   -0.082757
    21  C    0.156276
    22  C   -0.032582
    23  C   -0.060423
    24  C    0.019359
    25  C   -0.164509
    26  C    0.090883
    27  C    0.146280
    28  C    0.117805
    29  C    0.096292
    30  C    0.127660
    31  C   -0.093694
    32  C    0.076376
    33  C   -0.051499
    34  C    0.133794
    35  C   -0.055883
    36  C   -0.170550
    37  C    0.072084
    38  C    0.058654
    39  C    0.159511
    40  C   -0.025776
    41  C    0.167646
    42  C    0.077359
    43  C   -0.012487
    44  H    0.151827
    45  H   -0.005990
    46  H    0.021391
    47  H    0.026804
    48  H    0.068390
    49  H    0.035639
    50  H    0.032393
    51  H    0.038395
    52  H    0.177084
    53  H    0.027792
    54  H    0.041596
    55  H    0.039061
    56  H    0.133430
    57  H   -0.032500
    58  H    0.070165
    59  H   -0.020297
    60  H    0.011727
    61  H   -0.008917
    62  H   -0.014867
    63  H    0.024564
    64  H   -0.068153
    65  H    0.021576
    66  H    0.040728
    67  H   -0.001448
    68  H   -0.057069
    69  H    0.084670
    70  H    0.010683
    71  H    0.034013
    72  H    0.006382
    73  H    0.025964
    74  H    0.009346
    75  H    0.005453
    76  H    0.048298
    77  H    0.008954
    78  H    0.039129
    79  H    0.038163
    80  H    0.194546
    81  H    0.170391
 Sum of Mulliken charges =  -0.00000

 Dipole moment (field-independent basis, Debye):
    X=             -1.2220    Y=             -2.8927    Z=             -0.4825  Tot=              3.1770
 Quadrupole moment (field-independent basis, Debye-Ang):
   XX=           -245.7433   YY=           -235.8361   ZZ=           -251.7565
   XY=             18.2157   XZ=             11.6544   YZ=             -9.1469

 Normal termination of Gaussian 16 at Tue Jul  2 10:01:23 2019.
