 Gaussian 16, Revision A.03,
 Gaussian 16:  ES64L-G16RevA.03 25-Dec-2016

 --------------------------
 # td=(NStates=1) B3LYP/SVP
 --------------------------

 --
 TD
 --
 Symbolic Z-matrix:
 Charge =  0 Multiplicity = 1

                         Standard orientation:
 ---------------------------------------------------------------------
 Center     Atomic      Atomic             Coordinates (Angstroms)
 Number     Number       Type             X           Y           Z
 ---------------------------------------------------------------------
      1          8           0       -4.599811   -4.668560    1.984310
      2          8           0        2.988809   -4.713128    1.318543
      3          8           0        7.027493   -1.696696    1.826775
      4          8           0        3.831564   -3.112354    0.019428
      5          8           0        7.648216   -0.450648   -0.021041
      6          8           0       -2.951621    2.348099   -0.165535
      7          7           0       -0.322182   -0.508225   -0.614720
      8          7           0        1.569747    1.782611   -0.397227
      9          7           0       -3.373599   -3.023992    0.741711
     10          7           0       -0.719666    2.861254   -0.113065
     11          6           0        0.602353   -2.475077   -1.374798
     12          6           0        0.891735   -1.073844   -0.991730
     13          6           0       -0.809031   -2.618957   -1.290559
     14          6           0       -1.357548   -1.437737   -0.802258
     15          6           0        3.802238    1.387321   -0.303993
     16          6           0        2.510423    0.834360   -0.619453
     17          6           0        2.168182   -0.463082   -0.955206
     18          6           0        3.580142    2.696081    0.005207
     19          6           0        1.564981   -3.504912   -1.861202
     20          6           0       -5.569331   -2.490982    1.301020
     21          6           0       -3.679108   -1.791112    0.093243
     22          6           0        2.156640    2.960535   -0.028363
     23          6           0       -5.014475   -1.481165    0.367554
     24          6           0        5.163674    0.705547   -0.357352
     25          6           0       -2.758405   -1.017165   -0.556924
     26          6           0       -1.565308   -3.870874   -1.691306
     27          6           0       -4.524876   -3.609469    1.389061
     28          6           0        2.048833   -4.621545   -0.889628
     29          6           0        5.386226   -0.292605    0.753609
     30          6           0        4.652079    3.812776    0.357446
     31          6           0        1.399326    4.086222    0.213717
     32          6           0       -7.037305   -3.075838    0.962894
     33          6           0       -5.837106   -0.437111   -0.125255
     34          6           0       -0.027537    4.011739    0.205258
     35          6           0       -0.988569    5.118263    0.486531
     36          6           0       -2.205764    4.611151    0.381242
     37          6           0        2.978973   -4.079557    0.140608
     38          6           0       -5.527193    0.579564   -1.220816
     39          6           0        6.796074   -0.799460    0.770257
     40          6           0       -3.603737    5.266066    0.505675
     41          6           0       -2.068702    3.160224   -0.040400
     42          6           0       -0.458216    6.407489    0.867360
     43          6           0       -4.256392    5.590545   -0.830625
     44          1           0       -0.666597    0.407484   -0.393418
     45          1           0        3.074264   -1.110758   -1.050141
     46          1           0        2.407529   -2.925361   -2.241442
     47          1           0        1.202265   -4.128930   -2.652097
     48          1           0       -5.692005   -2.280715    2.246360
     49          1           0        5.319287    0.328714   -1.453010
     50          1           0        5.849635    1.542812   -0.558538
     51          1           0       -2.951361    0.186634   -0.750951
     52          1           0        0.429023    1.894902   -0.538129
     53          1           0       -1.485668   -4.732125   -1.020077
     54          1           0       -2.590412   -3.381371   -1.724427
     55          1           0       -1.214457   -4.342353   -2.591311
     56          1           0       -2.499716   -3.451484    0.580878
     57          1           0        1.045448   -4.922813   -0.466439
     58          1           0        2.657129   -5.241271   -1.762059
     59          1           0        4.677735   -1.243817    0.714800
     60          1           0        5.461247    0.383269    1.667569
     61          1           0        4.946070    4.430977   -0.728554
     62          1           0        5.667814    3.199650    0.894817
     63          1           0        4.354077    4.596874    1.261025
     64          1           0        2.144956    4.860438    0.575325
     65          1           0       -7.857004   -2.407415    1.294785
     66          1           0       -6.983009   -3.909394    1.759565
     67          1           0       -6.851714   -3.577078    0.067070
     68          1           0       -6.910754   -0.498432    0.235821
     69          1           0       -5.060023    1.427158   -0.684896
     70          1           0       -6.467467    0.812720   -1.898406
     71          1           0       -4.629097    0.139899   -1.832807
     72          1           0       -3.517201    6.188659    1.005661
     73          1           0       -4.133956    4.601968    1.189051
     74          1           0        0.186433    6.509060    1.739411
     75          1           0       -1.014204    7.405878    0.880038
     76          1           0        0.428109    6.840493    0.179101
     77          1           0       -3.609868    6.271498   -1.116653
     78          1           0       -5.223833    5.905791   -0.801551
     79          1           0       -4.254910    4.711045   -1.701277
     80          1           0        3.773799   -4.320596    1.849247
     81          1           0        7.871469   -2.131600    1.644034
 ---------------------------------------------------------------------

 SCF Done:  E(RB3LYP) =  -1949.10093328     A.U. after   16 cycles

 Excitation energies and oscillator strengths:

 Excited State   1:      Singlet-A      1.8837 eV  658.20 nm  f=0.3656  <S**2>=0.000
     156 ->157         0.70734
     156 <-157        -0.11726
 This state for optimization and/or second-order correction.
 Total Energy, E(TD-HF/TD-DFT) =  -1949.03170948
 Copying the excited state density for this state as the 1-particle RhoCI density.

 The electronic state is 1-A.
 Alpha  occ. eigenvalues --  -19.20663 -19.17501 -19.14114 -19.12792 -19.12109
 Alpha  occ. eigenvalues --  -19.10823 -14.37688 -14.36655 -14.34195 -14.29851
 Alpha  occ. eigenvalues --  -10.34761 -10.31837 -10.29943 -10.26834 -10.24473
 Alpha  occ. eigenvalues --  -10.24442 -10.24067 -10.23999 -10.23744 -10.23445
 Alpha  occ. eigenvalues --  -10.22733 -10.22289 -10.21296 -10.21022 -10.20965
 Alpha  occ. eigenvalues --  -10.20963 -10.20398 -10.20312 -10.20265 -10.20162
 Alpha  occ. eigenvalues --  -10.20090 -10.19978 -10.19951 -10.19913 -10.19595
 Alpha  occ. eigenvalues --  -10.19549 -10.19427 -10.19260 -10.19174 -10.19162
 Alpha  occ. eigenvalues --  -10.18948 -10.18644 -10.17138  -1.10630  -1.07754
 Alpha  occ. eigenvalues --   -1.03357  -1.02711  -1.00081  -0.98423  -0.97785
 Alpha  occ. eigenvalues --   -0.96909  -0.94675  -0.91898  -0.82985  -0.81643
 Alpha  occ. eigenvalues --   -0.81451  -0.80725  -0.80034  -0.79036  -0.77936
 Alpha  occ. eigenvalues --   -0.76728  -0.76559  -0.75754  -0.73631  -0.72320
 Alpha  occ. eigenvalues --   -0.70321  -0.69847  -0.69277  -0.68960  -0.67466
 Alpha  occ. eigenvalues --   -0.66195  -0.64949  -0.64020  -0.62431  -0.61642
 Alpha  occ. eigenvalues --   -0.61421  -0.58995  -0.58566  -0.57794  -0.56850
 Alpha  occ. eigenvalues --   -0.55487  -0.55193  -0.55074  -0.53560  -0.52849
 Alpha  occ. eigenvalues --   -0.52349  -0.52307  -0.51144  -0.50258  -0.49512
 Alpha  occ. eigenvalues --   -0.49206  -0.48917  -0.48714  -0.48199  -0.47515
 Alpha  occ. eigenvalues --   -0.47244  -0.46718  -0.45971  -0.45490  -0.45242
 Alpha  occ. eigenvalues --   -0.44678  -0.44129  -0.44079  -0.43684  -0.43524
 Alpha  occ. eigenvalues --   -0.43401  -0.43066  -0.42731  -0.42541  -0.42415
 Alpha  occ. eigenvalues --   -0.41906  -0.41609  -0.40759  -0.40441  -0.40397
 Alpha  occ. eigenvalues --   -0.39870  -0.39728  -0.39635  -0.39573  -0.39402
 Alpha  occ. eigenvalues --   -0.39104  -0.38972  -0.38740  -0.38584  -0.37902
 Alpha  occ. eigenvalues --   -0.37813  -0.37532  -0.37105  -0.36838  -0.36684
 Alpha  occ. eigenvalues --   -0.36286  -0.35727  -0.34913  -0.34681  -0.34535
 Alpha  occ. eigenvalues --   -0.34284  -0.34077  -0.33409  -0.33234  -0.32717
 Alpha  occ. eigenvalues --   -0.32578  -0.32394  -0.32087  -0.29723  -0.29343
 Alpha  occ. eigenvalues --   -0.28451  -0.27730  -0.26814  -0.26265  -0.25550
 Alpha  occ. eigenvalues --   -0.25319  -0.25022  -0.24785  -0.23784  -0.21466
 Alpha  occ. eigenvalues --   -0.17766
 Alpha virt. eigenvalues --   -0.10327  -0.05904  -0.04674  -0.04187  -0.00240
 Alpha virt. eigenvalues --    0.00325   0.01680   0.02409   0.02915   0.03163
 Alpha virt. eigenvalues --    0.04097   0.04932   0.05329   0.05986   0.06298

 Mulliken charges:
               1
     1  O   -0.201312
     2  O   -0.177714
     3  O   -0.232677
     4  O   -0.311219
     5  O   -0.221031
     6  O   -0.200154
     7  N   -0.084301
     8  N   -0.151904
     9  N   -0.166097
    10  N   -0.342191
    11  C   -0.102019
    12  C    0.124240
    13  C   -0.159045
    14  C   -0.000160
    15  C   -0.081568
    16  C    0.056370
    17  C   -0.084668
    18  C   -0.072958
    19  C    0.088863
    20  C   -0.051814
    21  C    0.138577
    22  C    0.018180
    23  C   -0.002619
    24  C    0.052242
    25  C   -0.189325
    26  C    0.069790
    27  C    0.162397
    28  C   -0.005527
    29  C    0.028396
    30  C   -0.102970
    31  C   -0.092317
    32  C    0.045253
    33  C   -0.130423
    34  C    0.118215
    35  C    0.037503
    36  C   -0.258279
    37  C    0.170641
    38  C    0.007441
    39  C    0.125085
    40  C    0.145993
    41  C    0.165847
    42  C    0.021437
    43  C    0.050264
    44  H    0.130995
    45  H    0.015615
    46  H    0.015003
    47  H   -0.009876
    48  H   -0.010547
    49  H    0.019193
    50  H    0.006325
    51  H    0.098785
    52  H    0.204900
    53  H    0.024283
    54  H    0.052531
    55  H    0.005287
    56  H    0.106837
    57  H    0.053352
    58  H    0.095477
    59  H    0.108123
    60  H    0.044500
    61  H    0.073260
    62  H    0.054837
    63  H    0.062074
    64  H   -0.020693
    65  H    0.041155
    66  H    0.028790
    67  H    0.007681
    68  H    0.004218
    69  H    0.074514
    70  H    0.041609
    71  H    0.041730
    72  H   -0.028862
    73  H    0.006607
    74  H    0.010352
    75  H    0.021183
    76  H    0.010183
    77  H   -0.022517
    78  H   -0.002990
    79  H    0.031661
    80  H    0.222568
    81  H    0.177413
 Sum of Mulliken charges =  -0.00000

 Dipole moment (field-independent basis, Debye):
    X=              1.7347    Y=              0.1092    Z=             -0.3341  Tot=              1.7700
 Quadrupole moment (field-independent basis, Debye-Ang):
   XX=           -257.0116   YY=           -232.4644   ZZ=           -256.0529
   XY=            -21.7614   XZ=             12.4750   YZ=             15.8505

 Normal termination of Gaussian 16 at Tue Jul  2 14:15:08 2019.
