 Gaussian 16, Revision A.03,
 Gaussian 16:  ES64L-G16RevA.03 25-Dec-2016

 --------------------------
 # td=(NStates=1) B3LYP/SVP
 --------------------------

 --
 TD
 --
 Symbolic Z-matrix:
 Charge =  0 Multiplicity = 1

                         Standard orientation:
 ---------------------------------------------------------------------
 Center     Atomic      Atomic             Coordinates (Angstroms)
 Number     Number       Type             X           Y           Z
 ---------------------------------------------------------------------
      1          8           0        4.711492   -4.609623   -1.886868
      2          8           0       -2.830378   -4.755156   -1.374640
      3          8           0       -7.114419   -1.713549   -1.809236
      4          8           0       -3.791448   -3.104666   -0.085843
      5          8           0       -7.642668   -0.642132    0.170631
      6          8           0        2.970239    2.505284    0.386723
      7          7           0        0.257358   -0.532576    0.518713
      8          7           0       -1.619063    1.692751    0.382541
      9          7           0        3.571267   -3.041372   -0.704283
     10          7           0        0.672524    2.834761    0.030177
     11          6           0       -0.528178   -2.401938    1.394860
     12          6           0       -0.898307   -1.103733    0.952387
     13          6           0        0.896826   -2.549834    1.276708
     14          6           0        1.358022   -1.344790    0.687466
     15          6           0       -3.845538    1.270481    0.338355
     16          6           0       -2.587043    0.715162    0.540193
     17          6           0       -2.244531   -0.597385    0.881295
     18          6           0       -3.736575    2.675550    0.058243
     19          6           0       -1.434498   -3.516618    1.894398
     20          6           0        5.704605   -2.425516   -1.266028
     21          6           0        3.694469   -1.769946   -0.133391
     22          6           0       -2.240045    2.916454    0.156374
     23          6           0        5.161464   -1.467824   -0.296205
     24          6           0       -5.105180    0.436104    0.557738
     25          6           0        2.705098   -0.950581    0.334199
     26          6           0        1.575498   -3.813981    1.638690
     27          6           0        4.638972   -3.569010   -1.281642
     28          6           0       -1.913495   -4.418738    0.782847
     29          6           0       -5.545284   -0.249870   -0.806062
     30          6           0       -4.767151    3.590961   -0.241662
     31          6           0       -1.492873    3.993706   -0.289615
     32          6           0        7.178994   -2.950884   -1.011749
     33          6           0        5.901746   -0.474921    0.331931
     34          6           0       -0.000885    3.914128   -0.236517
     35          6           0        0.826763    5.121246   -0.547749
     36          6           0        2.121175    4.706593   -0.384102
     37          6           0       -2.926723   -3.984556   -0.248117
     38          6           0        5.493199    0.574318    1.258955
     39          6           0       -6.926567   -0.885114   -0.707533
     40          6           0        3.450961    5.386236   -0.545518
     41          6           0        2.074168    3.267617    0.059900
     42          6           0        0.325981    6.432781   -1.051677
     43          6           0        4.091779    5.778103    0.783617
     44          1           0        0.385959    0.375103    0.098441
     45          1           0       -3.161615   -1.407643    1.064973
     46          1           0       -2.161432   -2.992940    2.382166
     47          1           0       -0.988865   -4.220107    2.757875
     48          1           0        5.866846   -1.790931   -2.191393
     49          1           0       -5.015762   -0.246587    1.326217
     50          1           0       -5.904860    1.115854    0.815667
     51          1           0        2.885545    0.158349    0.628514
     52          1           0       -0.564339    1.858396    0.402745
     53          1           0        1.352480   -4.806671    0.948529
     54          1           0        2.731195   -3.891797    1.718674
     55          1           0        1.293705   -4.280414    2.736235
     56          1           0        2.611855   -3.570936   -0.675301
     57          1           0       -0.950368   -4.601864    0.124380
     58          1           0       -2.260154   -5.576793    1.254850
     59          1           0       -4.763385   -1.019490   -1.005898
     60          1           0       -5.640037    0.532664   -1.658967
     61          1           0       -4.584561    4.629942    0.236261
     62          1           0       -5.897238    3.503445    0.160752
     63          1           0       -5.033904    3.781212   -1.265771
     64          1           0       -2.055429    4.981048   -0.340102
     65          1           0        8.000048   -2.113930   -1.282641
     66          1           0        7.408706   -3.908286   -1.632406
     67          1           0        7.372519   -3.351262   -0.047718
     68          1           0        7.023048   -0.324489    0.054809
     69          1           0        4.872687    1.248867    0.876394
     70          1           0        6.434388    1.060081    1.739171
     71          1           0        4.726104   -0.052037    2.006572
     72          1           0        3.462290    6.316444   -1.130943
     73          1           0        4.451708    4.920450   -0.949206
     74          1           0       -0.392132    6.255551   -1.851941
     75          1           0        1.131175    7.068600   -1.189037
     76          1           0       -0.454343    7.125091   -0.274098
     77          1           0        3.575099    6.616319    1.454650
     78          1           0        5.084251    6.136675    0.732198
     79          1           0        4.071682    5.034228    1.464100
     80          1           0       -3.564619   -4.334934   -1.927135
     81          1           0       -7.986487   -2.168614   -1.641311
 ---------------------------------------------------------------------

 SCF Done:  E(RB3LYP) =  -1949.12236822     A.U. after   16 cycles

 Excitation energies and oscillator strengths:

 Excited State   1:      Singlet-A      1.8029 eV  687.69 nm  f=0.3176  <S**2>=0.000
     156 ->157         0.70533
     156 <-157        -0.11714
 This state for optimization and/or second-order correction.
 Total Energy, E(TD-HF/TD-DFT) =  -1949.05611231
 Copying the excited state density for this state as the 1-particle RhoCI density.

 The electronic state is 1-A.
 Alpha  occ. eigenvalues --  -19.20604 -19.18161 -19.15153 -19.13649 -19.12540
 Alpha  occ. eigenvalues --  -19.10347 -14.37908 -14.37892 -14.34859 -14.30682
 Alpha  occ. eigenvalues --  -10.34498 -10.31671 -10.28649 -10.28645 -10.24776
 Alpha  occ. eigenvalues --  -10.24078 -10.24015 -10.23943 -10.23646 -10.23401
 Alpha  occ. eigenvalues --  -10.22842 -10.22453 -10.22164 -10.21465 -10.21271
 Alpha  occ. eigenvalues --  -10.21029 -10.20775 -10.20726 -10.20545 -10.20487
 Alpha  occ. eigenvalues --  -10.20318 -10.20275 -10.20244 -10.19963 -10.19775
 Alpha  occ. eigenvalues --  -10.19724 -10.19715 -10.19656 -10.19498 -10.19316
 Alpha  occ. eigenvalues --  -10.19105 -10.18134 -10.17338  -1.10490  -1.09900
 Alpha  occ. eigenvalues --   -1.03804  -1.03032  -1.02282  -1.01397  -0.98796
 Alpha  occ. eigenvalues --   -0.96677  -0.95834  -0.93040  -0.82327  -0.81718
 Alpha  occ. eigenvalues --   -0.80880  -0.80636  -0.80540  -0.78755  -0.77205
 Alpha  occ. eigenvalues --   -0.76383  -0.76317  -0.75342  -0.74201  -0.72122
 Alpha  occ. eigenvalues --   -0.70803  -0.70058  -0.69042  -0.68719  -0.67142
 Alpha  occ. eigenvalues --   -0.66947  -0.64956  -0.63454  -0.62527  -0.61613
 Alpha  occ. eigenvalues --   -0.59615  -0.59060  -0.58258  -0.57679  -0.56770
 Alpha  occ. eigenvalues --   -0.55924  -0.55523  -0.55175  -0.53492  -0.53286
 Alpha  occ. eigenvalues --   -0.52656  -0.52001  -0.51077  -0.50510  -0.49417
 Alpha  occ. eigenvalues --   -0.49052  -0.48757  -0.48453  -0.48312  -0.47931
 Alpha  occ. eigenvalues --   -0.47330  -0.46835  -0.46142  -0.45428  -0.45178
 Alpha  occ. eigenvalues --   -0.44632  -0.44451  -0.44275  -0.43814  -0.43661
 Alpha  occ. eigenvalues --   -0.43352  -0.43199  -0.43173  -0.42739  -0.42541
 Alpha  occ. eigenvalues --   -0.41848  -0.41758  -0.41497  -0.41014  -0.40834
 Alpha  occ. eigenvalues --   -0.40666  -0.40351  -0.40047  -0.39755  -0.39499
 Alpha  occ. eigenvalues --   -0.39041  -0.38571  -0.38398  -0.38261  -0.38197
 Alpha  occ. eigenvalues --   -0.37846  -0.37478  -0.36999  -0.36751  -0.36571
 Alpha  occ. eigenvalues --   -0.36054  -0.36021  -0.35890  -0.35242  -0.34622
 Alpha  occ. eigenvalues --   -0.34140  -0.34029  -0.33915  -0.33775  -0.33591
 Alpha  occ. eigenvalues --   -0.33234  -0.31788  -0.31647  -0.30002  -0.29787
 Alpha  occ. eigenvalues --   -0.29769  -0.28595  -0.26367  -0.25937  -0.25666
 Alpha  occ. eigenvalues --   -0.25054  -0.24800  -0.24265  -0.23990  -0.21598
 Alpha  occ. eigenvalues --   -0.17715
 Alpha virt. eigenvalues --   -0.10545  -0.06753  -0.04117  -0.03412  -0.00150
 Alpha virt. eigenvalues --    0.01217   0.01537   0.02188   0.03197   0.03337
 Alpha virt. eigenvalues --    0.03894   0.04049   0.04688   0.05146   0.05703

 Mulliken charges:
               1
     1  O   -0.206226
     2  O   -0.194329
     3  O   -0.232595
     4  O   -0.255666
     5  O   -0.161035
     6  O   -0.179102
     7  N   -0.036833
     8  N   -0.162188
     9  N   -0.110240
    10  N   -0.312097
    11  C   -0.172410
    12  C    0.084063
    13  C   -0.058477
    14  C    0.006583
    15  C   -0.122193
    16  C    0.128853
    17  C   -0.146395
    18  C   -0.039692
    19  C    0.164951
    20  C   -0.104773
    21  C    0.128544
    22  C    0.067003
    23  C   -0.017223
    24  C    0.179055
    25  C   -0.135455
    26  C   -0.097825
    27  C    0.134146
    28  C   -0.080133
    29  C   -0.060797
    30  C   -0.023670
    31  C   -0.101282
    32  C   -0.004737
    33  C   -0.168582
    34  C    0.047262
    35  C   -0.080482
    36  C   -0.121342
    37  C    0.180081
    38  C    0.067454
    39  C    0.140322
    40  C    0.044362
    41  C    0.185988
    42  C    0.079365
    43  C    0.004102
    44  H    0.123329
    45  H    0.091866
    46  H   -0.014821
    47  H    0.023679
    48  H    0.060273
    49  H   -0.007193
    50  H   -0.007395
    51  H    0.065527
    52  H    0.161062
    53  H    0.038430
    54  H    0.046592
    55  H    0.039540
    56  H    0.163540
    57  H    0.059075
    58  H    0.081572
    59  H    0.047684
    60  H    0.048571
    61  H    0.024912
    62  H    0.029102
    63  H    0.024139
    64  H   -0.000234
    65  H    0.033631
    66  H    0.037839
    67  H   -0.002086
    68  H    0.009117
    69  H    0.020717
    70  H    0.027494
    71  H    0.038745
    72  H   -0.003839
    73  H    0.034148
    74  H    0.037344
    75  H    0.009156
    76  H    0.035396
    77  H   -0.006442
    78  H   -0.001937
    79  H   -0.009024
    80  H    0.201569
    81  H    0.182567
 Sum of Mulliken charges =  -0.00000

 Dipole moment (field-independent basis, Debye):
    X=             -3.0865    Y=              1.6404    Z=             -0.3672  Tot=              3.5145
 Quadrupole moment (field-independent basis, Debye-Ang):
   XX=           -251.5434   YY=           -236.1654   ZZ=           -259.1556
   XY=             22.5099   XZ=             16.0340   YZ=            -16.2385

 Normal termination of Gaussian 16 at Fri Jun 28 03:33:52 2019.
