 Gaussian 16, Revision A.03,
 Gaussian 16:  ES64L-G16RevA.03 25-Dec-2016

 --------------------------
 # td=(NStates=1) B3LYP/SVP
 --------------------------

 --
 TD
 --
 Symbolic Z-matrix:
 Charge =  0 Multiplicity = 1

                         Standard orientation:
 ---------------------------------------------------------------------
 Center     Atomic      Atomic             Coordinates (Angstroms)
 Number     Number       Type             X           Y           Z
 ---------------------------------------------------------------------
      1          8           0        4.160381   -4.885232   -1.885705
      2          8           0       -3.007563   -4.814914   -1.112001
      3          8           0       -7.134358   -1.358121   -1.850916
      4          8           0       -3.870907   -3.113043    0.083992
      5          8           0       -7.564271   -0.267926    0.103047
      6          8           0        3.092844    2.366299    0.361452
      7          7           0        0.302507   -0.532995    0.685683
      8          7           0       -1.353406    1.774547    0.331097
      9          7           0        3.188219   -3.303105   -0.627681
     10          7           0        0.877075    2.970410    0.230928
     11          6           0       -0.821245   -2.420398    1.377341
     12          6           0       -1.030219   -1.037733    0.974288
     13          6           0        0.590431   -2.630800    1.369746
     14          6           0        1.231312   -1.543555    0.808576
     15          6           0       -3.763457    1.642741    0.251163
     16          6           0       -2.531398    0.913362    0.539970
     17          6           0       -2.247257   -0.380083    0.770253
     18          6           0       -3.340315    2.947483   -0.071295
     19          6           0       -1.779889   -3.323753    2.101206
     20          6           0        5.268063   -2.742254   -1.592264
     21          6           0        3.474718   -1.949461   -0.200095
     22          6           0       -1.925109    3.006365    0.014037
     23          6           0        4.909097   -1.724947   -0.390459
     24          6           0       -5.140311    0.966444    0.183227
     25          6           0        2.545683   -1.175032    0.427832
     26          6           0        1.278347   -3.865667    1.857254
     27          6           0        4.193709   -3.828483   -1.403607
     28          6           0       -2.189739   -4.596239    1.122301
     29          6           0       -5.410426    0.166607   -1.029528
     30          6           0       -4.212754    4.041626   -0.603599
     31          6           0       -1.147452    4.116341   -0.344689
     32          6           0        6.728546   -3.260718   -1.498945
     33          6           0        5.722585   -0.827950    0.031237
     34          6           0        0.216260    4.107895   -0.167994
     35          6           0        1.207033    5.168438   -0.450741
     36          6           0        2.517781    4.629317   -0.256924
     37          6           0       -3.138023   -4.097321    0.002300
     38          6           0        5.540720    0.113450    1.264236
     39          6           0       -6.754811   -0.491181   -0.762761
     40          6           0        3.877189    5.169249   -0.262603
     41          6           0        2.266697    3.140329    0.168754
     42          6           0        0.769448    6.554539   -0.909520
     43          6           0        4.643166    5.344489    1.082145
     44          1           0        0.445638    0.409048    0.155503
     45          1           0       -3.104280   -1.008467    1.183560
     46          1           0       -2.764753   -2.746804    2.191980
     47          1           0       -1.266816   -3.662799    3.118991
     48          1           0        5.165528   -2.165414   -2.561325
     49          1           0       -5.138649    0.304231    1.109908
     50          1           0       -5.874855    1.699448    0.307581
     51          1           0        2.826847   -0.065293    0.412342
     52          1           0       -0.127892    1.868471    0.419949
     53          1           0        1.335086   -4.568105    1.145609
     54          1           0        2.377518   -3.800330    2.071826
     55          1           0        0.782684   -4.417076    2.572922
     56          1           0        2.303165   -3.729358   -0.697735
     57          1           0       -1.411023   -5.045107    0.580075
     58          1           0       -2.637990   -5.264536    1.495860
     59          1           0       -4.797537   -0.771539   -0.860206
     60          1           0       -5.180071    0.557737   -1.991363
     61          1           0       -4.349516    5.025366    0.103467
     62          1           0       -5.342538    3.580792   -0.799845
     63          1           0       -3.855276    4.369283   -1.542912
     64          1           0       -1.728773    5.137086   -0.547302
     65          1           0        7.358286   -2.359239   -1.825867
     66          1           0        6.807664   -4.162145   -2.375652
     67          1           0        6.932817   -3.793724   -0.701890
     68          1           0        6.731817   -0.715516   -0.263856
     69          1           0        5.084725    1.071308    0.804686
     70          1           0        6.505606    0.278315    1.720915
     71          1           0        4.603381   -0.116453    1.934817
     72          1           0        3.537986    6.231628   -0.701693
     73          1           0        4.358142    4.484098   -0.951139
     74          1           0        0.024253    6.609210   -1.782752
     75          1           0        1.618757    7.159163   -1.145895
     76          1           0        0.299863    7.117862   -0.115590
     77          1           0        4.181048    6.012893    1.889398
     78          1           0        5.792870    5.604388    1.107475
     79          1           0        4.357294    4.240282    1.555051
     80          1           0       -3.685259   -4.510388   -1.788285
     81          1           0       -7.965791   -1.435412   -1.572801
 ---------------------------------------------------------------------

 SCF Done:  E(RB3LYP) =  -1949.06300530     A.U. after   16 cycles

 Excitation energies and oscillator strengths:

 Excited State   1:      Singlet-A      2.0000 eV  619.92 nm  f=0.4043  <S**2>=0.000
     156 ->157         0.70668
     156 <-157        -0.10419
 This state for optimization and/or second-order correction.
 Total Energy, E(TD-HF/TD-DFT) =  -1948.98950686
 Copying the excited state density for this state as the 1-particle RhoCI density.

 The electronic state is 1-A.
 Alpha  occ. eigenvalues --  -19.20546 -19.16355 -19.14628 -19.14137 -19.11331
 Alpha  occ. eigenvalues --  -19.11039 -14.37659 -14.36180 -14.34098 -14.29619
 Alpha  occ. eigenvalues --  -10.33737 -10.33045 -10.28453 -10.26679 -10.24600
 Alpha  occ. eigenvalues --  -10.23502 -10.23349 -10.23117 -10.23044 -10.22743
 Alpha  occ. eigenvalues --  -10.22734 -10.21489 -10.21351 -10.21264 -10.21071
 Alpha  occ. eigenvalues --  -10.20774 -10.20750 -10.20638 -10.20461 -10.20437
 Alpha  occ. eigenvalues --  -10.20327 -10.20156 -10.20037 -10.19599 -10.19585
 Alpha  occ. eigenvalues --  -10.19550 -10.19458 -10.19281 -10.19234 -10.19224
 Alpha  occ. eigenvalues --  -10.19111 -10.18842 -10.18234  -1.11219  -1.09857
 Alpha  occ. eigenvalues --   -1.06227  -1.06045  -1.01434  -1.01382  -0.96536
 Alpha  occ. eigenvalues --   -0.94584  -0.94211  -0.90857  -0.82566  -0.81941
 Alpha  occ. eigenvalues --   -0.81500  -0.81179  -0.79280  -0.78636  -0.78192
 Alpha  occ. eigenvalues --   -0.77596  -0.76118  -0.74967  -0.74172  -0.72789
 Alpha  occ. eigenvalues --   -0.71162  -0.69716  -0.68781  -0.67865  -0.67182
 Alpha  occ. eigenvalues --   -0.66729  -0.64983  -0.64731  -0.62741  -0.62379
 Alpha  occ. eigenvalues --   -0.61082  -0.57961  -0.57640  -0.57366  -0.56611
 Alpha  occ. eigenvalues --   -0.55352  -0.55241  -0.54103  -0.53632  -0.52869
 Alpha  occ. eigenvalues --   -0.51908  -0.51269  -0.50779  -0.50515  -0.50223
 Alpha  occ. eigenvalues --   -0.49496  -0.49063  -0.48942  -0.48875  -0.47723
 Alpha  occ. eigenvalues --   -0.47168  -0.46301  -0.46120  -0.45391  -0.45301
 Alpha  occ. eigenvalues --   -0.44652  -0.44508  -0.44382  -0.43721  -0.43647
 Alpha  occ. eigenvalues --   -0.43406  -0.43176  -0.42927  -0.42603  -0.42422
 Alpha  occ. eigenvalues --   -0.42037  -0.41673  -0.41298  -0.41165  -0.40941
 Alpha  occ. eigenvalues --   -0.40761  -0.40406  -0.40328  -0.40069  -0.39888
 Alpha  occ. eigenvalues --   -0.39423  -0.38957  -0.38794  -0.38655  -0.38627
 Alpha  occ. eigenvalues --   -0.38378  -0.38340  -0.37573  -0.37531  -0.37065
 Alpha  occ. eigenvalues --   -0.36414  -0.36204  -0.35855  -0.35536  -0.35263
 Alpha  occ. eigenvalues --   -0.34921  -0.34618  -0.34311  -0.34104  -0.33756
 Alpha  occ. eigenvalues --   -0.32583  -0.31465  -0.30869  -0.30343  -0.29651
 Alpha  occ. eigenvalues --   -0.29423  -0.28555  -0.26933  -0.25877  -0.25628
 Alpha  occ. eigenvalues --   -0.25152  -0.24435  -0.23809  -0.22710  -0.21941
 Alpha  occ. eigenvalues --   -0.18261
 Alpha virt. eigenvalues --   -0.10273  -0.05835  -0.03746  -0.01429  -0.00988
 Alpha virt. eigenvalues --    0.00660   0.01530   0.02940   0.03740   0.04285
 Alpha virt. eigenvalues --    0.04321   0.04995   0.05514   0.05943   0.06404

 Mulliken charges:
               1
     1  O   -0.151598
     2  O   -0.176378
     3  O   -0.191755
     4  O   -0.249963
     5  O   -0.213200
     6  O   -0.133504
     7  N   -0.163245
     8  N   -0.300595
     9  N   -0.127133
    10  N   -0.362658
    11  C   -0.082480
    12  C    0.064670
    13  C   -0.170544
    14  C    0.139130
    15  C   -0.045880
    16  C    0.120083
    17  C   -0.077103
    18  C   -0.137830
    19  C    0.003187
    20  C   -0.152687
    21  C    0.118995
    22  C    0.138768
    23  C    0.100871
    24  C    0.093775
    25  C   -0.164118
    26  C    0.200278
    27  C    0.108944
    28  C    0.200188
    29  C    0.046207
    30  C    0.022507
    31  C   -0.178215
    32  C    0.059502
    33  C   -0.183449
    34  C    0.135445
    35  C   -0.087269
    36  C   -0.223632
    37  C    0.099886
    38  C   -0.019169
    39  C    0.150570
    40  C    0.072456
    41  C    0.148788
    42  C    0.104592
    43  C   -0.082885
    44  H    0.159324
    45  H    0.024850
    46  H    0.043290
    47  H    0.059420
    48  H    0.055420
    49  H    0.034098
    50  H   -0.002136
    51  H    0.043127
    52  H    0.237926
    53  H   -0.040181
    54  H    0.024377
    55  H   -0.033541
    56  H    0.116003
    57  H    0.009035
    58  H   -0.077610
    59  H    0.054592
    60  H    0.043043
    61  H    0.049442
    62  H    0.030071
    63  H    0.022522
    64  H    0.010709
    65  H    0.041967
    66  H    0.033543
    67  H   -0.023157
    68  H   -0.021507
    69  H    0.070405
    70  H    0.020922
    71  H    0.043900
    72  H    0.014472
    73  H    0.029087
    74  H    0.033775
    75  H   -0.007059
    76  H    0.013114
    77  H    0.022907
    78  H    0.047036
    79  H    0.044510
    80  H    0.206984
    81  H    0.111770
 Sum of Mulliken charges =  -0.00000

 Dipole moment (field-independent basis, Debye):
    X=             -1.7796    Y=              0.3129    Z=             -0.8648  Tot=              2.0032
 Quadrupole moment (field-independent basis, Debye-Ang):
   XX=           -255.9306   YY=           -240.0846   ZZ=           -255.5055
   XY=             14.6318   XZ=             11.9702   YZ=            -13.7843

 Normal termination of Gaussian 16 at Wed Jul  3 12:58:07 2019.
