 Gaussian 16, Revision A.03,
 Gaussian 16:  ES64L-G16RevA.03 25-Dec-2016

 --------------------------
 # td=(NStates=1) B3LYP/SVP
 --------------------------

 --
 TD
 --
 Symbolic Z-matrix:
 Charge =  0 Multiplicity = 1

                         Standard orientation:
 ---------------------------------------------------------------------
 Center     Atomic      Atomic             Coordinates (Angstroms)
 Number     Number       Type             X           Y           Z
 ---------------------------------------------------------------------
      1          8           0        4.481636   -4.900730   -1.865130
      2          8           0       -2.976399   -4.816162   -1.260005
      3          8           0       -6.828951   -1.567750   -1.877987
      4          8           0       -3.808937   -3.087962   -0.184443
      5          8           0       -7.559691   -0.761037    0.119851
      6          8           0        2.999256    2.562005    0.293785
      7          7           0        0.304238   -0.570751    0.608008
      8          7           0       -1.517377    1.788409    0.303589
      9          7           0        3.505603   -3.313397   -0.462969
     10          7           0        0.756009    2.937319    0.037588
     11          6           0       -0.642212   -2.423672    1.431326
     12          6           0       -0.894633   -1.147084    1.015905
     13          6           0        0.738605   -2.700010    1.205846
     14          6           0        1.298878   -1.419301    0.688567
     15          6           0       -3.797397    1.392571    0.407860
     16          6           0       -2.388363    0.853534    0.686005
     17          6           0       -2.097428   -0.457156    0.983090
     18          6           0       -3.599210    2.710309   -0.088910
     19          6           0       -1.708876   -3.406288    1.994541
     20          6           0        5.528338   -2.738695   -1.384546
     21          6           0        3.701811   -1.932202   -0.065969
     22          6           0       -2.149811    2.989360   -0.012604
     23          6           0        5.066025   -1.529014   -0.402079
     24          6           0       -5.125288    0.714167    0.445145
     25          6           0        2.624405   -1.115867    0.411619
     26          6           0        1.456660   -3.947367    1.824822
     27          6           0        4.494710   -3.809770   -1.277928
     28          6           0       -2.164962   -4.509097    0.974486
     29          6           0       -5.373095   -0.014474   -0.847945
     30          6           0       -4.672408    3.702033   -0.379194
     31          6           0       -1.292668    4.157311   -0.344575
     32          6           0        7.018959   -3.174229   -1.191361
     33          6           0        5.846435   -0.617003    0.067649
     34          6           0        0.048026    4.082154   -0.266063
     35          6           0        0.979424    5.252996   -0.518994
     36          6           0        2.145565    4.779271   -0.261593
     37          6           0       -3.049934   -4.101548   -0.104860
     38          6           0        5.404313    0.500377    1.148260
     39          6           0       -6.757362   -0.772687   -0.840616
     40          6           0        3.539689    5.414106   -0.340691
     41          6           0        2.041678    3.326675    0.066279
     42          6           0        0.465838    6.616711   -0.900967
     43          6           0        4.142759    5.953053    0.899609
     44          1           0        0.467122    0.399016    0.237947
     45          1           0       -3.112244   -1.231502    1.293242
     46          1           0       -2.651440   -2.667963    2.280192
     47          1           0       -1.321371   -4.116589    2.922184
     48          1           0        5.524228   -2.373374   -2.189958
     49          1           0       -5.107931   -0.202850    1.136048
     50          1           0       -5.844386    1.419302    0.665304
     51          1           0        3.074126    0.103514    0.485540
     52          1           0       -0.495162    2.186517    0.591440
     53          1           0        1.331066   -4.895381    1.146083
     54          1           0        2.623413   -3.679394    1.783942
     55          1           0        0.971510   -4.244683    2.695623
     56          1           0        2.538400   -3.690847   -0.768697
     57          1           0       -1.295975   -5.096798    0.553308
     58          1           0       -2.638754   -5.218807    1.462794
     59          1           0       -4.672092   -0.951469   -1.317161
     60          1           0       -5.280096    0.427530   -1.834278
     61          1           0       -4.402742    4.624927    0.246904
     62          1           0       -5.599616    3.040252   -0.334575
     63          1           0       -4.888591    4.119590   -1.449389
     64          1           0       -1.987264    5.044749   -0.615199
     65          1           0        7.570610   -2.286892   -1.393258
     66          1           0        7.296694   -4.030336   -1.870316
     67          1           0        7.381405   -3.639157   -0.150636
     68          1           0        6.928063   -0.670697   -0.248116
     69          1           0        4.975173    1.297617    0.640151
     70          1           0        6.286393    0.984391    1.648129
     71          1           0        4.511635    0.028556    1.808944
     72          1           0        3.593032    6.241448   -0.945509
     73          1           0        4.383946    4.762346   -0.920859
     74          1           0       -0.177829    6.902011   -1.953013
     75          1           0        1.434313    7.306963   -0.870352
     76          1           0       -0.118370    7.035231   -0.082678
     77          1           0        3.624243    6.620312    1.432060
     78          1           0        5.140964    6.587691    0.695915
     79          1           0        4.531598    5.062638    1.682762
     80          1           0       -3.546505   -4.305948   -1.939283
     81          1           0       -7.813005   -1.984859   -1.870000
 ---------------------------------------------------------------------

 SCF Done:  E(RB3LYP) =  -1948.98865027     A.U. after   18 cycles

 Excitation energies and oscillator strengths:

 Excited State   1:      Singlet-A      2.0084 eV  617.34 nm  f=0.4593  <S**2>=0.000
     156 ->157         0.70825
     156 <-157        -0.10954
 This state for optimization and/or second-order correction.
 Total Energy, E(TD-HF/TD-DFT) =  -1948.91484406
 Copying the excited state density for this state as the 1-particle RhoCI density.

 The electronic state is 1-A.
 Alpha  occ. eigenvalues --  -19.19990 -19.19287 -19.13618 -19.12103 -19.11169
 Alpha  occ. eigenvalues --  -19.08834 -14.38587 -14.37741 -14.35399 -14.29161
 Alpha  occ. eigenvalues --  -10.33814 -10.32064 -10.29204 -10.25932 -10.25538
 Alpha  occ. eigenvalues --  -10.24797 -10.24545 -10.24468 -10.23710 -10.23082
 Alpha  occ. eigenvalues --  -10.22814 -10.22423 -10.22246 -10.21605 -10.21601
 Alpha  occ. eigenvalues --  -10.21583 -10.21330 -10.21279 -10.21186 -10.20775
 Alpha  occ. eigenvalues --  -10.20708 -10.20646 -10.20597 -10.20356 -10.20196
 Alpha  occ. eigenvalues --  -10.19771 -10.19733 -10.19647 -10.19189 -10.18902
 Alpha  occ. eigenvalues --  -10.18608 -10.18316 -10.18285  -1.09832  -1.09617
 Alpha  occ. eigenvalues --   -1.02503  -1.00231  -0.99695  -0.98685  -0.98411
 Alpha  occ. eigenvalues --   -0.97352  -0.94258  -0.91894  -0.83160  -0.82189
 Alpha  occ. eigenvalues --   -0.81800  -0.81316  -0.80197  -0.79202  -0.78600
 Alpha  occ. eigenvalues --   -0.76871  -0.76664  -0.75306  -0.74188  -0.72085
 Alpha  occ. eigenvalues --   -0.70500  -0.69341  -0.68951  -0.68576  -0.67650
 Alpha  occ. eigenvalues --   -0.67265  -0.65707  -0.65046  -0.62295  -0.61078
 Alpha  occ. eigenvalues --   -0.60658  -0.59443  -0.58740  -0.58295  -0.57078
 Alpha  occ. eigenvalues --   -0.55783  -0.55416  -0.55164  -0.53479  -0.53017
 Alpha  occ. eigenvalues --   -0.52443  -0.52398  -0.51337  -0.49659  -0.49521
 Alpha  occ. eigenvalues --   -0.49275  -0.48933  -0.48538  -0.48325  -0.47911
 Alpha  occ. eigenvalues --   -0.46898  -0.46458  -0.45906  -0.45551  -0.45328
 Alpha  occ. eigenvalues --   -0.44598  -0.44182  -0.44044  -0.43683  -0.43453
 Alpha  occ. eigenvalues --   -0.42954  -0.42641  -0.42517  -0.42358  -0.41900
 Alpha  occ. eigenvalues --   -0.41662  -0.41423  -0.41287  -0.40697  -0.40424
 Alpha  occ. eigenvalues --   -0.40335  -0.40168  -0.39618  -0.39527  -0.39315
 Alpha  occ. eigenvalues --   -0.39220  -0.38675  -0.38348  -0.38231  -0.38123
 Alpha  occ. eigenvalues --   -0.37604  -0.37340  -0.37045  -0.36756  -0.36517
 Alpha  occ. eigenvalues --   -0.36024  -0.35622  -0.35337  -0.34874  -0.34511
 Alpha  occ. eigenvalues --   -0.33759  -0.32999  -0.32540  -0.32447  -0.32089
 Alpha  occ. eigenvalues --   -0.31711  -0.31450  -0.31084  -0.30345  -0.28772
 Alpha  occ. eigenvalues --   -0.27684  -0.27612  -0.27502  -0.26667  -0.25879
 Alpha  occ. eigenvalues --   -0.25655  -0.25083  -0.24335  -0.23860  -0.21977
 Alpha  occ. eigenvalues --   -0.18304
 Alpha virt. eigenvalues --   -0.10384  -0.05692  -0.03900  -0.02914  -0.00317
 Alpha virt. eigenvalues --    0.00073   0.01457   0.01748   0.02493   0.03130
 Alpha virt. eigenvalues --    0.03587   0.03848   0.04158   0.04342   0.05070

 Mulliken charges:
               1
     1  O   -0.235003
     2  O   -0.212109
     3  O   -0.192756
     4  O   -0.287433
     5  O   -0.277877
     6  O   -0.245381
     7  N   -0.029943
     8  N   -0.134296
     9  N   -0.172972
    10  N   -0.290646
    11  C   -0.053773
    12  C    0.071015
    13  C   -0.184883
    14  C    0.063426
    15  C   -0.117251
    16  C    0.085320
    17  C   -0.137545
    18  C   -0.104983
    19  C   -0.019260
    20  C    0.072166
    21  C    0.045942
    22  C   -0.007716
    23  C    0.045875
    24  C    0.207499
    25  C   -0.182378
    26  C    0.062398
    27  C    0.145241
    28  C    0.127369
    29  C   -0.118656
    30  C    0.020527
    31  C   -0.132104
    32  C   -0.010165
    33  C   -0.178749
    34  C    0.128673
    35  C   -0.037939
    36  C   -0.152331
    37  C    0.132202
    38  C    0.024514
    39  C    0.158964
    40  C    0.104022
    41  C    0.139414
    42  C    0.018319
    43  C   -0.033949
    44  H    0.161805
    45  H    0.086838
    46  H    0.054669
    47  H    0.042845
    48  H   -0.074537
    49  H    0.033296
    50  H    0.011116
    51  H    0.105562
    52  H    0.208484
    53  H    0.020219
    54  H    0.071052
    55  H    0.003378
    56  H    0.169945
    57  H    0.042976
    58  H   -0.003956
    59  H    0.074518
    60  H    0.009160
    61  H    0.054773
    62  H    0.021057
    63  H    0.030060
    64  H   -0.000581
    65  H    0.016807
    66  H    0.038266
    67  H    0.032123
    68  H    0.005162
    69  H    0.048278
    70  H    0.017913
    71  H    0.059236
    72  H   -0.039516
    73  H    0.026530
    74  H    0.062358
    75  H    0.023273
    76  H    0.024603
    77  H   -0.020499
    78  H    0.008663
    79  H    0.032485
    80  H    0.214963
    81  H    0.223888
 Sum of Mulliken charges =  -0.00000

 Dipole moment (field-independent basis, Debye):
    X=             -3.1784    Y=              0.3309    Z=             -0.9751  Tot=              3.3410
 Quadrupole moment (field-independent basis, Debye-Ang):
   XX=           -254.5110   YY=           -240.8157   ZZ=           -253.7384
   XY=             15.2517   XZ=             17.5923   YZ=            -13.1181

 Normal termination of Gaussian 16 at Thu Jun 27 11:06:35 2019.
