 Gaussian 16, Revision A.03,
 Gaussian 16:  ES64L-G16RevA.03 25-Dec-2016

 --------------------------
 # td=(NStates=1) B3LYP/SVP
 --------------------------

 --
 TD
 --
 Symbolic Z-matrix:
 Charge =  0 Multiplicity = 1

                         Standard orientation:
 ---------------------------------------------------------------------
 Center     Atomic      Atomic             Coordinates (Angstroms)
 Number     Number       Type             X           Y           Z
 ---------------------------------------------------------------------
      1          8           0       -4.663314   -4.691947    1.851628
      2          8           0        3.049059   -4.564129    1.402916
      3          8           0        7.061040   -1.687892    1.830082
      4          8           0        3.822272   -3.209436   -0.279347
      5          8           0        7.531890   -0.915302   -0.223527
      6          8           0       -2.940619    2.480451   -0.260499
      7          7           0       -0.316518   -0.614460   -0.537385
      8          7           0        1.635071    1.783746   -0.424097
      9          7           0       -3.619765   -3.153597    0.702139
     10          7           0       -0.642567    2.933431   -0.073403
     11          6           0        0.666686   -2.494995   -1.315195
     12          6           0        0.878999   -1.141871   -0.900785
     13          6           0       -0.811812   -2.617835   -1.157175
     14          6           0       -1.357018   -1.495241   -0.640420
     15          6           0        3.845371    1.376629   -0.354274
     16          6           0        2.467094    0.720332   -0.561163
     17          6           0        2.110952   -0.561638   -0.879480
     18          6           0        3.600971    2.740336    0.034868
     19          6           0        1.530669   -3.451154   -1.805747
     20          6           0       -5.769848   -2.506257    1.358378
     21          6           0       -3.749471   -1.777040    0.145253
     22          6           0        2.212256    2.936155   -0.141333
     23          6           0       -5.069980   -1.419662    0.422861
     24          6           0        5.209147    0.687632   -0.381816
     25          6           0       -2.684034   -1.002604   -0.391888
     26          6           0       -1.656575   -3.826408   -1.587859
     27          6           0       -4.668657   -3.533978    1.350780
     28          6           0        1.955623   -4.642966   -0.735438
     29          6           0        5.458040   -0.264389    0.766869
     30          6           0        4.619892    3.830502    0.415562
     31          6           0        1.370495    4.101586    0.224287
     32          6           0       -7.194883   -3.063969    0.972338
     33          6           0       -5.871979   -0.477097   -0.187707
     34          6           0        0.053643    3.928646    0.286434
     35          6           0       -0.833395    5.113912    0.531380
     36          6           0       -2.081541    4.666780    0.319936
     37          6           0        3.017711   -4.054917    0.115841
     38          6           0       -5.448728    0.421322   -1.362423
     39          6           0        6.824963   -0.915451    0.737209
     40          6           0       -3.377232    5.438584    0.382484
     41          6           0       -1.961198    3.279897   -0.077810
     42          6           0       -0.399873    6.501495    1.058353
     43          6           0       -4.086903    5.968095   -0.826073
     44          1           0       -0.368373    0.424572   -0.471904
     45          1           0        2.963692   -1.319055   -0.873938
     46          1           0        2.421065   -3.080716   -2.340005
     47          1           0        1.045994   -3.936486   -2.621319
     48          1           0       -5.637630   -2.166989    2.394467
     49          1           0        5.356379    0.033946   -1.335789
     50          1           0        5.966224    1.494650   -0.644780
     51          1           0       -2.749472    0.068536   -0.751549
     52          1           0        0.652155    1.866637   -0.691846
     53          1           0       -1.615785   -4.718296   -0.878229
     54          1           0       -2.720502   -3.403910   -1.994627
     55          1           0       -1.286570   -4.200827   -2.469530
     56          1           0       -2.747793   -3.949891    0.436129
     57          1           0        1.086231   -4.964822   -0.162078
     58          1           0        2.391697   -5.210425   -1.345119
     59          1           0        4.600699   -1.047845    0.855536
     60          1           0        5.495558    0.219248    1.750642
     61          1           0        4.457937    4.630530   -0.298838
     62          1           0        5.852964    3.591401    0.168413
     63          1           0        4.372141    3.897523    1.431649
     64          1           0        2.111599    4.941623    0.628073
     65          1           0       -8.005752   -2.217826    0.810046
     66          1           0       -7.472117   -3.870997    1.846633
     67          1           0       -6.935522   -3.319182   -0.144296
     68          1           0       -6.760887   -0.257005    0.048091
     69          1           0       -5.005676    1.386465   -1.141722
     70          1           0       -6.336564    0.679515   -2.036792
     71          1           0       -4.771157    0.006345   -2.077133
     72          1           0       -3.179749    6.323611    1.010520
     73          1           0       -4.100641    4.778945    0.898689
     74          1           0        0.276169    6.339535    1.960225
     75          1           0       -1.291886    7.096839    1.158799
     76          1           0        0.231647    7.130297    0.308491
     77          1           0       -3.408511    6.489819   -1.728794
     78          1           0       -5.109758    6.586088   -0.600605
     79          1           0       -4.435238    5.072901   -1.539598
     80          1           0        3.834412   -3.867027    1.757321
     81          1           0        7.750533   -2.252118    1.546491
 ---------------------------------------------------------------------

 SCF Done:  E(RB3LYP) =  -1949.04347884     A.U. after   18 cycles

 Excitation energies and oscillator strengths:

 Excited State   1:      Singlet-A      1.9583 eV  633.11 nm  f=0.3988  <S**2>=0.000
     156 ->157         0.70738
     156 <-157        -0.10732
 This state for optimization and/or second-order correction.
 Total Energy, E(TD-HF/TD-DFT) =  -1948.97151179
 Copying the excited state density for this state as the 1-particle RhoCI density.

 The electronic state is 1-A.
 Alpha  occ. eigenvalues --  -19.21128 -19.18660 -19.15668 -19.13475 -19.09252
 Alpha  occ. eigenvalues --  -19.07761 -14.37622 -14.37412 -14.36645 -14.28147
 Alpha  occ. eigenvalues --  -10.34572 -10.32450 -10.26991 -10.25581 -10.25411
 Alpha  occ. eigenvalues --  -10.24308 -10.24289 -10.23366 -10.23142 -10.22447
 Alpha  occ. eigenvalues --  -10.21880 -10.21872 -10.21844 -10.21778 -10.21635
 Alpha  occ. eigenvalues --  -10.21543 -10.21419 -10.21379 -10.21323 -10.21073
 Alpha  occ. eigenvalues --  -10.21024 -10.20560 -10.20540 -10.20527 -10.20270
 Alpha  occ. eigenvalues --  -10.20144 -10.20008 -10.19552 -10.19421 -10.19112
 Alpha  occ. eigenvalues --  -10.18540 -10.17560 -10.17515  -1.11234  -1.10172
 Alpha  occ. eigenvalues --   -1.02256  -1.01459  -1.01118  -1.00487  -0.99287
 Alpha  occ. eigenvalues --   -0.98776  -0.93113  -0.92115  -0.83954  -0.82709
 Alpha  occ. eigenvalues --   -0.81752  -0.80823  -0.79729  -0.79323  -0.78623
 Alpha  occ. eigenvalues --   -0.77661  -0.76495  -0.74886  -0.73916  -0.73331
 Alpha  occ. eigenvalues --   -0.71860  -0.70472  -0.70004  -0.69061  -0.68072
 Alpha  occ. eigenvalues --   -0.67849  -0.65520  -0.64134  -0.62446  -0.60889
 Alpha  occ. eigenvalues --   -0.60296  -0.59639  -0.59141  -0.57504  -0.56885
 Alpha  occ. eigenvalues --   -0.56256  -0.55871  -0.55223  -0.54370  -0.53593
 Alpha  occ. eigenvalues --   -0.52854  -0.52024  -0.51696  -0.51393  -0.50932
 Alpha  occ. eigenvalues --   -0.50188  -0.49525  -0.49162  -0.48735  -0.47751
 Alpha  occ. eigenvalues --   -0.47524  -0.47314  -0.46852  -0.46232  -0.45944
 Alpha  occ. eigenvalues --   -0.45233  -0.45168  -0.44725  -0.44447  -0.43809
 Alpha  occ. eigenvalues --   -0.43392  -0.42862  -0.42723  -0.42476  -0.41801
 Alpha  occ. eigenvalues --   -0.41639  -0.41570  -0.41095  -0.41000  -0.40917
 Alpha  occ. eigenvalues --   -0.40781  -0.40360  -0.40188  -0.39894  -0.39781
 Alpha  occ. eigenvalues --   -0.39662  -0.39307  -0.38901  -0.38645  -0.38490
 Alpha  occ. eigenvalues --   -0.38208  -0.38037  -0.37566  -0.37313  -0.36875
 Alpha  occ. eigenvalues --   -0.36697  -0.35507  -0.35324  -0.34487  -0.34213
 Alpha  occ. eigenvalues --   -0.34163  -0.33756  -0.33610  -0.33387  -0.33078
 Alpha  occ. eigenvalues --   -0.32723  -0.32568  -0.30976  -0.30720  -0.30376
 Alpha  occ. eigenvalues --   -0.28981  -0.26804  -0.25854  -0.25548  -0.25050
 Alpha  occ. eigenvalues --   -0.24773  -0.23802  -0.23692  -0.23328  -0.21715
 Alpha  occ. eigenvalues --   -0.18779
 Alpha virt. eigenvalues --   -0.10994  -0.06095  -0.04721  -0.03320  -0.00830
 Alpha virt. eigenvalues --    0.00652   0.01136   0.01338   0.02142   0.03005
 Alpha virt. eigenvalues --    0.04414   0.04770   0.05212   0.05313   0.05981

 Mulliken charges:
               1
     1  O   -0.294241
     2  O   -0.247262
     3  O   -0.172379
     4  O   -0.259340
     5  O   -0.206172
     6  O   -0.277000
     7  N   -0.054314
     8  N   -0.016474
     9  N   -0.160170
    10  N   -0.226798
    11  C   -0.042670
    12  C    0.053898
    13  C   -0.181028
    14  C    0.099483
    15  C   -0.087049
    16  C    0.051586
    17  C   -0.104393
    18  C   -0.150255
    19  C    0.014577
    20  C    0.011802
    21  C    0.142057
    22  C   -0.023127
    23  C   -0.038393
    24  C    0.061334
    25  C   -0.121327
    26  C    0.045070
    27  C    0.034834
    28  C    0.205204
    29  C   -0.006541
    30  C    0.055481
    31  C   -0.166411
    32  C   -0.016214
    33  C   -0.017127
    34  C    0.129938
    35  C   -0.126944
    36  C   -0.144633
    37  C    0.131852
    38  C    0.029320
    39  C    0.128325
    40  C    0.121860
    41  C    0.128768
    42  C    0.089546
    43  C   -0.103115
    44  H    0.135868
    45  H    0.049793
    46  H    0.019419
    47  H   -0.012828
    48  H    0.035028
    49  H    0.032137
    50  H    0.019091
    51  H    0.058860
    52  H    0.137171
    53  H    0.041577
    54  H    0.062398
    55  H   -0.019599
    56  H    0.208194
    57  H    0.040879
    58  H   -0.030466
    59  H    0.060834
    60  H    0.019377
    61  H    0.046675
    62  H    0.047855
    63  H    0.040220
    64  H    0.013276
    65  H    0.041935
    66  H    0.084322
    67  H    0.037410
    68  H   -0.084072
    69  H    0.061927
    70  H    0.000130
    71  H    0.001845
    72  H   -0.008887
    73  H    0.014709
    74  H    0.037953
    75  H    0.008023
    76  H    0.026521
    77  H    0.021210
    78  H    0.040329
    79  H    0.025255
    80  H    0.236603
    81  H    0.157469
 Sum of Mulliken charges =  -0.00000

 Dipole moment (field-independent basis, Debye):
    X=              4.3029    Y=              0.4319    Z=             -1.3217  Tot=              4.5220
 Quadrupole moment (field-independent basis, Debye-Ang):
   XX=           -255.6181   YY=           -249.6566   ZZ=           -256.1730
   XY=            -14.4039   XZ=             17.7185   YZ=             18.3429

 Normal termination of Gaussian 16 at Sun Jun 30 02:00:21 2019.
