 Gaussian 16, Revision A.03,
 Gaussian 16:  ES64L-G16RevA.03 25-Dec-2016

 --------------------------
 # td=(NStates=1) B3LYP/SVP
 --------------------------

 --
 TD
 --
 Symbolic Z-matrix:
 Charge =  0 Multiplicity = 1

                         Standard orientation:
 ---------------------------------------------------------------------
 Center     Atomic      Atomic             Coordinates (Angstroms)
 Number     Number       Type             X           Y           Z
 ---------------------------------------------------------------------
      1          8           0       -4.412024   -4.700597    1.939129
      2          8           0        2.859129   -4.627804    1.468341
      3          8           0        7.194003   -1.353257    1.734571
      4          8           0        3.885378   -2.997332    0.242053
      5          8           0        7.572553   -0.514260   -0.302143
      6          8           0       -3.062462    2.342130   -0.375476
      7          7           0       -0.227224   -0.554639   -0.616965
      8          7           0        1.641345    1.858554   -0.348294
      9          7           0       -3.328567   -3.058851    0.759565
     10          7           0       -0.807883    2.793618   -0.119899
     11          6           0        0.684941   -2.514672   -1.359962
     12          6           0        1.014722   -1.083027   -1.028231
     13          6           0       -0.703148   -2.718361   -1.210466
     14          6           0       -1.256239   -1.394465   -0.666238
     15          6           0        3.804922    1.520095   -0.338614
     16          6           0        2.585961    0.868647   -0.666575
     17          6           0        2.263045   -0.431188   -0.955295
     18          6           0        3.571907    2.812657   -0.005606
     19          6           0        1.661683   -3.486787   -1.895845
     20          6           0       -5.555915   -2.554293    1.307414
     21          6           0       -3.530852   -1.855381    0.147858
     22          6           0        2.115458    2.950759    0.133381
     23          6           0       -5.048909   -1.482604    0.359606
     24          6           0        5.072235    0.731220   -0.503291
     25          6           0       -2.627884   -0.987951   -0.518520
     26          6           0       -1.442239   -3.875413   -1.621588
     27          6           0       -4.440082   -3.561455    1.390530
     28          6           0        2.221128   -4.426446   -0.767585
     29          6           0        5.325078   -0.258613    0.657433
     30          6           0        4.518488    3.868015    0.336210
     31          6           0        1.293229    4.156949    0.448049
     32          6           0       -6.892232   -3.180189    1.091594
     33          6           0       -5.836628   -0.768311   -0.389911
     34          6           0       -0.103805    3.913697    0.291808
     35          6           0       -1.084954    5.079482    0.632095
     36          6           0       -2.417908    4.597974    0.351857
     37          6           0        3.030125   -3.914568    0.324291
     38          6           0       -5.462833    0.225162   -1.511137
     39          6           0        6.795375   -0.759910    0.623458
     40          6           0       -3.787232    5.104423    0.410317
     41          6           0       -2.117691    3.033654   -0.123082
     42          6           0       -0.757945    6.451758    1.065768
     43          6           0       -4.426830    5.503787   -0.950641
     44          1           0       -0.498374    0.375285   -0.274584
     45          1           0        3.280412   -0.966070   -1.033289
     46          1           0        2.498208   -2.906955   -2.262067
     47          1           0        1.252396   -3.887799   -2.778815
     48          1           0       -5.492126   -2.152006    2.331911
     49          1           0        4.969219    0.336625   -1.501499
     50          1           0        6.085016    1.392764   -0.427955
     51          1           0       -2.847092    0.099586   -0.652598
     52          1           0        0.645574    1.930504   -0.747764
     53          1           0       -1.694350   -4.600410   -1.014773
     54          1           0       -2.298778   -3.637388   -2.035910
     55          1           0       -0.818996   -4.280130   -2.648564
     56          1           0       -2.590829   -3.603515    0.736680
     57          1           0        1.398266   -4.824763   -0.123414
     58          1           0        2.762738   -5.068391   -1.320827
     59          1           0        4.732277   -1.062249    0.844369
     60          1           0        5.229634    0.340123    1.667467
     61          1           0        4.379496    4.918199   -0.225191
     62          1           0        5.666029    3.662231   -0.004276
     63          1           0        4.502718    4.247071    1.356021
     64          1           0        1.826556    5.125270    0.765431
     65          1           0       -7.785917   -2.494239    1.219640
     66          1           0       -7.215539   -4.097562    1.829007
     67          1           0       -6.911008   -3.612026   -0.150460
     68          1           0       -6.795101   -0.663782   -0.000557
     69          1           0       -4.972434    1.139535   -1.067939
     70          1           0       -6.110120    0.453280   -2.191481
     71          1           0       -4.579470   -0.203048   -2.077669
     72          1           0       -3.791135    6.088083    1.137993
     73          1           0       -4.547837    4.378498    0.860161
     74          1           0       -0.584508    6.397662    2.352837
     75          1           0       -1.638621    6.962243    1.119204
     76          1           0        0.041081    7.126144    0.551854
     77          1           0       -3.916851    6.525511   -1.271507
     78          1           0       -5.366639    5.997750   -0.643859
     79          1           0       -4.368618    4.672023   -1.664569
     80          1           0        3.355894   -4.131317    2.090999
     81          1           0        8.172690   -1.826414    1.528844
 ---------------------------------------------------------------------

 SCF Done:  E(RB3LYP) =  -1949.04803232     A.U. after   16 cycles

 Excitation energies and oscillator strengths:

 Excited State   1:      Singlet-A      2.0958 eV  591.58 nm  f=0.4535  <S**2>=0.000
     156 ->157         0.70537
 This state for optimization and/or second-order correction.
 Total Energy, E(TD-HF/TD-DFT) =  -1948.97101202
 Copying the excited state density for this state as the 1-particle RhoCI density.

 The electronic state is 1-A.
 Alpha  occ. eigenvalues --  -19.20658 -19.19155 -19.14699 -19.11729 -19.11554
 Alpha  occ. eigenvalues --  -19.09764 -14.38919 -14.38574 -14.35796 -14.29295
 Alpha  occ. eigenvalues --  -10.34476 -10.31489 -10.30349 -10.26530 -10.26056
 Alpha  occ. eigenvalues --  -10.24663 -10.24438 -10.23914 -10.23822 -10.22350
 Alpha  occ. eigenvalues --  -10.22284 -10.22245 -10.21780 -10.21707 -10.21263
 Alpha  occ. eigenvalues --  -10.21123 -10.20875 -10.20609 -10.20579 -10.20417
 Alpha  occ. eigenvalues --  -10.20241 -10.20139 -10.20093 -10.19875 -10.19760
 Alpha  occ. eigenvalues --  -10.19702 -10.19645 -10.19620 -10.19334 -10.19303
 Alpha  occ. eigenvalues --  -10.18571 -10.18531 -10.17399  -1.12001  -1.08716
 Alpha  occ. eigenvalues --   -1.03593  -1.01965  -1.01184  -0.99616  -0.98514
 Alpha  occ. eigenvalues --   -0.98497  -0.96303  -0.90247  -0.83861  -0.83543
 Alpha  occ. eigenvalues --   -0.82487  -0.81053  -0.79876  -0.78600  -0.77982
 Alpha  occ. eigenvalues --   -0.76854  -0.76437  -0.75190  -0.74462  -0.73371
 Alpha  occ. eigenvalues --   -0.71292  -0.70244  -0.69920  -0.68095  -0.67428
 Alpha  occ. eigenvalues --   -0.66867  -0.66199  -0.65321  -0.62871  -0.62262
 Alpha  occ. eigenvalues --   -0.60242  -0.59111  -0.58947  -0.58360  -0.58063
 Alpha  occ. eigenvalues --   -0.56586  -0.55715  -0.55057  -0.54378  -0.53293
 Alpha  occ. eigenvalues --   -0.51834  -0.51483  -0.51254  -0.50732  -0.50219
 Alpha  occ. eigenvalues --   -0.49713  -0.49112  -0.48760  -0.48541  -0.47665
 Alpha  occ. eigenvalues --   -0.47428  -0.46931  -0.46284  -0.46057  -0.45650
 Alpha  occ. eigenvalues --   -0.45326  -0.44713  -0.44392  -0.44342  -0.44067
 Alpha  occ. eigenvalues --   -0.43593  -0.43487  -0.42899  -0.42806  -0.42483
 Alpha  occ. eigenvalues --   -0.42125  -0.41882  -0.41729  -0.41354  -0.41069
 Alpha  occ. eigenvalues --   -0.40995  -0.40822  -0.40347  -0.40047  -0.39891
 Alpha  occ. eigenvalues --   -0.39087  -0.39002  -0.38739  -0.38627  -0.38408
 Alpha  occ. eigenvalues --   -0.38235  -0.37679  -0.36697  -0.36028  -0.35753
 Alpha  occ. eigenvalues --   -0.35704  -0.35298  -0.35145  -0.34684  -0.34645
 Alpha  occ. eigenvalues --   -0.34386  -0.34111  -0.33595  -0.33274  -0.32691
 Alpha  occ. eigenvalues --   -0.32575  -0.31615  -0.31350  -0.30236  -0.29734
 Alpha  occ. eigenvalues --   -0.27422  -0.27350  -0.27053  -0.26538  -0.25927
 Alpha  occ. eigenvalues --   -0.25503  -0.24644  -0.22410  -0.22145  -0.21597
 Alpha  occ. eigenvalues --   -0.18166
 Alpha virt. eigenvalues --   -0.09782  -0.05464  -0.03684  -0.03453  -0.01019
 Alpha virt. eigenvalues --    0.00449   0.01249   0.02086   0.02805   0.03282
 Alpha virt. eigenvalues --    0.03878   0.04309   0.04899   0.05000   0.05419

 Mulliken charges:
               1
     1  O   -0.254486
     2  O   -0.147969
     3  O   -0.225133
     4  O   -0.261141
     5  O   -0.264216
     6  O   -0.212489
     7  N   -0.051375
     8  N   -0.064453
     9  N    0.006349
    10  N   -0.300104
    11  C   -0.142464
    12  C    0.102876
    13  C   -0.176487
    14  C    0.012344
    15  C   -0.047861
    16  C   -0.039619
    17  C   -0.011670
    18  C   -0.084100
    19  C    0.152143
    20  C    0.026225
    21  C    0.056605
    22  C    0.014466
    23  C   -0.019156
    24  C    0.065134
    25  C   -0.093461
    26  C    0.175722
    27  C    0.072970
    28  C    0.102525
    29  C    0.009650
    30  C   -0.005993
    31  C   -0.130917
    32  C   -0.053099
    33  C   -0.118863
    34  C    0.130243
    35  C   -0.119197
    36  C   -0.132439
    37  C    0.127837
    38  C    0.103631
    39  C    0.142189
    40  C   -0.034623
    41  C    0.120505
    42  C    0.072237
    43  C    0.003018
    44  H    0.141443
    45  H    0.041369
    46  H   -0.004266
    47  H   -0.004801
    48  H    0.044705
    49  H    0.028829
    50  H    0.037971
    51  H    0.050038
    52  H    0.172596
    53  H   -0.009893
    54  H   -0.032167
    55  H    0.022460
    56  H    0.073487
    57  H    0.040986
    58  H    0.020852
    59  H    0.003185
    60  H    0.039309
    61  H    0.020555
    62  H    0.035984
    63  H    0.024695
    64  H    0.023371
    65  H    0.032655
    66  H    0.063168
    67  H    0.036718
    68  H   -0.019788
    69  H    0.076966
    70  H   -0.035810
    71  H    0.013633
    72  H    0.008737
    73  H    0.029389
    74  H    0.022030
    75  H   -0.028476
    76  H    0.048616
    77  H    0.005800
    78  H    0.008070
    79  H    0.052674
    80  H    0.168746
    81  H    0.240811
 Sum of Mulliken charges =  -0.00000

 Dipole moment (field-independent basis, Debye):
    X=              1.3482    Y=             -1.6536    Z=              0.2679  Tot=              2.1503
 Quadrupole moment (field-independent basis, Debye-Ang):
   XX=           -251.2718   YY=           -247.4274   ZZ=           -254.1023
   XY=            -16.7012   XZ=             14.6921   YZ=             12.8421

 Normal termination of Gaussian 16 at Sat Jul  6 09:18:14 2019.
