 Gaussian 16, Revision A.03,
 Gaussian 16:  ES64L-G16RevA.03 25-Dec-2016

 --------------------------
 # td=(NStates=1) B3LYP/SVP
 --------------------------

 --
 TD
 --
 Symbolic Z-matrix:
 Charge =  0 Multiplicity = 1

                         Standard orientation:
 ---------------------------------------------------------------------
 Center     Atomic      Atomic             Coordinates (Angstroms)
 Number     Number       Type             X           Y           Z
 ---------------------------------------------------------------------
      1          8           0       -4.618286   -4.657986    1.839652
      2          8           0        2.867428   -4.813717    1.403250
      3          8           0        6.956445   -1.800853    1.870504
      4          8           0        3.702264   -3.206132    0.026539
      5          8           0        7.704354   -0.652213    0.042036
      6          8           0       -2.976650    2.643664   -0.284048
      7          7           0       -0.336570   -0.551052   -0.708294
      8          7           0        1.614210    1.772925   -0.457027
      9          7           0       -3.543274   -3.017440    0.691716
     10          7           0       -0.602200    2.939529   -0.057339
     11          6           0        0.616555   -2.423793   -1.376221
     12          6           0        0.897911   -1.082673   -1.012226
     13          6           0       -0.816871   -2.628209   -1.368679
     14          6           0       -1.359045   -1.438766   -0.740056
     15          6           0        3.828258    1.292478   -0.426984
     16          6           0        2.480426    0.804573   -0.695511
     17          6           0        2.184219   -0.557368   -0.952454
     18          6           0        3.666178    2.677736   -0.130664
     19          6           0        1.541901   -3.493739   -1.783048
     20          6           0       -5.647303   -2.475408    1.346289
     21          6           0       -3.744090   -1.711097    0.121290
     22          6           0        2.231086    2.915144   -0.132124
     23          6           0       -5.165649   -1.413350    0.429490
     24          6           0        5.063588    0.556408   -0.486395
     25          6           0       -2.722985   -0.950619   -0.415051
     26          6           0       -1.631351   -3.867999   -1.798868
     27          6           0       -4.587485   -3.599827    1.310627
     28          6           0        1.921145   -4.665099   -0.861658
     29          6           0        5.358387   -0.279058    0.823115
     30          6           0        4.691092    3.728370    0.214407
     31          6           0        1.446987    4.035992    0.300647
     32          6           0       -6.990271   -2.935732    1.058927
     33          6           0       -5.941970   -0.503996   -0.146191
     34          6           0        0.113475    4.039173    0.217787
     35          6           0       -0.824283    5.196367    0.590341
     36          6           0       -2.075532    4.733121    0.395950
     37          6           0        2.922740   -4.163289    0.181211
     38          6           0       -5.566181    0.597837   -1.231087
     39          6           0        6.822804   -0.852039    0.845297
     40          6           0       -3.376971    5.311688    0.609121
     41          6           0       -1.934929    3.334679   -0.009074
     42          6           0       -0.263095    6.519213    0.944429
     43          6           0       -4.094763    5.601535   -0.856124
     44          1           0       -0.584703    0.343468   -0.225655
     45          1           0        2.881320   -1.169516   -0.997900
     46          1           0        2.541313   -3.075287   -1.945703
     47          1           0        1.365628   -3.859207   -2.771657
     48          1           0       -5.642969   -2.072271    2.370301
     49          1           0        5.108413   -0.094549   -1.222957
     50          1           0        5.832259    1.353114   -0.618217
     51          1           0       -2.859949    0.166819   -0.435967
     52          1           0        0.676128    1.675162   -0.679935
     53          1           0       -1.631107   -4.659921   -1.052151
     54          1           0       -2.585911   -3.413131   -1.863232
     55          1           0       -1.442068   -4.109997   -2.860370
     56          1           0       -2.559166   -3.614359    0.500823
     57          1           0        0.987102   -5.017127   -0.269923
     58          1           0        2.435214   -5.338056   -1.559569
     59          1           0        4.608194   -1.129518    0.981111
     60          1           0        5.309872    0.391509    1.775968
     61          1           0        4.721178    4.465492   -0.508957
     62          1           0        5.539614    3.225824    0.189395
     63          1           0        4.398918    4.236948    1.192624
     64          1           0        2.118746    4.943351    0.359568
     65          1           0       -7.963798   -2.138391    0.793806
     66          1           0       -7.331077   -3.805785    1.846844
     67          1           0       -6.970325   -3.259646    0.130477
     68          1           0       -6.913031   -0.425031    0.234541
     69          1           0       -4.971985    1.479581   -0.680034
     70          1           0       -6.560863    0.703275   -1.590389
     71          1           0       -4.828313    0.168780   -1.983727
     72          1           0       -3.406991    6.232656    1.190795
     73          1           0       -3.957644    4.627939    1.074141
     74          1           0        0.634516    6.667650    1.620953
     75          1           0       -1.021760    7.019800    1.376811
     76          1           0        0.054575    6.911315   -0.055570
     77          1           0       -3.667713    6.432768   -1.421601
     78          1           0       -5.065033    5.995567   -0.568114
     79          1           0       -4.045491    4.602822   -1.368080
     80          1           0        3.527580   -4.370226    2.004707
     81          1           0        7.995848   -2.015183    1.770904
 ---------------------------------------------------------------------

 SCF Done:  E(RB3LYP) =  -1949.12764449     A.U. after   17 cycles

 Excitation energies and oscillator strengths:

 Excited State   1:      Singlet-A      1.9550 eV  634.18 nm  f=0.4076  <S**2>=0.000
     156 ->157         0.70637
     156 <-157        -0.12182
 This state for optimization and/or second-order correction.
 Total Energy, E(TD-HF/TD-DFT) =  -1949.05579812
 Copying the excited state density for this state as the 1-particle RhoCI density.

 The electronic state is 1-A.
 Alpha  occ. eigenvalues --  -19.20068 -19.18530 -19.15147 -19.13983 -19.11095
 Alpha  occ. eigenvalues --  -19.09229 -14.38567 -14.38056 -14.36336 -14.28002
 Alpha  occ. eigenvalues --  -10.34650 -10.32817 -10.28878 -10.25405 -10.25388
 Alpha  occ. eigenvalues --  -10.24647 -10.23930 -10.23680 -10.23511 -10.23131
 Alpha  occ. eigenvalues --  -10.22453 -10.21454 -10.20721 -10.20680 -10.20553
 Alpha  occ. eigenvalues --  -10.20442 -10.20434 -10.20410 -10.20393 -10.20342
 Alpha  occ. eigenvalues --  -10.19768 -10.19645 -10.19607 -10.19248 -10.19235
 Alpha  occ. eigenvalues --  -10.18949 -10.18932 -10.18931 -10.18488 -10.18347
 Alpha  occ. eigenvalues --  -10.17317 -10.17150 -10.17122  -1.09772  -1.08231
 Alpha  occ. eigenvalues --   -1.05076  -1.01015  -1.00771  -0.99794  -0.99090
 Alpha  occ. eigenvalues --   -0.97932  -0.95096  -0.90858  -0.83500  -0.82934
 Alpha  occ. eigenvalues --   -0.82386  -0.81845  -0.79649  -0.79047  -0.78418
 Alpha  occ. eigenvalues --   -0.77423  -0.76707  -0.74949  -0.74163  -0.72904
 Alpha  occ. eigenvalues --   -0.72507  -0.69877  -0.69298  -0.68746  -0.67965
 Alpha  occ. eigenvalues --   -0.67911  -0.66127  -0.64280  -0.62256  -0.61712
 Alpha  occ. eigenvalues --   -0.61106  -0.59684  -0.58535  -0.57593  -0.57101
 Alpha  occ. eigenvalues --   -0.56385  -0.55860  -0.55585  -0.54038  -0.52802
 Alpha  occ. eigenvalues --   -0.52215  -0.51895  -0.51341  -0.50517  -0.50082
 Alpha  occ. eigenvalues --   -0.49929  -0.48967  -0.48838  -0.48454  -0.48186
 Alpha  occ. eigenvalues --   -0.47411  -0.47031  -0.46288  -0.46004  -0.45612
 Alpha  occ. eigenvalues --   -0.45295  -0.45083  -0.44945  -0.44263  -0.43897
 Alpha  occ. eigenvalues --   -0.43777  -0.43536  -0.43122  -0.42917  -0.42627
 Alpha  occ. eigenvalues --   -0.42510  -0.42323  -0.41944  -0.41718  -0.41529
 Alpha  occ. eigenvalues --   -0.40960  -0.40538  -0.40233  -0.40071  -0.39821
 Alpha  occ. eigenvalues --   -0.39666  -0.39340  -0.38798  -0.38762  -0.38304
 Alpha  occ. eigenvalues --   -0.37808  -0.37748  -0.37347  -0.37323  -0.37169
 Alpha  occ. eigenvalues --   -0.36866  -0.36346  -0.35714  -0.35565  -0.35079
 Alpha  occ. eigenvalues --   -0.34618  -0.33899  -0.33777  -0.33287  -0.32762
 Alpha  occ. eigenvalues --   -0.32663  -0.32591  -0.32395  -0.30329  -0.30048
 Alpha  occ. eigenvalues --   -0.28960  -0.26952  -0.26563  -0.26112  -0.25682
 Alpha  occ. eigenvalues --   -0.25265  -0.25049  -0.23457  -0.22870  -0.21594
 Alpha  occ. eigenvalues --   -0.18159
 Alpha virt. eigenvalues --   -0.10564  -0.05368  -0.04100  -0.03293  -0.00596
 Alpha virt. eigenvalues --    0.01141   0.01544   0.02133   0.02812   0.03440
 Alpha virt. eigenvalues --    0.03942   0.04345   0.05085   0.05723   0.06024

 Mulliken charges:
               1
     1  O   -0.174491
     2  O   -0.208280
     3  O   -0.267336
     4  O   -0.250243
     5  O   -0.219785
     6  O   -0.298781
     7  N   -0.085108
     8  N    0.067590
     9  N   -0.201946
    10  N   -0.306930
    11  C   -0.095130
    12  C    0.143740
    13  C   -0.212150
    14  C    0.029802
    15  C   -0.135408
    16  C    0.029947
    17  C    0.064145
    18  C   -0.180204
    19  C    0.065170
    20  C   -0.017339
    21  C    0.122960
    22  C    0.023484
    23  C   -0.010925
    24  C    0.203326
    25  C   -0.126932
    26  C    0.124410
    27  C    0.113332
    28  C    0.051143
    29  C   -0.075838
    30  C    0.225293
    31  C   -0.135712
    32  C    0.010540
    33  C   -0.162856
    34  C    0.116306
    35  C   -0.112326
    36  C   -0.139541
    37  C    0.143941
    38  C    0.021340
    39  C    0.170742
    40  C    0.136839
    41  C    0.164967
    42  C    0.133021
    43  C   -0.035827
    44  H    0.157978
    45  H   -0.165568
    46  H   -0.005526
    47  H   -0.005180
    48  H    0.039966
    49  H   -0.030510
    50  H    0.018613
    51  H    0.048729
    52  H    0.100091
    53  H    0.042624
    54  H    0.007573
    55  H    0.027260
    56  H    0.178726
    57  H    0.055212
    58  H    0.050155
    59  H    0.071661
    60  H    0.047532
    61  H    0.002376
    62  H   -0.043557
    63  H    0.036493
    64  H   -0.012231
    65  H    0.029450
    66  H    0.054451
    67  H   -0.037450
    68  H   -0.027093
    69  H    0.118428
    70  H    0.015675
    71  H    0.036493
    72  H   -0.017567
    73  H   -0.023885
    74  H    0.023923
    75  H   -0.019306
    76  H    0.032486
    77  H    0.006820
    78  H    0.001981
    79  H    0.056863
    80  H    0.205546
    81  H    0.211816
 Sum of Mulliken charges =  -0.00000

 Dipole moment (field-independent basis, Debye):
    X=              3.6934    Y=             -0.4085    Z=             -0.2754  Tot=              3.7261
 Quadrupole moment (field-independent basis, Debye-Ang):
   XX=           -256.0148   YY=           -243.1411   ZZ=           -253.5781
   XY=            -10.8707   XZ=             14.0313   YZ=             15.7081

 Normal termination of Gaussian 16 at Sat Jun 29 01:01:36 2019.
