 Gaussian 16, Revision A.03,
 Gaussian 16:  ES64L-G16RevA.03 25-Dec-2016

 --------------------------
 # td=(NStates=1) B3LYP/SVP
 --------------------------

 --
 TD
 --
 Symbolic Z-matrix:
 Charge =  0 Multiplicity = 1

                         Standard orientation:
 ---------------------------------------------------------------------
 Center     Atomic      Atomic             Coordinates (Angstroms)
 Number     Number       Type             X           Y           Z
 ---------------------------------------------------------------------
      1          8           0       -4.447800   -4.553915    2.061138
      2          8           0        2.775448   -5.006622    1.148125
      3          8           0        7.027253   -1.545450    2.000092
      4          8           0        3.685457   -3.238690    0.063273
      5          8           0        7.825224   -0.550497    0.109375
      6          8           0       -2.954757    2.433949   -0.104572
      7          7           0       -0.347225   -0.497054   -0.699779
      8          7           0        1.608522    1.794927   -0.448360
      9          7           0       -3.495429   -3.054436    0.674807
     10          7           0       -0.695923    2.888533    0.026091
     11          6           0        0.615864   -2.386233   -1.442248
     12          6           0        0.781454   -1.101842   -0.981793
     13          6           0       -0.862655   -2.706698   -1.233610
     14          6           0       -1.365635   -1.442125   -0.753813
     15          6           0        3.843926    1.341849   -0.311068
     16          6           0        2.530066    0.755245   -0.597712
     17          6           0        2.137805   -0.545668   -0.895551
     18          6           0        3.686045    2.662558   -0.078435
     19          6           0        1.688515   -3.356671   -2.016907
     20          6           0       -5.673846   -2.570053    1.272382
     21          6           0       -3.739111   -1.740411    0.109949
     22          6           0        2.267185    2.957078   -0.078459
     23          6           0       -5.116134   -1.499422    0.365873
     24          6           0        5.189701    0.640616   -0.466748
     25          6           0       -2.761097   -1.078785   -0.559113
     26          6           0       -1.528717   -4.004866   -1.613518
     27          6           0       -4.552754   -3.505486    1.360210
     28          6           0        1.995369   -4.473632   -1.092259
     29          6           0        5.474949   -0.286264    0.783966
     30          6           0        4.631846    3.701255    0.446386
     31          6           0        1.445247    4.114087    0.161091
     32          6           0       -6.929483   -3.226761    0.965035
     33          6           0       -5.867291   -0.579272   -0.085578
     34          6           0       -0.049561    4.033111    0.157826
     35          6           0       -0.952142    5.197827    0.369435
     36          6           0       -2.211134    4.692710    0.330636
     37          6           0        2.935424   -4.172569    0.094399
     38          6           0       -5.545404    0.562122   -1.044853
     39          6           0        6.918673   -0.779954    0.855006
     40          6           0       -3.520041    5.402446    0.430835
     41          6           0       -2.038652    3.229570    0.077364
     42          6           0       -0.505098    6.536106    0.858791
     43          6           0       -4.090854    5.792204   -0.926503
     44          1           0       -0.731897    0.292894   -0.378479
     45          1           0        2.902208   -1.089051   -1.080048
     46          1           0        2.572149   -2.948627   -2.436781
     47          1           0        1.120369   -3.752046   -2.936440
     48          1           0       -5.801707   -2.177071    2.423556
     49          1           0        5.233458   -0.097289   -1.429287
     50          1           0        6.067644    1.321442   -1.087341
     51          1           0       -2.891541    0.082007   -0.680115
     52          1           0        0.630960    1.859415   -0.417240
     53          1           0       -1.468623   -4.620360   -0.725666
     54          1           0       -2.432658   -3.759771   -1.927179
     55          1           0       -0.905133   -4.464551   -2.306088
     56          1           0       -2.596460   -3.526190    0.554153
     57          1           0        0.820122   -4.914672   -0.910033
     58          1           0        2.516646   -5.276325   -1.506355
     59          1           0        4.741336   -1.033022    0.776427
     60          1           0        5.254617    0.372817    1.665805
     61          1           0        4.541461    4.703750   -0.033999
     62          1           0        5.743738    3.487765    0.444555
     63          1           0        4.297038    3.803939    1.410168
     64          1           0        1.878187    5.052080    0.572761
     65          1           0       -7.827982   -2.514508    1.107541
     66          1           0       -7.093781   -4.035334    1.642517
     67          1           0       -7.215912   -3.687653    0.031302
     68          1           0       -6.966244   -0.539424    0.429600
     69          1           0       -5.048250    1.302856   -0.610307
     70          1           0       -6.322698    1.113418   -1.481456
     71          1           0       -4.931670    0.315546   -1.885376
     72          1           0       -3.205707    6.234282    1.309543
     73          1           0       -4.256131    4.920219    0.864469
     74          1           0        0.027401    6.566952    1.862390
     75          1           0       -1.278249    7.295780    0.930213
     76          1           0        0.179007    7.040812   -0.072533
     77          1           0       -3.363954    6.636668   -1.586306
     78          1           0       -5.039446    6.388136   -0.724317
     79          1           0       -4.165123    5.079561   -1.610321
     80          1           0        3.430845   -4.610072    1.901906
     81          1           0        7.815009   -2.030807    2.043909
 ---------------------------------------------------------------------

 SCF Done:  E(RB3LYP) =  -1949.06256422     A.U. after   16 cycles

 Excitation energies and oscillator strengths:

 Excited State   1:      Singlet-A      1.8392 eV  674.11 nm  f=0.2925  <S**2>=0.000
     156 ->157         0.70552
     156 <-157        -0.10353
 This state for optimization and/or second-order correction.
 Total Energy, E(TD-HF/TD-DFT) =  -1948.99497390
 Copying the excited state density for this state as the 1-particle RhoCI density.

 The electronic state is 1-A.
 Alpha  occ. eigenvalues --  -19.20391 -19.17366 -19.14636 -19.13659 -19.11072
 Alpha  occ. eigenvalues --  -19.08393 -14.37313 -14.36313 -14.35206 -14.29577
 Alpha  occ. eigenvalues --  -10.33700 -10.32699 -10.27438 -10.26910 -10.24527
 Alpha  occ. eigenvalues --  -10.24007 -10.23854 -10.23656 -10.23290 -10.23276
 Alpha  occ. eigenvalues --  -10.22686 -10.22269 -10.21344 -10.21279 -10.21150
 Alpha  occ. eigenvalues --  -10.20930 -10.20837 -10.20584 -10.20417 -10.20250
 Alpha  occ. eigenvalues --  -10.20154 -10.20038 -10.19958 -10.19862 -10.19771
 Alpha  occ. eigenvalues --  -10.19652 -10.19639 -10.19423 -10.19258 -10.18961
 Alpha  occ. eigenvalues --  -10.18684 -10.18086 -10.16035  -1.10606  -1.09338
 Alpha  occ. eigenvalues --   -1.02170  -1.02000  -1.01632  -1.00933  -1.00018
 Alpha  occ. eigenvalues --   -0.97524  -0.93115  -0.93021  -0.82989  -0.82549
 Alpha  occ. eigenvalues --   -0.82204  -0.80976  -0.80588  -0.79108  -0.78173
 Alpha  occ. eigenvalues --   -0.77463  -0.76528  -0.75789  -0.74488  -0.72941
 Alpha  occ. eigenvalues --   -0.71857  -0.71003  -0.69364  -0.68563  -0.68482
 Alpha  occ. eigenvalues --   -0.67766  -0.66553  -0.65194  -0.62838  -0.61967
 Alpha  occ. eigenvalues --   -0.60976  -0.60412  -0.59224  -0.58044  -0.56944
 Alpha  occ. eigenvalues --   -0.56556  -0.55642  -0.55206  -0.53470  -0.53137
 Alpha  occ. eigenvalues --   -0.52662  -0.51933  -0.51358  -0.50615  -0.50363
 Alpha  occ. eigenvalues --   -0.49802  -0.49636  -0.48557  -0.48237  -0.47819
 Alpha  occ. eigenvalues --   -0.47348  -0.47169  -0.46642  -0.46252  -0.45509
 Alpha  occ. eigenvalues --   -0.45144  -0.44635  -0.44433  -0.44300  -0.44208
 Alpha  occ. eigenvalues --   -0.43900  -0.43466  -0.42898  -0.42730  -0.42302
 Alpha  occ. eigenvalues --   -0.41827  -0.41757  -0.41573  -0.41362  -0.41281
 Alpha  occ. eigenvalues --   -0.41135  -0.40854  -0.40580  -0.40170  -0.40029
 Alpha  occ. eigenvalues --   -0.39885  -0.39534  -0.39331  -0.38741  -0.38564
 Alpha  occ. eigenvalues --   -0.38438  -0.38165  -0.37825  -0.36742  -0.36413
 Alpha  occ. eigenvalues --   -0.36211  -0.35789  -0.35664  -0.34365  -0.34189
 Alpha  occ. eigenvalues --   -0.34060  -0.33654  -0.33407  -0.33207  -0.32996
 Alpha  occ. eigenvalues --   -0.32345  -0.32052  -0.31400  -0.29893  -0.29598
 Alpha  occ. eigenvalues --   -0.29075  -0.28840  -0.26308  -0.25934  -0.25720
 Alpha  occ. eigenvalues --   -0.25032  -0.24709  -0.24097  -0.23893  -0.21419
 Alpha  occ. eigenvalues --   -0.17946
 Alpha virt. eigenvalues --   -0.10479  -0.06139  -0.03820  -0.01090  -0.00074
 Alpha virt. eigenvalues --    0.00039   0.01571   0.02598   0.03270   0.03339
 Alpha virt. eigenvalues --    0.04024   0.04828   0.05572   0.06233   0.06321

 Mulliken charges:
               1
     1  O   -0.280539
     2  O   -0.225359
     3  O   -0.196561
     4  O   -0.208951
     5  O   -0.190161
     6  O   -0.204122
     7  N    0.047218
     8  N   -0.069660
     9  N   -0.098821
    10  N   -0.266689
    11  C   -0.158799
    12  C    0.130585
    13  C   -0.224858
    14  C   -0.040704
    15  C   -0.038383
    16  C    0.073377
    17  C    0.059616
    18  C   -0.104679
    19  C    0.124735
    20  C   -0.023456
    21  C    0.124699
    22  C    0.070157
    23  C    0.077138
    24  C   -0.079152
    25  C   -0.167860
    26  C    0.230837
    27  C    0.086082
    28  C   -0.004856
    29  C    0.026474
    30  C    0.105187
    31  C   -0.097242
    32  C    0.051691
    33  C   -0.223021
    34  C    0.030863
    35  C   -0.075467
    36  C   -0.170247
    37  C    0.147468
    38  C    0.169539
    39  C    0.158206
    40  C    0.123426
    41  C    0.142323
    42  C    0.018166
    43  C    0.003650
    44  H    0.099693
    45  H   -0.140245
    46  H   -0.000885
    47  H    0.022992
    48  H    0.067291
    49  H    0.032126
    50  H    0.062062
    51  H    0.053658
    52  H    0.084653
    53  H    0.036216
    54  H   -0.000625
    55  H   -0.015696
    56  H    0.124123
    57  H    0.046376
    58  H    0.018157
    59  H    0.037068
    60  H    0.046163
    61  H    0.021649
    62  H    0.029695
    63  H    0.010490
    64  H   -0.011593
    65  H    0.007696
    66  H    0.017496
    67  H    0.001385
    68  H    0.015518
    69  H   -0.005740
    70  H   -0.025432
    71  H    0.005038
    72  H    0.018992
    73  H   -0.039367
    74  H    0.053572
    75  H    0.014933
    76  H    0.037427
    77  H    0.007080
    78  H    0.030865
    79  H    0.001812
    80  H    0.228560
    81  H    0.154948
 Sum of Mulliken charges =  -0.00000

 Dipole moment (field-independent basis, Debye):
    X=              2.6579    Y=              1.6911    Z=             -0.3509  Tot=              3.1698
 Quadrupole moment (field-independent basis, Debye-Ang):
   XX=           -253.3336   YY=           -240.1984   ZZ=           -253.6370
   XY=            -23.9453   XZ=             18.0404   YZ=             17.7064

 Normal termination of Gaussian 16 at Tue Jul  2 01:37:15 2019.
