 Gaussian 16, Revision A.03,
 Gaussian 16:  ES64L-G16RevA.03 25-Dec-2016

 --------------------------
 # td=(NStates=1) B3LYP/SVP
 --------------------------

 --
 TD
 --
 Symbolic Z-matrix:
 Charge =  0 Multiplicity = 1

                         Standard orientation:
 ---------------------------------------------------------------------
 Center     Atomic      Atomic             Coordinates (Angstroms)
 Number     Number       Type             X           Y           Z
 ---------------------------------------------------------------------
      1          8           0       -4.451291   -4.698108    1.947993
      2          8           0        3.053570   -4.828734    1.419714
      3          8           0        7.183403   -1.234065    1.902780
      4          8           0        3.775981   -3.139048    0.024909
      5          8           0        7.626682   -0.506628   -0.197787
      6          8           0       -3.136318    2.430767   -0.233379
      7          7           0       -0.217935   -0.542012   -0.622653
      8          7           0        1.494878    1.810106   -0.463435
      9          7           0       -3.398738   -3.158822    0.599027
     10          7           0       -0.817867    2.919630   -0.157354
     11          6           0        0.739170   -2.397684   -1.429524
     12          6           0        0.943383   -1.145357   -0.914834
     13          6           0       -0.742089   -2.670090   -1.259100
     14          6           0       -1.220642   -1.471676   -0.712483
     15          6           0        3.750382    1.413276   -0.326929
     16          6           0        2.503887    0.827374   -0.610628
     17          6           0        2.252887   -0.509860   -0.899941
     18          6           0        3.516635    2.749630    0.044497
     19          6           0        1.749171   -3.489491   -1.891185
     20          6           0       -5.468206   -2.573314    1.295089
     21          6           0       -3.545419   -1.899078    0.098766
     22          6           0        2.103358    3.073287   -0.124107
     23          6           0       -4.935062   -1.582315    0.324835
     24          6           0        4.991187    0.716337   -0.443162
     25          6           0       -2.626162   -1.124556   -0.414240
     26          6           0       -1.568741   -3.974172   -1.627962
     27          6           0       -4.396159   -3.630122    1.343576
     28          6           0        2.042542   -4.470775   -0.868274
     29          6           0        5.438397    0.011264    0.861904
     30          6           0        4.527950    3.837966    0.303572
     31          6           0        1.228051    4.119392    0.168265
     32          6           0       -6.928592   -3.181231    1.060871
     33          6           0       -5.695426   -0.625028   -0.289917
     34          6           0       -0.198740    3.937476    0.093430
     35          6           0       -1.129046    5.130703    0.475082
     36          6           0       -2.361607    4.586281    0.424501
     37          6           0        2.988789   -4.006059    0.287579
     38          6           0       -5.401163    0.408501   -1.249374
     39          6           0        6.832434   -0.584036    0.753877
     40          6           0       -3.656065    5.202230    0.578695
     41          6           0       -2.156763    3.174051   -0.041341
     42          6           0       -0.659928    6.514124    0.850692
     43          6           0       -4.346315    5.537325   -0.721252
     44          1           0       -0.210958    0.460822   -0.348020
     45          1           0        3.060987   -1.015050   -1.223537
     46          1           0        2.604322   -2.933417   -2.161793
     47          1           0        1.629189   -3.982998   -2.805725
     48          1           0       -5.257389   -2.195336    2.423565
     49          1           0        4.913330   -0.108720   -1.228314
     50          1           0        5.713294    1.293396   -0.781928
     51          1           0       -2.848253   -0.097098   -0.541844
     52          1           0        0.646859    1.886795   -0.822107
     53          1           0       -1.902004   -4.635172   -0.880518
     54          1           0       -2.411006   -3.675611   -2.466261
     55          1           0       -0.808334   -4.708069   -2.212688
     56          1           0       -2.551504   -3.506640    0.432806
     57          1           0        0.996825   -5.041438   -0.365625
     58          1           0        2.502296   -5.450003   -1.310694
     59          1           0        4.745507   -0.848322    1.246804
     60          1           0        5.513484    0.648187    1.869672
     61          1           0        4.407234    4.570778   -0.608328
     62          1           0        5.699156    3.458051    0.147736
     63          1           0        4.296330    4.376290    1.404472
     64          1           0        1.758751    5.011926    0.498229
     65          1           0       -7.774765   -2.268242    1.151871
     66          1           0       -7.065882   -4.089214    1.724773
     67          1           0       -7.047881   -3.675129    0.174390
     68          1           0       -6.717070   -0.506272    0.022915
     69          1           0       -4.752131    1.337182   -0.751860
     70          1           0       -6.453916    0.766874   -1.761367
     71          1           0       -4.734164    0.192605   -2.093785
     72          1           0       -3.702702    6.126927    1.288938
     73          1           0       -4.343360    4.410531    1.171153
     74          1           0       -0.135529    6.347924    1.757146
     75          1           0       -1.463337    7.206424    1.020814
     76          1           0       -0.143767    6.924816   -0.001171
     77          1           0       -3.717239    6.441152   -1.229358
     78          1           0       -5.305298    5.622370   -0.448819
     79          1           0       -4.345330    4.698363   -1.340380
     80          1           0        3.844111   -4.471288    1.974013
     81          1           0        8.088979   -1.395424    1.826038
 ---------------------------------------------------------------------

 SCF Done:  E(RB3LYP) =  -1949.08191256     A.U. after   16 cycles

 Excitation energies and oscillator strengths:

 Excited State   1:      Singlet-A      1.9168 eV  646.85 nm  f=0.3067  <S**2>=0.000
     155 ->157        -0.11327
     156 ->157         0.69930
 This state for optimization and/or second-order correction.
 Total Energy, E(TD-HF/TD-DFT) =  -1949.01147319
 Copying the excited state density for this state as the 1-particle RhoCI density.

 The electronic state is 1-A.
 Alpha  occ. eigenvalues --  -19.19725 -19.18351 -19.14823 -19.13304 -19.11911
 Alpha  occ. eigenvalues --  -19.09499 -14.37755 -14.35834 -14.35465 -14.30115
 Alpha  occ. eigenvalues --  -10.33827 -10.32944 -10.28051 -10.27952 -10.24898
 Alpha  occ. eigenvalues --  -10.23859 -10.23682 -10.23546 -10.23520 -10.23470
 Alpha  occ. eigenvalues --  -10.23016 -10.22902 -10.22500 -10.22212 -10.21365
 Alpha  occ. eigenvalues --  -10.21180 -10.21093 -10.20622 -10.20386 -10.20372
 Alpha  occ. eigenvalues --  -10.20349 -10.20041 -10.19771 -10.19503 -10.19473
 Alpha  occ. eigenvalues --  -10.19432 -10.19165 -10.18792 -10.18679 -10.18599
 Alpha  occ. eigenvalues --  -10.18021 -10.17641 -10.17283  -1.10054  -1.09510
 Alpha  occ. eigenvalues --   -1.03028  -1.02340  -1.01727  -1.00013  -0.99336
 Alpha  occ. eigenvalues --   -0.97406  -0.96540  -0.95758  -0.84197  -0.82091
 Alpha  occ. eigenvalues --   -0.81388  -0.81254  -0.80986  -0.79338  -0.78097
 Alpha  occ. eigenvalues --   -0.76921  -0.76602  -0.75688  -0.74413  -0.73024
 Alpha  occ. eigenvalues --   -0.71064  -0.70383  -0.69780  -0.68966  -0.68283
 Alpha  occ. eigenvalues --   -0.67446  -0.65850  -0.64444  -0.62274  -0.62073
 Alpha  occ. eigenvalues --   -0.60669  -0.60189  -0.59209  -0.59157  -0.57668
 Alpha  occ. eigenvalues --   -0.57078  -0.56148  -0.55743  -0.54109  -0.53524
 Alpha  occ. eigenvalues --   -0.52727  -0.52393  -0.50996  -0.50298  -0.49950
 Alpha  occ. eigenvalues --   -0.49474  -0.48650  -0.48472  -0.48191  -0.47821
 Alpha  occ. eigenvalues --   -0.47275  -0.46753  -0.46335  -0.46150  -0.45785
 Alpha  occ. eigenvalues --   -0.45165  -0.44708  -0.44640  -0.44273  -0.44139
 Alpha  occ. eigenvalues --   -0.43619  -0.43390  -0.43323  -0.42821  -0.42641
 Alpha  occ. eigenvalues --   -0.42369  -0.42165  -0.41691  -0.41540  -0.41434
 Alpha  occ. eigenvalues --   -0.41057  -0.40853  -0.40313  -0.39537  -0.39364
 Alpha  occ. eigenvalues --   -0.39180  -0.38953  -0.38691  -0.38430  -0.38281
 Alpha  occ. eigenvalues --   -0.37755  -0.37323  -0.37160  -0.37056  -0.36727
 Alpha  occ. eigenvalues --   -0.36441  -0.35848  -0.35525  -0.35111  -0.34758
 Alpha  occ. eigenvalues --   -0.34452  -0.34311  -0.33916  -0.33362  -0.32799
 Alpha  occ. eigenvalues --   -0.32627  -0.32378  -0.31921  -0.30372  -0.29584
 Alpha  occ. eigenvalues --   -0.28695  -0.28495  -0.26583  -0.25968  -0.25529
 Alpha  occ. eigenvalues --   -0.25135  -0.24900  -0.24533  -0.23942  -0.21615
 Alpha  occ. eigenvalues --   -0.18463
 Alpha virt. eigenvalues --   -0.10710  -0.06043  -0.03348  -0.02160  -0.01162
 Alpha virt. eigenvalues --    0.01146   0.02122   0.02407   0.03064   0.03367
 Alpha virt. eigenvalues --    0.03995   0.04442   0.04766   0.05913   0.06080

 Mulliken charges:
               1
     1  O   -0.235459
     2  O   -0.239555
     3  O   -0.164871
     4  O   -0.217621
     5  O   -0.257028
     6  O   -0.222055
     7  N   -0.030018
     8  N   -0.129170
     9  N    0.031277
    10  N   -0.142735
    11  C   -0.152106
    12  C    0.061784
    13  C   -0.146548
    14  C    0.047791
    15  C   -0.041975
    16  C    0.090323
    17  C    0.018729
    18  C   -0.105102
    19  C    0.226095
    20  C   -0.075757
    21  C    0.063761
    22  C    0.084830
    23  C    0.020307
    24  C    0.189223
    25  C   -0.083044
    26  C   -0.007184
    27  C    0.077363
    28  C   -0.094238
    29  C   -0.078634
    30  C   -0.055781
    31  C   -0.133760
    32  C    0.046895
    33  C   -0.115019
    34  C    0.045335
    35  C   -0.169709
    36  C   -0.127414
    37  C    0.179263
    38  C   -0.042230
    39  C    0.153220
    40  C   -0.049288
    41  C    0.152949
    42  C    0.183106
    43  C    0.105276
    44  H    0.137526
    45  H   -0.075683
    46  H   -0.021714
    47  H   -0.016150
    48  H    0.061083
    49  H    0.028904
    50  H   -0.040332
    51  H   -0.027769
    52  H    0.091120
    53  H    0.037217
    54  H    0.067529
    55  H    0.022348
    56  H    0.063814
    57  H    0.048411
    58  H    0.056454
    59  H    0.066363
    60  H    0.058493
    61  H    0.056977
    62  H    0.048413
    63  H    0.063299
    64  H   -0.029171
    65  H    0.047680
    66  H    0.036854
    67  H   -0.012582
    68  H   -0.019588
    69  H    0.117983
    70  H    0.019175
    71  H    0.017957
    72  H    0.009958
    73  H    0.016276
    74  H    0.025840
    75  H   -0.003906
    76  H    0.019990
    77  H    0.025319
    78  H   -0.020252
    79  H   -0.004428
    80  H    0.212429
    81  H    0.152936
 Sum of Mulliken charges =  -0.00000

 Dipole moment (field-independent basis, Debye):
    X=              4.4026    Y=              2.5661    Z=             -0.2931  Tot=              5.1043
 Quadrupole moment (field-independent basis, Debye-Ang):
   XX=           -258.1375   YY=           -243.3780   ZZ=           -254.8841
   XY=            -15.3261   XZ=             19.6290   YZ=             15.7252

 Normal termination of Gaussian 16 at Thu Jun 27 05:16:06 2019.
