 Gaussian 16, Revision A.03,
 Gaussian 16:  ES64L-G16RevA.03 25-Dec-2016

 --------------------------
 # td=(NStates=1) B3LYP/SVP
 --------------------------

 --
 TD
 --
 Symbolic Z-matrix:
 Charge =  0 Multiplicity = 1

                         Standard orientation:
 ---------------------------------------------------------------------
 Center     Atomic      Atomic             Coordinates (Angstroms)
 Number     Number       Type             X           Y           Z
 ---------------------------------------------------------------------
      1          8           0       -4.671587   -4.577625    1.904933
      2          8           0        2.766579   -4.706579    1.445008
      3          8           0        7.165871   -1.512608    1.959853
      4          8           0        3.658568   -3.246104    0.056654
      5          8           0        7.642538   -0.755137   -0.183460
      6          8           0       -2.935692    2.585668   -0.150342
      7          7           0       -0.334209   -0.626833   -0.551143
      8          7           0        1.653518    1.706781   -0.382585
      9          7           0       -3.653338   -2.990089    0.552025
     10          7           0       -0.584205    2.973903    0.037514
     11          6           0        0.439396   -2.602538   -1.372283
     12          6           0        0.870834   -1.194425   -0.904587
     13          6           0       -0.893240   -2.687507   -1.124064
     14          6           0       -1.341787   -1.441177   -0.638013
     15          6           0        3.826520    1.333459   -0.440963
     16          6           0        2.482743    0.649260   -0.650577
     17          6           0        2.174640   -0.606214   -0.934265
     18          6           0        3.646498    2.607674   -0.053168
     19          6           0        1.521384   -3.559900   -1.955034
     20          6           0       -5.749346   -2.340553    1.231538
     21          6           0       -3.715411   -1.762852    0.073382
     22          6           0        2.231299    2.827844    0.034042
     23          6           0       -5.156049   -1.376802    0.349139
     24          6           0        5.149821    0.477800   -0.571078
     25          6           0       -2.686454   -0.984336   -0.486405
     26          6           0       -1.734716   -3.891653   -1.668671
     27          6           0       -4.695904   -3.509178    1.337376
     28          6           0        1.906175   -4.670778   -0.797835
     29          6           0        5.484127   -0.307020    0.724324
     30          6           0        4.725114    3.671589    0.127222
     31          6           0        1.551649    3.994452    0.233479
     32          6           0       -7.108666   -2.860840    0.938508
     33          6           0       -5.775735   -0.410389   -0.181336
     34          6           0        0.178353    4.103065    0.284627
     35          6           0       -0.738147    5.268423    0.426968
     36          6           0       -2.012619    4.756922    0.470465
     37          6           0        2.859346   -4.122607    0.220818
     38          6           0       -5.468272    0.515549   -1.321917
     39          6           0        6.836315   -0.932394    0.773053
     40          6           0       -3.454760    5.388365    0.572935
     41          6           0       -1.934796    3.304577    0.101310
     42          6           0       -0.366571    6.666671    0.753490
     43          6           0       -4.064945    5.696282   -0.873256
     44          1           0       -0.307169    0.274284   -0.129241
     45          1           0        2.913206   -1.318331   -1.118997
     46          1           0        2.440227   -3.073421   -2.128357
     47          1           0        1.039471   -4.154483   -2.704667
     48          1           0       -5.779445   -1.918040    2.330886
     49          1           0        4.945452   -0.127216   -1.547441
     50          1           0        5.923048    1.344835   -0.725393
     51          1           0       -2.800836    0.122681   -0.410532
     52          1           0        0.515613    1.867493   -0.182336
     53          1           0       -1.404416   -4.610813   -0.784579
     54          1           0       -2.845432   -3.748508   -1.782897
     55          1           0       -1.325610   -4.329697   -2.744927
     56          1           0       -2.670353   -3.355285    0.866763
     57          1           0        1.105630   -5.037198   -0.186574
     58          1           0        2.606144   -5.473636   -1.211917
     59          1           0        4.651425   -1.105097    0.894477
     60          1           0        5.284378    0.221472    1.772838
     61          1           0        4.596025    4.355976   -0.642007
     62          1           0        5.804612    3.235359   -0.038559
     63          1           0        4.915166    4.094559    0.982804
     64          1           0        2.284706    4.780918    0.573848
     65          1           0       -7.960830   -2.378689    1.427844
     66          1           0       -7.208485   -3.640421    1.483039
     67          1           0       -7.289446   -2.900752   -0.139424
     68          1           0       -6.800037   -0.281603    0.033548
     69          1           0       -4.665161    1.390042   -1.148994
     70          1           0       -6.267970    0.885528   -1.696266
     71          1           0       -4.770229   -0.028609   -2.136742
     72          1           0       -3.478631    6.465554    0.986053
     73          1           0       -3.992998    4.569471    1.316394
     74          1           0        0.195743    6.502599    1.632988
     75          1           0       -1.065431    7.397819    1.114825
     76          1           0        0.305497    7.081628   -0.032459
     77          1           0       -3.469048    6.410012   -1.554715
     78          1           0       -5.206048    6.162658   -0.787614
     79          1           0       -4.175338    4.860474   -1.496019
     80          1           0        3.409872   -4.459128    2.171113
     81          1           0        8.043338   -1.834288    1.816037
 ---------------------------------------------------------------------

 SCF Done:  E(RB3LYP) =  -1949.07963379     A.U. after   16 cycles

 Excitation energies and oscillator strengths:

 Excited State   1:      Singlet-A      1.9082 eV  649.73 nm  f=0.4262  <S**2>=0.000
     156 ->157         0.71102
     156 <-157        -0.12457
 This state for optimization and/or second-order correction.
 Total Energy, E(TD-HF/TD-DFT) =  -1949.00950741
 Copying the excited state density for this state as the 1-particle RhoCI density.

 The electronic state is 1-A.
 Alpha  occ. eigenvalues --  -19.19025 -19.18494 -19.13508 -19.13296 -19.12177
 Alpha  occ. eigenvalues --  -19.09752 -14.38426 -14.38148 -14.34552 -14.29150
 Alpha  occ. eigenvalues --  -10.33094 -10.32352 -10.30624 -10.26106 -10.24756
 Alpha  occ. eigenvalues --  -10.23448 -10.23303 -10.23114 -10.22629 -10.22598
 Alpha  occ. eigenvalues --  -10.22433 -10.22390 -10.22150 -10.21780 -10.21519
 Alpha  occ. eigenvalues --  -10.21261 -10.21016 -10.20915 -10.20542 -10.20120
 Alpha  occ. eigenvalues --  -10.19876 -10.19848 -10.19285 -10.19130 -10.18816
 Alpha  occ. eigenvalues --  -10.18719 -10.18673 -10.18636 -10.18525 -10.18521
 Alpha  occ. eigenvalues --  -10.18186 -10.17592 -10.17482  -1.10112  -1.09381
 Alpha  occ. eigenvalues --   -1.05218  -1.01082  -1.00596  -0.98964  -0.98661
 Alpha  occ. eigenvalues --   -0.97815  -0.97615  -0.90795  -0.83534  -0.82153
 Alpha  occ. eigenvalues --   -0.82033  -0.80479  -0.79362  -0.78264  -0.78114
 Alpha  occ. eigenvalues --   -0.77245  -0.76478  -0.75418  -0.73421  -0.71878
 Alpha  occ. eigenvalues --   -0.71016  -0.70518  -0.69292  -0.69108  -0.68286
 Alpha  occ. eigenvalues --   -0.67236  -0.66236  -0.65140  -0.63283  -0.61630
 Alpha  occ. eigenvalues --   -0.60770  -0.60185  -0.59089  -0.58534  -0.58207
 Alpha  occ. eigenvalues --   -0.55810  -0.55199  -0.54229  -0.53636  -0.52996
 Alpha  occ. eigenvalues --   -0.52061  -0.51603  -0.51328  -0.50333  -0.49558
 Alpha  occ. eigenvalues --   -0.49303  -0.48838  -0.48474  -0.48134  -0.47753
 Alpha  occ. eigenvalues --   -0.46981  -0.46464  -0.45963  -0.45790  -0.45544
 Alpha  occ. eigenvalues --   -0.45005  -0.44923  -0.44549  -0.44225  -0.43978
 Alpha  occ. eigenvalues --   -0.43645  -0.43277  -0.42796  -0.42572  -0.42454
 Alpha  occ. eigenvalues --   -0.41966  -0.41475  -0.41089  -0.40524  -0.40375
 Alpha  occ. eigenvalues --   -0.40114  -0.39988  -0.39878  -0.39658  -0.39606
 Alpha  occ. eigenvalues --   -0.39332  -0.38803  -0.38634  -0.38392  -0.38116
 Alpha  occ. eigenvalues --   -0.37955  -0.37564  -0.37510  -0.36643  -0.36545
 Alpha  occ. eigenvalues --   -0.36350  -0.35972  -0.35216  -0.34666  -0.34503
 Alpha  occ. eigenvalues --   -0.34028  -0.33473  -0.33350  -0.33207  -0.32926
 Alpha  occ. eigenvalues --   -0.32835  -0.31827  -0.31553  -0.30259  -0.28971
 Alpha  occ. eigenvalues --   -0.27951  -0.27486  -0.27306  -0.26295  -0.25951
 Alpha  occ. eigenvalues --   -0.25466  -0.25254  -0.23575  -0.23031  -0.21665
 Alpha  occ. eigenvalues --   -0.17453
 Alpha virt. eigenvalues --   -0.10089  -0.05417  -0.02996  -0.01376  -0.01198
 Alpha virt. eigenvalues --   -0.00292   0.02048   0.02403   0.03265   0.04514
 Alpha virt. eigenvalues --    0.04791   0.05404   0.05637   0.06110   0.06249

 Mulliken charges:
               1
     1  O   -0.181903
     2  O   -0.226965
     3  O   -0.166100
     4  O   -0.213116
     5  O   -0.277868
     6  O   -0.260751
     7  N    0.046612
     8  N   -0.151942
     9  N   -0.116799
    10  N   -0.360147
    11  C   -0.127858
    12  C   -0.051182
    13  C   -0.163959
    14  C    0.021449
    15  C   -0.136695
    16  C    0.131477
    17  C   -0.006605
    18  C   -0.113843
    19  C    0.207089
    20  C   -0.121023
    21  C    0.053162
    22  C    0.005789
    23  C    0.060984
    24  C    0.098621
    25  C   -0.092768
    26  C   -0.018134
    27  C    0.132754
    28  C   -0.006881
    29  C   -0.054782
    30  C    0.167722
    31  C   -0.107223
    32  C    0.191731
    33  C   -0.165764
    34  C    0.137762
    35  C   -0.098808
    36  C   -0.169192
    37  C    0.096539
    38  C    0.047380
    39  C    0.180407
    40  C    0.035136
    41  C    0.184052
    42  C    0.127820
    43  C   -0.042109
    44  H    0.112293
    45  H   -0.032044
    46  H    0.013234
    47  H    0.000839
    48  H    0.056044
    49  H    0.049014
    50  H    0.031255
    51  H    0.030007
    52  H    0.206509
    53  H    0.044265
    54  H    0.056737
    55  H    0.053719
    56  H    0.161060
    57  H    0.033195
    58  H    0.061067
    59  H    0.058392
    60  H    0.049701
    61  H    0.011525
    62  H    0.003676
    63  H   -0.023526
    64  H   -0.013527
    65  H   -0.012560
    66  H   -0.051990
    67  H    0.023735
    68  H   -0.034563
    69  H    0.093265
    70  H   -0.037058
    71  H    0.025240
    72  H    0.012694
    73  H    0.054934
    74  H    0.005861
    75  H    0.006898
    76  H    0.021225
    77  H    0.023057
    78  H    0.021190
    79  H    0.013189
    80  H    0.209559
    81  H    0.167821
 Sum of Mulliken charges =  -0.00000

 Dipole moment (field-independent basis, Debye):
    X=              1.5817    Y=             -1.1171    Z=              1.8227  Tot=              2.6593
 Quadrupole moment (field-independent basis, Debye-Ang):
   XX=           -254.8461   YY=           -239.6883   ZZ=           -251.1004
   XY=             -9.1021   XZ=             17.1338   YZ=              9.1438

 Normal termination of Gaussian 16 at Sun Jun 30 22:58:04 2019.
