 Gaussian 16, Revision A.03,
 Gaussian 16:  ES64L-G16RevA.03 25-Dec-2016

 --------------------------
 # td=(NStates=1) B3LYP/SVP
 --------------------------

 --
 TD
 --
 Symbolic Z-matrix:
 Charge =  0 Multiplicity = 1

                         Standard orientation:
 ---------------------------------------------------------------------
 Center     Atomic      Atomic             Coordinates (Angstroms)
 Number     Number       Type             X           Y           Z
 ---------------------------------------------------------------------
      1          8           0       -4.420774   -4.825164    1.902520
      2          8           0        3.105139   -4.691107    1.361839
      3          8           0        7.089067   -1.347091    1.933136
      4          8           0        3.804580   -2.973965    0.164243
      5          8           0        7.650168   -0.445575   -0.093213
      6          8           0       -3.121564    2.442197   -0.257568
      7          7           0       -0.285965   -0.679743   -0.632472
      8          7           0        1.537010    1.785535   -0.393802
      9          7           0       -3.411942   -3.215738    0.583489
     10          7           0       -0.878185    2.878042   -0.175645
     11          6           0        0.676018   -2.553108   -1.350970
     12          6           0        0.908244   -1.195061   -0.890275
     13          6           0       -0.689237   -2.830211   -1.302310
     14          6           0       -1.296279   -1.633418   -0.818330
     15          6           0        3.739153    1.447983   -0.505591
     16          6           0        2.451146    0.797807   -0.583746
     17          6           0        2.264365   -0.514711   -0.880349
     18          6           0        3.503072    2.701073   -0.047167
     19          6           0        1.707007   -3.576338   -1.843154
     20          6           0       -5.556208   -2.615457    1.280434
     21          6           0       -3.671275   -1.853753    0.114504
     22          6           0        2.124437    2.911973   -0.075082
     23          6           0       -4.978813   -1.561736    0.428564
     24          6           0        5.057994    0.879646   -0.494234
     25          6           0       -2.609841   -1.098621   -0.448894
     26          6           0       -1.501937   -3.985160   -1.793235
     27          6           0       -4.442961   -3.716738    1.407912
     28          6           0        2.239809   -4.561842   -0.834494
     29          6           0        5.381235    0.036166    0.850323
     30          6           0        4.559673    3.782403    0.207954
     31          6           0        1.294185    4.057136    0.181074
     32          6           0       -7.003394   -3.056812    1.063185
     33          6           0       -5.760207   -0.559478   -0.115381
     34          6           0       -0.124854    3.987860    0.214483
     35          6           0       -1.056315    5.120186    0.410928
     36          6           0       -2.330809    4.736030    0.399721
     37          6           0        3.109172   -3.944174    0.282197
     38          6           0       -5.440516    0.355914   -1.280208
     39          6           0        6.795123   -0.656152    0.804012
     40          6           0       -3.654931    5.366829    0.636637
     41          6           0       -2.185191    3.218170   -0.113267
     42          6           0       -0.556233    6.494745    0.899819
     43          6           0       -4.286833    5.656409   -0.763210
     44          1           0       -0.365312    0.185865   -0.076393
     45          1           0        3.118416   -1.028074   -1.066757
     46          1           0        2.638080   -3.040844   -2.249291
     47          1           0        1.184562   -4.144753   -2.572438
     48          1           0       -5.599303   -2.273150    2.431277
     49          1           0        5.217488    0.275278   -1.379639
     50          1           0        5.850386    1.354185   -0.680816
     51          1           0       -2.851145   -0.025281   -0.783977
     52          1           0        0.487877    1.679263   -0.849668
     53          1           0       -1.503532   -4.808617   -0.988724
     54          1           0       -2.463783   -3.514926   -1.977162
     55          1           0       -0.943515   -4.265421   -2.751823
     56          1           0       -2.427758   -3.509323    0.570606
     57          1           0        1.300130   -5.093610   -0.440852
     58          1           0        2.830731   -5.375986   -1.344476
     59          1           0        4.771835   -0.874761    0.876233
     60          1           0        5.355685    0.721952    1.700280
     61          1           0        4.133033    4.806150   -0.162987
     62          1           0        5.707125    3.750433   -0.134264
     63          1           0        4.503446    3.896464    1.398740
     64          1           0        1.523896    5.257244    0.233373
     65          1           0       -7.754970   -2.344317    1.563918
     66          1           0       -7.225637   -3.963181    1.542502
     67          1           0       -7.258630   -3.068434    0.070496
     68          1           0       -6.823161   -0.466760    0.225280
     69          1           0       -4.879498    1.356970   -1.101455
     70          1           0       -6.522333    0.645489   -1.776851
     71          1           0       -4.944894   -0.141341   -2.131402
     72          1           0       -3.528023    6.364243    0.972449
     73          1           0       -4.434773    4.745763    1.145689
     74          1           0        0.039839    6.363205    1.831350
     75          1           0       -1.261319    7.157185    1.268661
     76          1           0        0.196863    7.161713    0.343999
     77          1           0       -3.845253    6.518107   -1.400117
     78          1           0       -5.279826    6.171296   -0.552255
     79          1           0       -4.368977    4.849792   -1.438944
     80          1           0        3.803515   -4.277683    2.009274
     81          1           0        8.050588   -1.520529    1.666427
 ---------------------------------------------------------------------

 SCF Done:  E(RB3LYP) =  -1949.13630478     A.U. after   16 cycles

 Excitation energies and oscillator strengths:

 Excited State   1:      Singlet-A      1.8661 eV  664.40 nm  f=0.3554  <S**2>=0.000
     156 ->157         0.70714
     156 <-157        -0.10108
 This state for optimization and/or second-order correction.
 Total Energy, E(TD-HF/TD-DFT) =  -1949.06772689
 Copying the excited state density for this state as the 1-particle RhoCI density.

 The electronic state is 1-A.
 Alpha  occ. eigenvalues --  -19.20572 -19.20060 -19.14512 -19.13522 -19.11031
 Alpha  occ. eigenvalues --  -19.09477 -14.38157 -14.37109 -14.36015 -14.28474
 Alpha  occ. eigenvalues --  -10.33687 -10.33209 -10.29418 -10.25729 -10.24779
 Alpha  occ. eigenvalues --  -10.23831 -10.23781 -10.23587 -10.23088 -10.23017
 Alpha  occ. eigenvalues --  -10.22396 -10.22363 -10.21706 -10.21643 -10.21401
 Alpha  occ. eigenvalues --  -10.20896 -10.20810 -10.20547 -10.20197 -10.20158
 Alpha  occ. eigenvalues --  -10.20077 -10.19994 -10.19859 -10.19848 -10.19539
 Alpha  occ. eigenvalues --  -10.19405 -10.19292 -10.19086 -10.18881 -10.18751
 Alpha  occ. eigenvalues --  -10.18663 -10.18203 -10.18030  -1.12394  -1.10092
 Alpha  occ. eigenvalues --   -1.02812  -1.02671  -1.00909  -1.00320  -0.99398
 Alpha  occ. eigenvalues --   -0.98996  -0.93560  -0.90382  -0.83325  -0.82584
 Alpha  occ. eigenvalues --   -0.81574  -0.81390  -0.79350  -0.79041  -0.77417
 Alpha  occ. eigenvalues --   -0.76910  -0.75795  -0.74790  -0.73536  -0.72024
 Alpha  occ. eigenvalues --   -0.70894  -0.70296  -0.68844  -0.68366  -0.68185
 Alpha  occ. eigenvalues --   -0.67771  -0.65993  -0.63683  -0.61915  -0.61250
 Alpha  occ. eigenvalues --   -0.60693  -0.58755  -0.58098  -0.57404  -0.57215
 Alpha  occ. eigenvalues --   -0.57040  -0.55929  -0.54776  -0.53328  -0.52278
 Alpha  occ. eigenvalues --   -0.52129  -0.51977  -0.51013  -0.50747  -0.49912
 Alpha  occ. eigenvalues --   -0.49694  -0.49476  -0.49242  -0.48925  -0.47693
 Alpha  occ. eigenvalues --   -0.47329  -0.46535  -0.46315  -0.45789  -0.45290
 Alpha  occ. eigenvalues --   -0.44835  -0.44651  -0.43952  -0.43724  -0.43692
 Alpha  occ. eigenvalues --   -0.43455  -0.43182  -0.43017  -0.42450  -0.42028
 Alpha  occ. eigenvalues --   -0.41933  -0.41758  -0.41508  -0.41423  -0.40890
 Alpha  occ. eigenvalues --   -0.40552  -0.39969  -0.39564  -0.39504  -0.39362
 Alpha  occ. eigenvalues --   -0.39188  -0.39022  -0.38709  -0.38348  -0.38040
 Alpha  occ. eigenvalues --   -0.37740  -0.37487  -0.37331  -0.37088  -0.36879
 Alpha  occ. eigenvalues --   -0.36716  -0.36228  -0.36124  -0.35284  -0.34676
 Alpha  occ. eigenvalues --   -0.34512  -0.34449  -0.34000  -0.33933  -0.33239
 Alpha  occ. eigenvalues --   -0.32821  -0.32615  -0.32421  -0.30289  -0.29725
 Alpha  occ. eigenvalues --   -0.28478  -0.26745  -0.26417  -0.26178  -0.25878
 Alpha  occ. eigenvalues --   -0.25423  -0.24700  -0.23326  -0.22953  -0.21008
 Alpha  occ. eigenvalues --   -0.18021
 Alpha virt. eigenvalues --   -0.10503  -0.05871  -0.04197  -0.01435  -0.00932
 Alpha virt. eigenvalues --    0.00099   0.01807   0.02221   0.03191   0.03923
 Alpha virt. eigenvalues --    0.04374   0.04409   0.05226   0.05708   0.05854

 Mulliken charges:
               1
     1  O   -0.200295
     2  O   -0.172549
     3  O   -0.191412
     4  O   -0.218383
     5  O   -0.283886
     6  O   -0.225138
     7  N   -0.053358
     8  N   -0.079184
     9  N   -0.193881
    10  N   -0.296669
    11  C   -0.152578
    12  C    0.009404
    13  C   -0.186324
    14  C    0.053255
    15  C   -0.062762
    16  C    0.034720
    17  C    0.032396
    18  C   -0.099941
    19  C    0.139228
    20  C   -0.131360
    21  C    0.051523
    22  C    0.141421
    23  C    0.042483
    24  C    0.205581
    25  C   -0.119874
    26  C    0.085203
    27  C    0.160849
    28  C   -0.026478
    29  C    0.003466
    30  C   -0.005953
    31  C   -0.156953
    32  C    0.110427
    33  C   -0.114990
    34  C    0.036029
    35  C   -0.058075
    36  C   -0.181288
    37  C    0.129254
    38  C   -0.032649
    39  C    0.150831
    40  C    0.161882
    41  C    0.124078
    42  C    0.060562
    43  C   -0.060924
    44  H    0.150389
    45  H   -0.054842
    46  H    0.022155
    47  H   -0.020731
    48  H    0.056621
    49  H   -0.013277
    50  H   -0.089550
    51  H    0.058836
    52  H    0.208620
    53  H    0.052367
    54  H    0.042268
    55  H    0.036899
    56  H    0.131741
    57  H    0.033736
    58  H    0.054050
    59  H    0.051615
    60  H    0.048007
    61  H    0.039540
    62  H    0.065902
    63  H    0.036656
    64  H    0.023015
    65  H    0.013111
    66  H    0.009366
    67  H   -0.003184
    68  H    0.008430
    69  H    0.102765
    70  H    0.010528
    71  H    0.025837
    72  H   -0.018143
    73  H    0.032641
    74  H    0.008688
    75  H   -0.019672
    76  H    0.023205
    77  H    0.008013
    78  H    0.005803
    79  H    0.026351
    80  H    0.214615
    81  H    0.189944
 Sum of Mulliken charges =  -0.00000

 Dipole moment (field-independent basis, Debye):
    X=              3.5267    Y=              0.4931    Z=              0.3493  Tot=              3.5781
 Quadrupole moment (field-independent basis, Debye-Ang):
   XX=           -248.2001   YY=           -244.3406   ZZ=           -254.2591
   XY=            -16.6234   XZ=             14.2247   YZ=             12.8536

 Normal termination of Gaussian 16 at Fri Jul  5 04:22:03 2019.
