 Gaussian 16, Revision A.03,
 Gaussian 16:  ES64L-G16RevA.03 25-Dec-2016

 --------------------------
 # td=(NStates=1) B3LYP/SVP
 --------------------------

 --
 TD
 --
 Symbolic Z-matrix:
 Charge =  0 Multiplicity = 1

                         Standard orientation:
 ---------------------------------------------------------------------
 Center     Atomic      Atomic             Coordinates (Angstroms)
 Number     Number       Type             X           Y           Z
 ---------------------------------------------------------------------
      1          8           0        4.534748   -4.624827   -1.990093
      2          8           0       -2.873176   -4.946569   -1.364022
      3          8           0       -7.177553   -1.536744   -1.803093
      4          8           0       -3.700571   -3.148461   -0.175667
      5          8           0       -7.605940   -0.749797    0.304108
      6          8           0        3.051403    2.544365    0.040111
      7          7           0        0.351357   -0.535015    0.637467
      8          7           0       -1.621271    1.747321    0.140236
      9          7           0        3.456168   -3.103068   -0.589839
     10          7           0        0.802544    2.848630   -0.008936
     11          6           0       -0.579307   -2.547220    1.291890
     12          6           0       -0.845548   -1.181652    0.965472
     13          6           0        0.819842   -2.745064    1.282315
     14          6           0        1.383664   -1.420264    0.875799
     15          6           0       -3.846782    1.273872    0.342485
     16          6           0       -2.532876    0.701131    0.468882
     17          6           0       -2.069508   -0.559421    0.844991
     18          6           0       -3.600231    2.731105   -0.045282
     19          6           0       -1.609160   -3.501368    1.774115
     20          6           0        5.644145   -2.619548   -1.289020
     21          6           0        3.738147   -1.792199   -0.008387
     22          6           0       -2.168743    2.921893   -0.154267
     23          6           0        5.128668   -1.512547   -0.277450
     24          6           0       -5.166337    0.664602    0.450316
     25          6           0        2.737759   -0.985460    0.535017
     26          6           0        1.636020   -3.884719    1.930829
     27          6           0        4.543268   -3.579720   -1.335765
     28          6           0       -2.006910   -4.590895    0.877093
     29          6           0       -5.540192   -0.124009   -0.775021
     30          6           0       -4.602581    3.775928   -0.134998
     31          6           0       -1.408931    4.063235   -0.360408
     32          6           0        7.164964   -3.041539   -1.199159
     33          6           0        5.893002   -0.545771    0.282751
     34          6           0        0.000043    3.988947   -0.315138
     35          6           0        0.923054    5.128042   -0.483936
     36          6           0        2.162285    4.685112   -0.239765
     37          6           0       -2.971683   -4.149499   -0.295633
     38          6           0        5.388298    0.517468    1.239265
     39          6           0       -6.857365   -0.746261   -0.693984
     40          6           0        3.388155    5.511229   -0.410908
     41          6           0        2.061173    3.241342   -0.027408
     42          6           0        0.448650    6.588436   -0.828455
     43          6           0        3.950772    5.991999    0.902564
     44          1           0        0.406646    0.400306    0.594850
     45          1           0       -2.959507   -1.285360    1.096101
     46          1           0       -2.297813   -2.985531    2.092910
     47          1           0       -1.064338   -4.028311    2.592525
     48          1           0        5.413612   -2.205817   -2.281608
     49          1           0       -4.900390    0.076224    1.303224
     50          1           0       -5.980482    1.362892    0.817854
     51          1           0        2.925203    0.027948    1.078077
     52          1           0       -0.562034    1.576940    0.027839
     53          1           0        1.430150   -4.769022    1.291943
     54          1           0        2.630342   -3.646545    2.190685
     55          1           0        1.352629   -4.258461    2.993136
     56          1           0        2.345365   -3.403426   -0.988986
     57          1           0       -1.112208   -5.245295    0.453242
     58          1           0       -2.550320   -5.337531    1.411790
     59          1           0       -4.815942   -0.922655   -0.835908
     60          1           0       -5.537816    0.666494   -1.635516
     61          1           0       -4.728176    4.632271    0.550631
     62          1           0       -5.625261    3.270696   -0.077527
     63          1           0       -4.432638    4.378923   -1.090837
     64          1           0       -1.858531    5.040534   -0.657021
     65          1           0        7.758867   -2.012811   -1.268663
     66          1           0        7.229820   -3.781408   -1.932698
     67          1           0        7.313989   -3.387995   -0.340555
     68          1           0        6.782495   -0.516197   -0.113894
     69          1           0        4.699207    1.248011    0.709822
     70          1           0        6.228232    0.981450    1.741135
     71          1           0        4.853055    0.008743    2.112839
     72          1           0        3.261163    6.414131   -1.136336
     73          1           0        4.253934    4.829560   -0.794825
     74          1           0       -0.282226    6.633436   -1.718549
     75          1           0        1.218509    7.085512   -0.988213
     76          1           0       -0.330544    6.963756   -0.101647
     77          1           0        3.421403    6.726282    1.382373
     78          1           0        5.092304    6.203978    0.934036
     79          1           0        3.917652    5.115381    1.608612
     80          1           0       -3.417908   -4.571593   -1.990186
     81          1           0       -8.065859   -1.837413   -1.506698
 ---------------------------------------------------------------------

 SCF Done:  E(RB3LYP) =  -1949.08033153     A.U. after   20 cycles

 Excitation energies and oscillator strengths:

 Excited State   1:      Singlet-A      1.9341 eV  641.04 nm  f=0.4056  <S**2>=0.000
     156 ->157         0.70690
     156 <-157        -0.12085
 This state for optimization and/or second-order correction.
 Total Energy, E(TD-HF/TD-DFT) =  -1949.00925445
 Copying the excited state density for this state as the 1-particle RhoCI density.

 The electronic state is 1-A.
 Alpha  occ. eigenvalues --  -19.21439 -19.18194 -19.15452 -19.13228 -19.10458
 Alpha  occ. eigenvalues --  -19.08064 -14.38341 -14.37988 -14.35880 -14.27631
 Alpha  occ. eigenvalues --  -10.35067 -10.32482 -10.29024 -10.25687 -10.25304
 Alpha  occ. eigenvalues --  -10.24055 -10.23990 -10.23849 -10.23520 -10.22899
 Alpha  occ. eigenvalues --  -10.22576 -10.22484 -10.21739 -10.21522 -10.21362
 Alpha  occ. eigenvalues --  -10.21334 -10.21083 -10.20961 -10.20457 -10.20365
 Alpha  occ. eigenvalues --  -10.20300 -10.20042 -10.19995 -10.19852 -10.19102
 Alpha  occ. eigenvalues --  -10.18976 -10.18840 -10.18836 -10.18523 -10.18428
 Alpha  occ. eigenvalues --  -10.18336 -10.16858 -10.16832  -1.13321  -1.08252
 Alpha  occ. eigenvalues --   -1.02753  -1.02167  -1.00438  -0.99288  -0.99067
 Alpha  occ. eigenvalues --   -0.97079  -0.93122  -0.90279  -0.84710  -0.83111
 Alpha  occ. eigenvalues --   -0.81414  -0.81181  -0.79312  -0.78868  -0.78571
 Alpha  occ. eigenvalues --   -0.77551  -0.76968  -0.74934  -0.73910  -0.72704
 Alpha  occ. eigenvalues --   -0.72050  -0.70744  -0.70180  -0.68883  -0.68811
 Alpha  occ. eigenvalues --   -0.67521  -0.66569  -0.64930  -0.63825  -0.62589
 Alpha  occ. eigenvalues --   -0.60113  -0.59715  -0.58280  -0.58006  -0.57028
 Alpha  occ. eigenvalues --   -0.55969  -0.55157  -0.54419  -0.53754  -0.53071
 Alpha  occ. eigenvalues --   -0.52462  -0.52350  -0.51697  -0.50884  -0.50534
 Alpha  occ. eigenvalues --   -0.50317  -0.49431  -0.49036  -0.48360  -0.48093
 Alpha  occ. eigenvalues --   -0.47382  -0.46970  -0.46375  -0.45646  -0.45612
 Alpha  occ. eigenvalues --   -0.45267  -0.44803  -0.44373  -0.44107  -0.43735
 Alpha  occ. eigenvalues --   -0.43513  -0.43133  -0.42879  -0.42635  -0.42505
 Alpha  occ. eigenvalues --   -0.42275  -0.42168  -0.41991  -0.41636  -0.41244
 Alpha  occ. eigenvalues --   -0.40915  -0.40717  -0.40559  -0.40325  -0.39963
 Alpha  occ. eigenvalues --   -0.39493  -0.39002  -0.38791  -0.38453  -0.37919
 Alpha  occ. eigenvalues --   -0.37717  -0.37618  -0.37463  -0.37398  -0.36986
 Alpha  occ. eigenvalues --   -0.36523  -0.36237  -0.36031  -0.35867  -0.35492
 Alpha  occ. eigenvalues --   -0.34908  -0.34141  -0.33597  -0.33362  -0.32665
 Alpha  occ. eigenvalues --   -0.32357  -0.32056  -0.31983  -0.30397  -0.29718
 Alpha  occ. eigenvalues --   -0.28431  -0.26830  -0.26562  -0.26149  -0.25689
 Alpha  occ. eigenvalues --   -0.25028  -0.23365  -0.23111  -0.22513  -0.21571
 Alpha  occ. eigenvalues --   -0.18276
 Alpha virt. eigenvalues --   -0.10737  -0.05989  -0.04618  -0.02636  -0.01409
 Alpha virt. eigenvalues --   -0.00786   0.01017   0.01983   0.02449   0.03913
 Alpha virt. eigenvalues --    0.04301   0.04682   0.05076   0.05887   0.06221

 Mulliken charges:
               1
     1  O   -0.237700
     2  O   -0.103772
     3  O   -0.218231
     4  O   -0.252603
     5  O   -0.261579
     6  O   -0.227496
     7  N   -0.018678
     8  N   -0.129326
     9  N   -0.245028
    10  N   -0.307494
    11  C   -0.129289
    12  C    0.058072
    13  C   -0.159335
    14  C    0.006939
    15  C   -0.092966
    16  C    0.065384
    17  C   -0.078450
    18  C   -0.127205
    19  C    0.285679
    20  C   -0.033394
    21  C    0.115719
    22  C    0.152884
    23  C   -0.037184
    24  C    0.077216
    25  C   -0.084317
    26  C    0.078256
    27  C    0.088258
    28  C    0.002864
    29  C    0.057077
    30  C    0.031815
    31  C   -0.145008
    32  C    0.168286
    33  C   -0.066636
    34  C    0.097244
    35  C   -0.120843
    36  C   -0.157447
    37  C    0.138784
    38  C    0.037536
    39  C    0.153223
    40  C    0.030180
    41  C    0.105861
    42  C    0.204712
    43  C    0.009089
    44  H    0.080729
    45  H    0.039547
    46  H   -0.093762
    47  H    0.002880
    48  H    0.048319
    49  H    0.003868
    50  H    0.029812
    51  H    0.068387
    52  H    0.162687
    53  H    0.026290
    54  H    0.021663
    55  H    0.026710
    56  H    0.206230
    57  H    0.044290
    58  H    0.029910
    59  H    0.050549
    60  H    0.059580
    61  H    0.026445
    62  H    0.014563
    63  H    0.021284
    64  H   -0.020590
    65  H    0.043960
    66  H    0.026953
    67  H   -0.042437
    68  H   -0.091005
    69  H    0.115220
    70  H   -0.000237
    71  H    0.026462
    72  H    0.021167
    73  H    0.018638
    74  H    0.006948
    75  H   -0.063525
    76  H    0.018694
    77  H   -0.013089
    78  H    0.012751
    79  H    0.006895
    80  H    0.152820
    81  H    0.179291
 Sum of Mulliken charges =  -0.00000

 Dipole moment (field-independent basis, Debye):
    X=             -2.4562    Y=             -1.6173    Z=              0.6618  Tot=              3.0144
 Quadrupole moment (field-independent basis, Debye-Ang):
   XX=           -254.0847   YY=           -243.5341   ZZ=           -253.9929
   XY=              8.6591   XZ=             17.4404   YZ=            -12.6524

 Normal termination of Gaussian 16 at Sat Jul  6 21:49:34 2019.
