 Gaussian 16, Revision A.03,
 Gaussian 16:  ES64L-G16RevA.03 25-Dec-2016

 --------------------------
 # td=(NStates=1) B3LYP/SVP
 --------------------------

 --
 TD
 --
 Symbolic Z-matrix:
 Charge =  0 Multiplicity = 1

                         Standard orientation:
 ---------------------------------------------------------------------
 Center     Atomic      Atomic             Coordinates (Angstroms)
 Number     Number       Type             X           Y           Z
 ---------------------------------------------------------------------
      1          8           0        4.726147   -4.717027   -1.867840
      2          8           0       -2.669462   -4.995760   -1.238697
      3          8           0       -7.165712   -1.726710   -1.790880
      4          8           0       -3.698885   -3.254894   -0.154444
      5          8           0       -7.792730   -0.535936    0.045168
      6          8           0        2.928903    2.501355    0.264231
      7          7           0        0.369693   -0.634703    0.549883
      8          7           0       -1.548233    1.755370    0.394365
      9          7           0        3.605253   -3.153156   -0.532082
     10          7           0        0.658047    2.947694    0.177260
     11          6           0       -0.619214   -2.503508    1.375430
     12          6           0       -0.832280   -1.179025    0.875099
     13          6           0        0.822032   -2.638898    1.317184
     14          6           0        1.302783   -1.486570    0.751226
     15          6           0       -3.874275    1.374885    0.315608
     16          6           0       -2.498130    0.675332    0.516314
     17          6           0       -2.207452   -0.596994    0.784563
     18          6           0       -3.670546    2.675881    0.063721
     19          6           0       -1.668069   -3.442679    1.956014
     20          6           0        5.702362   -2.453397   -1.457928
     21          6           0        3.722122   -1.833678   -0.065531
     22          6           0       -2.209540    2.948585    0.154366
     23          6           0        5.108053   -1.387437   -0.474492
     24          6           0       -5.184525    0.548831    0.347544
     25          6           0        2.735731   -1.079059    0.473848
     26          6           0        1.599875   -3.714817    1.902293
     27          6           0        4.580233   -3.631513   -1.318024
     28          6           0       -1.982781   -4.603756    0.886652
     29          6           0       -5.499985   -0.263623   -0.916189
     30          6           0       -4.640239    3.760669   -0.282411
     31          6           0       -1.436590    4.077183   -0.139367
     32          6           0        7.047367   -2.896026   -1.179550
     33          6           0        5.867484   -0.479476    0.141786
     34          6           0       -0.086627    4.109685   -0.139226
     35          6           0        0.886668    5.264573   -0.542830
     36          6           0        2.081205    4.680910   -0.281945
     37          6           0       -2.871596   -4.194907   -0.209730
     38          6           0        5.570820    0.595047    1.215493
     39          6           0       -6.908484   -0.864401   -0.772880
     40          6           0        3.359358    5.472083   -0.534930
     41          6           0        2.031433    3.244724    0.058132
     42          6           0        0.406435    6.627478   -0.986234
     43          6           0        4.044523    5.815351    0.803502
     44          1           0        0.672774    0.336925    0.210922
     45          1           0       -3.110942   -1.287466    1.058168
     46          1           0       -2.441912   -2.846032    2.441582
     47          1           0       -1.170516   -4.191281    2.743023
     48          1           0        5.684589   -2.073478   -2.421453
     49          1           0       -4.972027   -0.052552    1.216038
     50          1           0       -6.074326    1.193341    0.584285
     51          1           0        2.994691    0.084426    0.558010
     52          1           0       -0.506527    1.907169    0.669519
     53          1           0        1.745687   -4.696908    1.260231
     54          1           0        2.573979   -3.511898    1.890748
     55          1           0        1.251264   -4.166063    3.034125
     56          1           0        2.697731   -3.598739   -0.338679
     57          1           0       -1.007479   -5.049314    0.468093
     58          1           0       -2.557152   -5.276852    1.383132
     59          1           0       -4.676354   -1.018994   -1.074599
     60          1           0       -5.354900    0.313563   -1.868370
     61          1           0       -4.591807    4.717192    0.224483
     62          1           0       -5.720240    3.339718   -0.066713
     63          1           0       -4.857404    4.064081   -1.325832
     64          1           0       -2.052891    5.086595   -0.322383
     65          1           0        7.854040   -2.347264   -1.007483
     66          1           0        7.405113   -3.737581   -1.946819
     67          1           0        7.090344   -3.350138   -0.118264
     68          1           0        6.957085   -0.259074   -0.266623
     69          1           0        5.003905    1.346609    0.732483
     70          1           0        6.534708    0.928508    1.908576
     71          1           0        4.620284    0.247668    1.901502
     72          1           0        3.272150    6.326113   -1.056022
     73          1           0        4.121329    4.920396   -1.058697
     74          1           0       -0.147914    6.590277   -1.877436
     75          1           0        1.213745    7.305299   -0.995744
     76          1           0       -0.310464    6.980963   -0.108037
     77          1           0        3.588822    6.624089    1.429303
     78          1           0        4.957364    6.422349    0.595520
     79          1           0        4.407875    4.941194    1.438215
     80          1           0       -3.282284   -4.608964   -2.000591
     81          1           0       -8.100653   -1.907243   -1.905558
 ---------------------------------------------------------------------

 SCF Done:  E(RB3LYP) =  -1949.12750217     A.U. after   16 cycles

 Excitation energies and oscillator strengths:

 Excited State   1:      Singlet-A      2.1113 eV  587.24 nm  f=0.3174  <S**2>=0.000
     156 ->157         0.70415
 This state for optimization and/or second-order correction.
 Total Energy, E(TD-HF/TD-DFT) =  -1949.04991291
 Copying the excited state density for this state as the 1-particle RhoCI density.

 The electronic state is 1-A.
 Alpha  occ. eigenvalues --  -19.21112 -19.18474 -19.13826 -19.13264 -19.11152
 Alpha  occ. eigenvalues --  -19.10449 -14.38581 -14.37742 -14.35874 -14.28986
 Alpha  occ. eigenvalues --  -10.33278 -10.33265 -10.29102 -10.26843 -10.25013
 Alpha  occ. eigenvalues --  -10.24354 -10.23901 -10.23376 -10.23341 -10.22612
 Alpha  occ. eigenvalues --  -10.22468 -10.22234 -10.21982 -10.21805 -10.21544
 Alpha  occ. eigenvalues --  -10.21225 -10.20763 -10.20751 -10.20700 -10.20498
 Alpha  occ. eigenvalues --  -10.20240 -10.20152 -10.19999 -10.19902 -10.19707
 Alpha  occ. eigenvalues --  -10.19677 -10.19554 -10.19494 -10.18823 -10.18546
 Alpha  occ. eigenvalues --  -10.17997 -10.17789 -10.17453  -1.11121  -1.09039
 Alpha  occ. eigenvalues --   -1.03883  -1.02378  -1.01170  -1.00435  -0.99541
 Alpha  occ. eigenvalues --   -0.95933  -0.95404  -0.90104  -0.82174  -0.81865
 Alpha  occ. eigenvalues --   -0.81019  -0.80870  -0.79551  -0.78957  -0.78082
 Alpha  occ. eigenvalues --   -0.77477  -0.76372  -0.75101  -0.73909  -0.72593
 Alpha  occ. eigenvalues --   -0.71216  -0.69452  -0.69171  -0.68818  -0.67970
 Alpha  occ. eigenvalues --   -0.67836  -0.65321  -0.63859  -0.61811  -0.61664
 Alpha  occ. eigenvalues --   -0.60743  -0.60623  -0.59419  -0.58605  -0.56898
 Alpha  occ. eigenvalues --   -0.56482  -0.55908  -0.55101  -0.53626  -0.53041
 Alpha  occ. eigenvalues --   -0.51548  -0.51207  -0.50570  -0.50470  -0.50359
 Alpha  occ. eigenvalues --   -0.50015  -0.48486  -0.48167  -0.47685  -0.47605
 Alpha  occ. eigenvalues --   -0.46927  -0.46281  -0.45910  -0.45542  -0.45241
 Alpha  occ. eigenvalues --   -0.44933  -0.44513  -0.44366  -0.44177  -0.43871
 Alpha  occ. eigenvalues --   -0.43445  -0.43055  -0.42766  -0.42734  -0.42410
 Alpha  occ. eigenvalues --   -0.41702  -0.41436  -0.41360  -0.41116  -0.40716
 Alpha  occ. eigenvalues --   -0.40557  -0.40305  -0.39969  -0.39951  -0.39472
 Alpha  occ. eigenvalues --   -0.39347  -0.38990  -0.38747  -0.38588  -0.38372
 Alpha  occ. eigenvalues --   -0.38155  -0.37792  -0.37582  -0.36909  -0.36450
 Alpha  occ. eigenvalues --   -0.36219  -0.35355  -0.34920  -0.34762  -0.34338
 Alpha  occ. eigenvalues --   -0.34218  -0.33857  -0.33500  -0.33231  -0.33068
 Alpha  occ. eigenvalues --   -0.32374  -0.31680  -0.30954  -0.30108  -0.29201
 Alpha  occ. eigenvalues --   -0.28667  -0.28158  -0.26517  -0.26266  -0.25567
 Alpha  occ. eigenvalues --   -0.24741  -0.24537  -0.24317  -0.23512  -0.21933
 Alpha  occ. eigenvalues --   -0.18894
 Alpha virt. eigenvalues --   -0.10151  -0.04850  -0.02936  -0.01791  -0.01248
 Alpha virt. eigenvalues --    0.01346   0.01485   0.02132   0.03004   0.03534
 Alpha virt. eigenvalues --    0.04141   0.04438   0.05163   0.05590   0.05887

 Mulliken charges:
               1
     1  O   -0.223153
     2  O   -0.183432
     3  O   -0.185955
     4  O   -0.274173
     5  O   -0.255880
     6  O   -0.162213
     7  N    0.019394
     8  N   -0.176012
     9  N   -0.089732
    10  N   -0.400968
    11  C   -0.118016
    12  C    0.023204
    13  C   -0.134966
    14  C   -0.020986
    15  C   -0.088798
    16  C    0.112897
    17  C   -0.102525
    18  C   -0.066651
    19  C    0.066574
    20  C   -0.017520
    21  C    0.075569
    22  C    0.072004
    23  C   -0.013706
    24  C    0.091951
    25  C   -0.134157
    26  C    0.049880
    27  C    0.133541
    28  C    0.054628
    29  C   -0.018576
    30  C    0.046566
    31  C   -0.140437
    32  C    0.064307
    33  C   -0.168954
    34  C    0.108833
    35  C   -0.089932
    36  C   -0.193133
    37  C    0.133037
    38  C   -0.009709
    39  C    0.186974
    40  C    0.168397
    41  C    0.184248
    42  C    0.144978
    43  C   -0.058573
    44  H    0.171338
    45  H    0.057439
    46  H    0.030353
    47  H    0.020606
    48  H    0.009595
    49  H    0.016577
    50  H    0.030942
    51  H    0.063807
    52  H    0.176729
    53  H    0.012929
    54  H   -0.031467
    55  H    0.051037
    56  H    0.129658
    57  H    0.064192
    58  H    0.015269
    59  H    0.051708
    60  H    0.044904
    61  H    0.024719
    62  H    0.012190
    63  H    0.025328
    64  H    0.002873
    65  H   -0.028513
    66  H    0.037534
    67  H   -0.007761
    68  H    0.022858
    69  H    0.053258
    70  H    0.050576
    71  H    0.029959
    72  H   -0.048486
    73  H   -0.003102
    74  H    0.024243
    75  H    0.005224
    76  H    0.038653
    77  H    0.001585
    78  H   -0.009956
    79  H    0.044877
    80  H    0.219730
    81  H    0.179768
 Sum of Mulliken charges =  -0.00000

 Dipole moment (field-independent basis, Debye):
    X=             -4.3964    Y=              2.1035    Z=             -1.2913  Tot=              5.0419
 Quadrupole moment (field-independent basis, Debye-Ang):
   XX=           -259.7329   YY=           -236.8287   ZZ=           -252.5815
   XY=             21.4705   XZ=             21.0971   YZ=            -13.9918

 Normal termination of Gaussian 16 at Sat Jun 29 21:48:16 2019.
