 Gaussian 16, Revision A.03,
 Gaussian 16:  ES64L-G16RevA.03 25-Dec-2016

 --------------------------
 # td=(NStates=1) B3LYP/SVP
 --------------------------

 --
 TD
 --
 Symbolic Z-matrix:
 Charge =  0 Multiplicity = 1

                         Standard orientation:
 ---------------------------------------------------------------------
 Center     Atomic      Atomic             Coordinates (Angstroms)
 Number     Number       Type             X           Y           Z
 ---------------------------------------------------------------------
      1          8           0       -4.942503   -4.455379    1.861666
      2          8           0        2.660215   -4.837304    1.375753
      3          8           0        7.109961   -1.767882    1.777406
      4          8           0        3.596161   -3.226189    0.134531
      5          8           0        7.566068   -0.818815   -0.134405
      6          8           0       -2.881085    2.653822   -0.135471
      7          7           0       -0.386577   -0.547883   -0.507849
      8          7           0        1.676537    1.709811   -0.372537
      9          7           0       -3.662285   -2.960401    0.679039
     10          7           0       -0.548951    2.885610   -0.038006
     11          6           0        0.466769   -2.548171   -1.184526
     12          6           0        0.832829   -1.203783   -0.890991
     13          6           0       -0.913617   -2.703924   -1.099337
     14          6           0       -1.422314   -1.457115   -0.744118
     15          6           0        3.793949    1.154034   -0.433323
     16          6           0        2.452729    0.646943   -0.544678
     17          6           0        2.137646   -0.676496   -0.922906
     18          6           0        3.740648    2.466409   -0.093982
     19          6           0        1.393394   -3.542646   -1.885558
     20          6           0       -5.769336   -2.223808    1.305258
     21          6           0       -3.784015   -1.768033    0.057372
     22          6           0        2.356766    2.836204   -0.025534
     23          6           0       -5.183974   -1.269877    0.328137
     24          6           0        5.076056    0.385878   -0.532227
     25          6           0       -2.777939   -1.034949   -0.569195
     26          6           0       -1.692814   -3.837714   -1.683300
     27          6           0       -4.790269   -3.408208    1.340397
     28          6           0        1.933661   -4.670624   -0.887545
     29          6           0        5.343255   -0.370440    0.811045
     30          6           0        4.817492    3.423641    0.355034
     31          6           0        1.627412    4.054446    0.314294
     32          6           0       -7.217475   -2.743304    1.038712
     33          6           0       -5.871244   -0.280088   -0.189008
     34          6           0        0.222499    4.053084    0.208403
     35          6           0       -0.608662    5.206401    0.383802
     36          6           0       -1.885640    4.805241    0.368178
     37          6           0        2.776556   -4.133976    0.136063
     38          6           0       -5.482367    0.607562   -1.248363
     39          6           0        6.794050   -1.007456    0.660933
     40          6           0       -3.173598    5.642633    0.448937
     41          6           0       -1.873984    3.359211    0.034236
     42          6           0        0.058155    6.531569    0.778279
     43          6           0       -3.868612    5.816595   -0.918993
     44          1           0       -0.319905    0.419394   -0.189439
     45          1           0        2.982717   -1.365242   -1.065660
     46          1           0        2.307269   -3.142230   -2.505821
     47          1           0        0.685641   -4.122280   -2.388574
     48          1           0       -5.778423   -1.943396    2.311141
     49          1           0        4.992705   -0.247076   -1.257874
     50          1           0        5.985611    0.968603   -0.818873
     51          1           0       -3.139370    0.012648   -0.779495
     52          1           0        0.492336    1.934672   -0.204616
     53          1           0       -1.724543   -4.805051   -1.080816
     54          1           0       -2.597020   -3.586493   -1.954120
     55          1           0       -1.257475   -4.383119   -2.478429
     56          1           0       -2.760873   -3.449199    0.865777
     57          1           0        0.947770   -5.051149   -0.398215
     58          1           0        2.404895   -5.409383   -1.581157
     59          1           0        4.632295   -1.307231    1.302652
     60          1           0        5.660636    0.501710    1.729220
     61          1           0        4.853769    4.354231   -0.082631
     62          1           0        5.863128    3.131655    0.269999
     63          1           0        4.725124    3.847152    1.395139
     64          1           0        2.216509    4.928802    0.575902
     65          1           0       -7.866069   -1.908165    1.272084
     66          1           0       -7.320779   -3.662026    1.694892
     67          1           0       -7.489015   -3.091626   -0.153432
     68          1           0       -6.797133   -0.132825    0.346377
     69          1           0       -4.930260    1.584524   -0.835436
     70          1           0       -6.327008    1.167570   -1.682364
     71          1           0       -5.001903    0.264409   -2.129862
     72          1           0       -2.926513    6.740946    0.874505
     73          1           0       -3.896068    5.233680    1.134524
     74          1           0        0.839381    6.419012    1.536817
     75          1           0       -0.646684    7.260721    1.188452
     76          1           0        0.515860    7.023346   -0.010639
     77          1           0       -3.364669    6.701669   -1.706643
     78          1           0       -4.873610    6.254645   -0.770852
     79          1           0       -4.129676    4.839547   -1.284554
     80          1           0        3.603640   -4.416793    1.576273
     81          1           0        7.968051   -2.217044    1.632403
 ---------------------------------------------------------------------

 SCF Done:  E(RB3LYP) =  -1949.11839963     A.U. after   16 cycles

 Excitation energies and oscillator strengths:

 Excited State   1:      Singlet-A      1.9346 eV  640.89 nm  f=0.4451  <S**2>=0.000
     156 ->157         0.71004
     156 <-157        -0.12672
 This state for optimization and/or second-order correction.
 Total Energy, E(TD-HF/TD-DFT) =  -1949.04730597
 Copying the excited state density for this state as the 1-particle RhoCI density.

 The electronic state is 1-A.
 Alpha  occ. eigenvalues --  -19.18271 -19.15977 -19.15770 -19.12989 -19.12232
 Alpha  occ. eigenvalues --  -19.09463 -14.37859 -14.37822 -14.33620 -14.29810
 Alpha  occ. eigenvalues --  -10.34206 -10.30814 -10.29393 -10.26358 -10.24980
 Alpha  occ. eigenvalues --  -10.24560 -10.23469 -10.23312 -10.23094 -10.22945
 Alpha  occ. eigenvalues --  -10.22431 -10.22287 -10.22268 -10.21710 -10.20485
 Alpha  occ. eigenvalues --  -10.20404 -10.20077 -10.19923 -10.19877 -10.19567
 Alpha  occ. eigenvalues --  -10.19477 -10.19449 -10.19408 -10.19251 -10.19106
 Alpha  occ. eigenvalues --  -10.18959 -10.18918 -10.18901 -10.18796 -10.18748
 Alpha  occ. eigenvalues --  -10.18638 -10.18564 -10.18102  -1.11280  -1.10345
 Alpha  occ. eigenvalues --   -1.06222  -1.00762  -0.99891  -0.99733  -0.97822
 Alpha  occ. eigenvalues --   -0.97289  -0.96641  -0.90719  -0.83478  -0.82750
 Alpha  occ. eigenvalues --   -0.81438  -0.81040  -0.79413  -0.78940  -0.78283
 Alpha  occ. eigenvalues --   -0.76765  -0.75764  -0.75231  -0.74252  -0.72976
 Alpha  occ. eigenvalues --   -0.71071  -0.70072  -0.69402  -0.69031  -0.67765
 Alpha  occ. eigenvalues --   -0.66399  -0.65702  -0.65403  -0.62679  -0.60693
 Alpha  occ. eigenvalues --   -0.59473  -0.58778  -0.58275  -0.57703  -0.57286
 Alpha  occ. eigenvalues --   -0.56077  -0.55040  -0.54023  -0.53544  -0.53362
 Alpha  occ. eigenvalues --   -0.52611  -0.51437  -0.51270  -0.51150  -0.49480
 Alpha  occ. eigenvalues --   -0.48844  -0.48681  -0.48290  -0.48117  -0.47818
 Alpha  occ. eigenvalues --   -0.47219  -0.46808  -0.46006  -0.45681  -0.45288
 Alpha  occ. eigenvalues --   -0.45057  -0.44852  -0.44412  -0.44173  -0.44021
 Alpha  occ. eigenvalues --   -0.43638  -0.43528  -0.43298  -0.42802  -0.42629
 Alpha  occ. eigenvalues --   -0.42257  -0.41998  -0.41540  -0.41112  -0.40741
 Alpha  occ. eigenvalues --   -0.40537  -0.40456  -0.40022  -0.39601  -0.39244
 Alpha  occ. eigenvalues --   -0.38831  -0.38762  -0.38442  -0.38362  -0.38030
 Alpha  occ. eigenvalues --   -0.37959  -0.37754  -0.37535  -0.37197  -0.37052
 Alpha  occ. eigenvalues --   -0.36769  -0.36506  -0.36134  -0.36009  -0.35418
 Alpha  occ. eigenvalues --   -0.34351  -0.34067  -0.33524  -0.33369  -0.33200
 Alpha  occ. eigenvalues --   -0.32672  -0.32298  -0.32011  -0.30885  -0.29743
 Alpha  occ. eigenvalues --   -0.28208  -0.27968  -0.27314  -0.26269  -0.25972
 Alpha  occ. eigenvalues --   -0.25402  -0.24366  -0.23929  -0.23301  -0.21738
 Alpha  occ. eigenvalues --   -0.17906
 Alpha virt. eigenvalues --   -0.10464  -0.05694  -0.04123  -0.03529   0.00284
 Alpha virt. eigenvalues --    0.01879   0.02009   0.03048   0.03993   0.04461
 Alpha virt. eigenvalues --    0.04797   0.05023   0.05923   0.06185   0.06416

 Mulliken charges:
               1
     1  O   -0.160408
     2  O   -0.263520
     3  O   -0.242223
     4  O   -0.246864
     5  O   -0.132086
     6  O   -0.241853
     7  N   -0.106930
     8  N   -0.171470
     9  N   -0.094283
    10  N   -0.359438
    11  C   -0.133710
    12  C    0.080643
    13  C   -0.128500
    14  C    0.125418
    15  C   -0.129003
    16  C    0.077685
    17  C   -0.068965
    18  C   -0.070617
    19  C    0.118687
    20  C   -0.050585
    21  C    0.053825
    22  C    0.033447
    23  C    0.007459
    24  C    0.217814
    25  C   -0.117366
    26  C    0.162051
    27  C    0.088178
    28  C   -0.029394
    29  C   -0.159158
    30  C    0.121207
    31  C   -0.086489
    32  C   -0.020208
    33  C   -0.110062
    34  C    0.110124
    35  C   -0.083809
    36  C   -0.157542
    37  C    0.198409
    38  C    0.049533
    39  C    0.108036
    40  C    0.056353
    41  C    0.179142
    42  C    0.149838
    43  C   -0.032217
    44  H    0.124871
    45  H    0.019106
    46  H    0.055250
    47  H   -0.028805
    48  H    0.022292
    49  H   -0.053144
    50  H    0.021824
    51  H    0.034321
    52  H    0.234657
    53  H    0.004241
    54  H   -0.015756
    55  H   -0.012711
    56  H    0.146607
    57  H    0.057290
    58  H    0.073550
    59  H    0.103630
    60  H    0.067056
    61  H   -0.024910
    62  H   -0.001193
    63  H    0.007379
    64  H   -0.030331
    65  H    0.019833
    66  H    0.051732
    67  H    0.035287
    68  H   -0.022224
    69  H    0.090445
    70  H   -0.009647
    71  H    0.022554
    72  H    0.009633
    73  H    0.006179
    74  H    0.021079
    75  H    0.001226
    76  H   -0.004800
    77  H    0.033826
    78  H   -0.000429
    79  H    0.028208
    80  H    0.198314
    81  H    0.172413
 Sum of Mulliken charges =  -0.00000

 Dipole moment (field-independent basis, Debye):
    X=              1.6485    Y=             -0.6829    Z=             -1.1054  Tot=              2.0990
 Quadrupole moment (field-independent basis, Debye-Ang):
   XX=           -250.3721   YY=           -234.4591   ZZ=           -257.0407
   XY=            -13.9630   XZ=              7.2448   YZ=             19.9249

 Normal termination of Gaussian 16 at Fri Jun 28 09:28:50 2019.
