 Gaussian 16, Revision A.03,
 Gaussian 16:  ES64L-G16RevA.03 25-Dec-2016

 --------------------------
 # td=(NStates=1) B3LYP/SVP
 --------------------------

 --
 TD
 --
 Symbolic Z-matrix:
 Charge =  0 Multiplicity = 1

                         Standard orientation:
 ---------------------------------------------------------------------
 Center     Atomic      Atomic             Coordinates (Angstroms)
 Number     Number       Type             X           Y           Z
 ---------------------------------------------------------------------
      1          8           0       -4.438001   -4.786888    1.965940
      2          8           0        2.922971   -4.816827    1.230050
      3          8           0        7.023935   -1.517307    1.919271
      4          8           0        3.732737   -3.041069    0.130837
      5          8           0        7.537873   -1.016920   -0.176946
      6          8           0       -2.904382    2.379101   -0.301653
      7          7           0       -0.359626   -0.555209   -0.606261
      8          7           0        1.532341    1.797601   -0.313400
      9          7           0       -3.395036   -3.097385    0.586635
     10          7           0       -0.716879    2.933732   -0.094452
     11          6           0        0.626187   -2.335741   -1.430347
     12          6           0        0.925344   -1.152676   -0.921698
     13          6           0       -0.810168   -2.663204   -1.391159
     14          6           0       -1.386909   -1.493136   -0.889045
     15          6           0        3.800382    1.429381   -0.344274
     16          6           0        2.516973    0.778334   -0.471591
     17          6           0        2.199272   -0.508725   -0.880934
     18          6           0        3.578741    2.739219    0.001718
     19          6           0        1.648712   -3.371554   -2.043403
     20          6           0       -5.556706   -2.531907    1.499247
     21          6           0       -3.595122   -1.814429   -0.008286
     22          6           0        2.159115    3.032279   -0.028880
     23          6           0       -5.072585   -1.446403    0.424825
     24          6           0        5.079447    0.719271   -0.381169
     25          6           0       -2.732695   -1.082650   -0.617368
     26          6           0       -1.478689   -3.925916   -1.803963
     27          6           0       -4.481866   -3.681513    1.356918
     28          6           0        1.978493   -4.500644   -0.948914
     29          6           0        5.454341   -0.051221    0.853826
     30          6           0        4.625116    3.764614    0.478177
     31          6           0        1.371626    4.109235    0.313669
     32          6           0       -6.963088   -3.072159    1.425838
     33          6           0       -5.841384   -0.558729   -0.166584
     34          6           0       -0.049740    4.038830    0.258421
     35          6           0       -0.940247    5.231853    0.519696
     36          6           0       -2.247567    4.716992    0.322850
     37          6           0        2.949274   -4.012119    0.240139
     38          6           0       -5.412367    0.426495   -1.284364
     39          6           0        6.727501   -0.885893    0.787124
     40          6           0       -3.541220    5.289618    0.416451
     41          6           0       -2.060017    3.301340   -0.101816
     42          6           0       -0.511635    6.596965    0.961535
     43          6           0       -4.131263    5.648737   -0.945376
     44          1           0       -0.382032    0.265494   -0.077884
     45          1           0        3.073304   -1.075401   -1.105661
     46          1           0        2.554246   -2.820601   -2.223439
     47          1           0        1.118753   -3.836604   -3.058100
     48          1           0       -5.688016   -2.140178    2.487330
     49          1           0        5.200904   -0.089636   -1.353670
     50          1           0        5.795153    1.774021   -0.750348
     51          1           0       -2.957752    0.086982   -0.791451
     52          1           0        0.526845    1.844211   -0.429793
     53          1           0       -1.604182   -4.797879   -1.174014
     54          1           0       -2.551130   -3.764803   -2.192640
     55          1           0       -0.962935   -4.303331   -2.648542
     56          1           0       -2.412961   -3.538639    0.529535
     57          1           0        0.938776   -4.822907   -0.712342
     58          1           0        2.685426   -5.349956   -1.493515
     59          1           0        4.699033   -0.671002    1.276059
     60          1           0        5.666686    0.762962    1.832188
     61          1           0        4.511048    4.725258    0.053228
     62          1           0        5.552212    3.417621   -0.130734
     63          1           0        4.819460    3.903549    1.474347
     64          1           0        1.913813    5.174345    0.243646
     65          1           0       -7.890618   -2.427595    1.756265
     66          1           0       -6.929340   -3.923582    2.019882
     67          1           0       -7.462023   -3.502521    0.382922
     68          1           0       -6.919380   -0.540765    0.098098
     69          1           0       -4.749358    1.309669   -0.986074
     70          1           0       -6.288353    0.883099   -1.777927
     71          1           0       -4.884967   -0.120339   -2.041294
     72          1           0       -3.362257    6.119739    1.005902
     73          1           0       -4.402599    4.667009    0.947697
     74          1           0        0.133478    6.449672    1.871686
     75          1           0       -1.320827    7.393757    0.900914
     76          1           0        0.233694    7.034170    0.240582
     77          1           0       -3.661253    6.418557   -1.625044
     78          1           0       -5.323159    5.930043   -1.006374
     79          1           0       -4.312026    4.616456   -1.529560
     80          1           0        3.406357   -4.625111    2.179013
     81          1           0        7.845764   -1.984908    1.453899
 ---------------------------------------------------------------------

 SCF Done:  E(RB3LYP) =  -1949.07662122     A.U. after   18 cycles

 Excitation energies and oscillator strengths:

 Excited State   1:      Singlet-A      1.9582 eV  633.16 nm  f=0.3171  <S**2>=0.000
     156 ->157         0.70329
     156 <-157        -0.10720
 This state for optimization and/or second-order correction.
 Total Energy, E(TD-HF/TD-DFT) =  -1949.00465952
 Copying the excited state density for this state as the 1-particle RhoCI density.

 The electronic state is 1-A.
 Alpha  occ. eigenvalues --  -19.21339 -19.19098 -19.13293 -19.12655 -19.12070
 Alpha  occ. eigenvalues --  -19.10528 -14.37403 -14.36263 -14.35042 -14.29212
 Alpha  occ. eigenvalues --  -10.34375 -10.32701 -10.30822 -10.26733 -10.24132
 Alpha  occ. eigenvalues --  -10.23879 -10.23640 -10.23621 -10.23581 -10.23578
 Alpha  occ. eigenvalues --  -10.23572 -10.23131 -10.22422 -10.21942 -10.21683
 Alpha  occ. eigenvalues --  -10.21550 -10.21470 -10.21332 -10.21040 -10.20935
 Alpha  occ. eigenvalues --  -10.20091 -10.20070 -10.19849 -10.19837 -10.19798
 Alpha  occ. eigenvalues --  -10.19797 -10.19700 -10.19617 -10.19454 -10.19229
 Alpha  occ. eigenvalues --  -10.19213 -10.18313 -10.17394  -1.11640  -1.10343
 Alpha  occ. eigenvalues --   -1.00768  -0.99967  -0.99842  -0.97801  -0.96521
 Alpha  occ. eigenvalues --   -0.95595  -0.92422  -0.91512  -0.82903  -0.81345
 Alpha  occ. eigenvalues --   -0.80936  -0.80685  -0.80047  -0.79013  -0.77532
 Alpha  occ. eigenvalues --   -0.76770  -0.76118  -0.75360  -0.74349  -0.72554
 Alpha  occ. eigenvalues --   -0.71722  -0.69286  -0.68966  -0.67975  -0.67752
 Alpha  occ. eigenvalues --   -0.67249  -0.65030  -0.63769  -0.62132  -0.61672
 Alpha  occ. eigenvalues --   -0.61264  -0.58755  -0.58113  -0.56930  -0.56841
 Alpha  occ. eigenvalues --   -0.55728  -0.54669  -0.53769  -0.53330  -0.52887
 Alpha  occ. eigenvalues --   -0.51720  -0.51451  -0.50823  -0.49715  -0.49283
 Alpha  occ. eigenvalues --   -0.49050  -0.48824  -0.48382  -0.47734  -0.47350
 Alpha  occ. eigenvalues --   -0.46871  -0.46540  -0.46214  -0.45478  -0.45317
 Alpha  occ. eigenvalues --   -0.44915  -0.44220  -0.43967  -0.43811  -0.43458
 Alpha  occ. eigenvalues --   -0.43045  -0.42890  -0.42751  -0.42264  -0.42112
 Alpha  occ. eigenvalues --   -0.41950  -0.41541  -0.41091  -0.40674  -0.40534
 Alpha  occ. eigenvalues --   -0.40093  -0.39893  -0.39839  -0.39676  -0.39462
 Alpha  occ. eigenvalues --   -0.39161  -0.39043  -0.38538  -0.38379  -0.37921
 Alpha  occ. eigenvalues --   -0.37893  -0.37527  -0.37390  -0.37181  -0.36421
 Alpha  occ. eigenvalues --   -0.35624  -0.35469  -0.35038  -0.34499  -0.34202
 Alpha  occ. eigenvalues --   -0.33736  -0.33222  -0.32947  -0.32717  -0.31831
 Alpha  occ. eigenvalues --   -0.31698  -0.31401  -0.31138  -0.29811  -0.28650
 Alpha  occ. eigenvalues --   -0.28304  -0.27867  -0.26738  -0.26260  -0.25902
 Alpha  occ. eigenvalues --   -0.25485  -0.24624  -0.24301  -0.23552  -0.22181
 Alpha  occ. eigenvalues --   -0.18707
 Alpha virt. eigenvalues --   -0.10882  -0.06457  -0.02798  -0.01833  -0.01415
 Alpha virt. eigenvalues --   -0.01306  -0.00370   0.01878   0.02298   0.03270
 Alpha virt. eigenvalues --    0.03593   0.04238   0.04400   0.04950   0.05471

 Mulliken charges:
               1
     1  O   -0.252110
     2  O   -0.179691
     3  O   -0.196668
     4  O   -0.276976
     5  O   -0.303170
     6  O   -0.239167
     7  N   -0.126076
     8  N   -0.151885
     9  N   -0.222867
    10  N   -0.267966
    11  C   -0.145378
    12  C    0.121101
    13  C   -0.137684
    14  C    0.087086
    15  C   -0.009756
    16  C    0.065152
    17  C   -0.017799
    18  C   -0.141767
    19  C    0.068763
    20  C   -0.014035
    21  C    0.154481
    22  C    0.099201
    23  C    0.022802
    24  C   -0.076657
    25  C   -0.178925
    26  C    0.078266
    27  C    0.221615
    28  C   -0.052001
    29  C    0.019467
    30  C    0.153273
    31  C   -0.149018
    32  C   -0.051774
    33  C   -0.153372
    34  C    0.072321
    35  C   -0.106580
    36  C   -0.164588
    37  C    0.157525
    38  C    0.021552
    39  C    0.175783
    40  C    0.119773
    41  C    0.170830
    42  C    0.092571
    43  C   -0.102701
    44  H    0.111590
    45  H   -0.013130
    46  H    0.006419
    47  H    0.050958
    48  H    0.040066
    49  H    0.071457
    50  H    0.059177
    51  H    0.091813
    52  H    0.120789
    53  H    0.031087
    54  H    0.032645
    55  H   -0.015402
    56  H    0.159089
    57  H    0.043710
    58  H    0.070804
    59  H    0.040412
    60  H    0.060498
    61  H   -0.005995
    62  H   -0.001274
    63  H    0.021717
    64  H    0.016420
    65  H    0.031431
    66  H    0.019343
    67  H    0.016545
    68  H   -0.002750
    69  H    0.087168
    70  H   -0.002111
    71  H    0.018804
    72  H   -0.029100
    73  H    0.038474
    74  H    0.040318
    75  H    0.038398
    76  H    0.018915
    77  H    0.029412
    78  H    0.015563
    79  H    0.041418
    80  H    0.259095
    81  H    0.203275
 Sum of Mulliken charges =  -0.00000

 Dipole moment (field-independent basis, Debye):
    X=              2.5509    Y=              1.7254    Z=              1.5561  Tot=              3.4504
 Quadrupole moment (field-independent basis, Debye-Ang):
   XX=           -263.9275   YY=           -231.2977   ZZ=           -253.4402
   XY=            -13.6650   XZ=             17.1921   YZ=              7.6586

 Normal termination of Gaussian 16 at Sun Jun 30 08:27:57 2019.
