 Gaussian 16, Revision A.03,
 Gaussian 16:  ES64L-G16RevA.03 25-Dec-2016

 --------------------------
 # td=(NStates=1) B3LYP/SVP
 --------------------------

 --
 TD
 --
 Symbolic Z-matrix:
 Charge =  0 Multiplicity = 1

                         Standard orientation:
 ---------------------------------------------------------------------
 Center     Atomic      Atomic             Coordinates (Angstroms)
 Number     Number       Type             X           Y           Z
 ---------------------------------------------------------------------
      1          8           0       -4.795038   -4.565084    1.896243
      2          8           0        2.542348   -4.663087    1.448351
      3          8           0        6.958461   -1.946774    1.758004
      4          8           0        3.632132   -3.330002   -0.001953
      5          8           0        7.605825   -0.934389   -0.093621
      6          8           0       -2.873974    2.671145   -0.222863
      7          7           0       -0.335008   -0.517921   -0.751366
      8          7           0        1.642145    1.670362   -0.393323
      9          7           0       -3.669492   -3.005157    0.640244
     10          7           0       -0.581260    3.000879   -0.224614
     11          6           0        0.484800   -2.612357   -1.378571
     12          6           0        0.860792   -1.204040   -1.055893
     13          6           0       -0.908915   -2.663670   -1.180212
     14          6           0       -1.406355   -1.373564   -0.782036
     15          6           0        3.927489    1.265326   -0.410823
     16          6           0        2.618645    0.665213   -0.586145
     17          6           0        2.143689   -0.637161   -0.870317
     18          6           0        3.713616    2.555384    0.019413
     19          6           0        1.452275   -3.580460   -1.809316
     20          6           0       -5.810946   -2.351297    1.265244
     21          6           0       -3.803167   -1.694544    0.052008
     22          6           0        2.295703    2.809612   -0.073314
     23          6           0       -5.192728   -1.280976    0.330783
     24          6           0        5.280107    0.465260   -0.406348
     25          6           0       -2.735361   -0.940612   -0.412579
     26          6           0       -1.777875   -3.846940   -1.681593
     27          6           0       -4.739985   -3.401514    1.432536
     28          6           0        1.827147   -4.650790   -0.816158
     29          6           0        5.471924   -0.366894    0.883673
     30          6           0        4.745930    3.544477    0.390849
     31          6           0        1.580428    4.041456    0.209943
     32          6           0       -7.183014   -2.966992    1.019039
     33          6           0       -5.839427   -0.223756   -0.204821
     34          6           0        0.243597    4.090739    0.131262
     35          6           0       -0.702490    5.198377    0.388835
     36          6           0       -1.924862    4.759094    0.344545
     37          6           0        2.750248   -4.153311    0.234048
     38          6           0       -5.389355    0.622971   -1.337135
     39          6           0        6.761663   -1.119289    0.765631
     40          6           0       -3.194136    5.509899    0.654407
     41          6           0       -1.815909    3.351550   -0.046077
     42          6           0       -0.160327    6.602719    0.773571
     43          6           0       -3.903204    6.051883   -0.614532
     44          1           0       -0.397995    0.381674   -0.418021
     45          1           0        2.908883   -1.386211   -0.914977
     46          1           0        2.361530   -3.033373   -1.981170
     47          1           0        1.019450   -4.033266   -2.694083
     48          1           0       -5.831157   -1.707418    2.351881
     49          1           0        5.272442   -0.347599   -1.281230
     50          1           0        6.111093    1.247810   -0.675464
     51          1           0       -3.038606    0.119078   -0.703106
     52          1           0        0.582974    1.661390   -0.517019
     53          1           0       -1.997089   -4.494865   -0.710105
     54          1           0       -2.578344   -3.423998   -2.091649
     55          1           0       -1.251817   -4.342046   -2.418541
     56          1           0       -2.995164   -3.524151    0.603779
     57          1           0        1.086390   -5.277032   -0.513094
     58          1           0        2.485596   -5.322493   -1.261085
     59          1           0        4.544788   -1.045104    0.855694
     60          1           0        5.413035    0.531879    1.793925
     61          1           0        4.685970    4.552867   -0.201761
     62          1           0        5.786089    3.085242    0.400539
     63          1           0        4.525788    4.086530    1.487198
     64          1           0        2.231683    4.994494    0.309324
     65          1           0       -7.843311   -2.120542    0.907273
     66          1           0       -7.665084   -3.672047    1.687500
     67          1           0       -7.148917   -3.725186    0.205552
     68          1           0       -6.950224   -0.239091    0.115827
     69          1           0       -4.633781    1.344732   -1.035010
     70          1           0       -6.381629    1.017599   -1.773048
     71          1           0       -4.849692   -0.033881   -2.014930
     72          1           0       -2.803938    6.160403    1.171496
     73          1           0       -3.792631    4.706127    1.186185
     74          1           0        0.467709    6.573025    1.936701
     75          1           0       -1.082738    7.210387    0.907418
     76          1           0        0.531206    6.913015    0.084138
     77          1           0       -3.230206    6.784146   -1.231416
     78          1           0       -4.854803    6.503466   -0.403997
     79          1           0       -3.862687    5.303710   -1.350196
     80          1           0        3.209933   -4.108639    1.899901
     81          1           0        7.992547   -2.026997    1.736196
 ---------------------------------------------------------------------

 SCF Done:  E(RB3LYP) =  -1949.08721257     A.U. after   23 cycles

 Excitation energies and oscillator strengths:

 Excited State   1:      Singlet-A      1.9734 eV  628.28 nm  f=0.4237  <S**2>=0.000
     156 ->157         0.70494
     156 <-157        -0.11508
 This state for optimization and/or second-order correction.
 Total Energy, E(TD-HF/TD-DFT) =  -1949.01469199
 Copying the excited state density for this state as the 1-particle RhoCI density.

 The electronic state is 1-A.
 Alpha  occ. eigenvalues --  -19.21246 -19.19502 -19.15112 -19.12822 -19.10933
 Alpha  occ. eigenvalues --  -19.07249 -14.38643 -14.36680 -14.36019 -14.27361
 Alpha  occ. eigenvalues --  -10.34426 -10.32388 -10.29478 -10.25726 -10.25277
 Alpha  occ. eigenvalues --  -10.24573 -10.24438 -10.23991 -10.23429 -10.22959
 Alpha  occ. eigenvalues --  -10.22785 -10.22148 -10.22131 -10.22127 -10.21647
 Alpha  occ. eigenvalues --  -10.21450 -10.21394 -10.21133 -10.21094 -10.20872
 Alpha  occ. eigenvalues --  -10.20827 -10.20663 -10.20504 -10.20470 -10.20208
 Alpha  occ. eigenvalues --  -10.19947 -10.19282 -10.19220 -10.18474 -10.17697
 Alpha  occ. eigenvalues --  -10.17047 -10.16429 -10.16145  -1.13298  -1.11515
 Alpha  occ. eigenvalues --   -1.02783  -1.02336  -1.00603  -0.98979  -0.97924
 Alpha  occ. eigenvalues --   -0.97346  -0.94813  -0.90423  -0.84974  -0.82687
 Alpha  occ. eigenvalues --   -0.81981  -0.81454  -0.80109  -0.79495  -0.78782
 Alpha  occ. eigenvalues --   -0.77511  -0.77033  -0.75531  -0.74181  -0.73227
 Alpha  occ. eigenvalues --   -0.71637  -0.70877  -0.70751  -0.68583  -0.67851
 Alpha  occ. eigenvalues --   -0.67056  -0.66311  -0.65266  -0.62876  -0.62401
 Alpha  occ. eigenvalues --   -0.61644  -0.59318  -0.59226  -0.58319  -0.58112
 Alpha  occ. eigenvalues --   -0.56297  -0.55156  -0.54757  -0.54296  -0.54004
 Alpha  occ. eigenvalues --   -0.53466  -0.52206  -0.51999  -0.51062  -0.50788
 Alpha  occ. eigenvalues --   -0.50453  -0.49913  -0.49589  -0.49169  -0.48264
 Alpha  occ. eigenvalues --   -0.47892  -0.46860  -0.46381  -0.45795  -0.45642
 Alpha  occ. eigenvalues --   -0.45529  -0.45005  -0.44451  -0.44182  -0.43702
 Alpha  occ. eigenvalues --   -0.43431  -0.43244  -0.43139  -0.42916  -0.42654
 Alpha  occ. eigenvalues --   -0.42148  -0.41998  -0.41785  -0.41567  -0.41215
 Alpha  occ. eigenvalues --   -0.41074  -0.40634  -0.40118  -0.40090  -0.39663
 Alpha  occ. eigenvalues --   -0.39490  -0.39288  -0.39045  -0.38495  -0.38065
 Alpha  occ. eigenvalues --   -0.37897  -0.37642  -0.37281  -0.37139  -0.36852
 Alpha  occ. eigenvalues --   -0.36631  -0.35913  -0.35847  -0.35597  -0.34822
 Alpha  occ. eigenvalues --   -0.34618  -0.34387  -0.34037  -0.32837  -0.32803
 Alpha  occ. eigenvalues --   -0.32772  -0.32453  -0.31853  -0.30998  -0.29483
 Alpha  occ. eigenvalues --   -0.28788  -0.26423  -0.26297  -0.26043  -0.25870
 Alpha  occ. eigenvalues --   -0.25718  -0.25168  -0.23228  -0.22123  -0.21512
 Alpha  occ. eigenvalues --   -0.18492
 Alpha virt. eigenvalues --   -0.10756  -0.05741  -0.04012  -0.02212  -0.01659
 Alpha virt. eigenvalues --   -0.01128   0.01191   0.02850   0.03264   0.03497
 Alpha virt. eigenvalues --    0.03667   0.04332   0.04553   0.05499   0.05611

 Mulliken charges:
               1
     1  O   -0.253991
     2  O   -0.138015
     3  O   -0.173962
     4  O   -0.264184
     5  O   -0.243786
     6  O   -0.303566
     7  N   -0.042012
     8  N   -0.112350
     9  N   -0.032769
    10  N   -0.280874
    11  C   -0.078552
    12  C    0.052121
    13  C   -0.227430
    14  C    0.078897
    15  C   -0.047808
    16  C    0.071812
    17  C   -0.039243
    18  C   -0.107514
    19  C    0.117436
    20  C   -0.088505
    21  C    0.080100
    22  C    0.080392
    23  C   -0.031670
    24  C   -0.013577
    25  C   -0.061649
    26  C    0.167646
    27  C    0.135221
    28  C    0.179486
    29  C   -0.064591
    30  C    0.001673
    31  C   -0.156208
    32  C    0.080548
    33  C   -0.157547
    34  C    0.143721
    35  C   -0.102197
    36  C   -0.229910
    37  C    0.085753
    38  C    0.049614
    39  C    0.158746
    40  C    0.232000
    41  C    0.096503
    42  C    0.077770
    43  C    0.031807
    44  H    0.087623
    45  H   -0.012677
    46  H    0.009613
    47  H    0.005841
    48  H    0.071398
    49  H    0.040728
    50  H    0.047483
    51  H    0.035327
    52  H    0.159763
    53  H    0.048587
    54  H   -0.001873
    55  H   -0.013405
    56  H    0.003796
    57  H   -0.020482
    58  H    0.012332
    59  H    0.063630
    60  H    0.077822
    61  H    0.041232
    62  H    0.038270
    63  H    0.033680
    64  H   -0.000079
    65  H    0.011817
    66  H    0.022176
    67  H    0.016591
    68  H    0.008944
    69  H    0.097180
    70  H    0.032974
    71  H    0.021537
    72  H   -0.093391
    73  H    0.021830
    74  H    0.032116
    75  H    0.023497
    76  H    0.006242
    77  H   -0.007133
    78  H    0.019129
    79  H    0.000701
    80  H    0.179500
    81  H    0.208344
 Sum of Mulliken charges =  -0.00000

 Dipole moment (field-independent basis, Debye):
    X=              3.1925    Y=             -1.7600    Z=             -0.0992  Tot=              3.6469
 Quadrupole moment (field-independent basis, Debye-Ang):
   XX=           -246.1813   YY=           -248.4316   ZZ=           -255.7007
   XY=             -7.0055   XZ=             21.2625   YZ=             15.0195

 Normal termination of Gaussian 16 at Sat Jun 29 07:56:47 2019.
