 Gaussian 16, Revision A.03,
 Gaussian 16:  ES64L-G16RevA.03 25-Dec-2016

 --------------------------
 # td=(NStates=1) B3LYP/SVP
 --------------------------

 --
 TD
 --
 Symbolic Z-matrix:
 Charge =  0 Multiplicity = 1

                         Standard orientation:
 ---------------------------------------------------------------------
 Center     Atomic      Atomic             Coordinates (Angstroms)
 Number     Number       Type             X           Y           Z
 ---------------------------------------------------------------------
      1          8           0       -4.426266   -4.702531    2.031277
      2          8           0        2.884947   -4.753925    1.317125
      3          8           0        7.159102   -1.492965    1.766323
      4          8           0        3.769108   -3.046889    0.299011
      5          8           0        7.701448   -0.581464   -0.176513
      6          8           0       -3.024966    2.335466   -0.389585
      7          7           0       -0.300469   -0.519192   -0.709166
      8          7           0        1.563557    1.903087   -0.330609
      9          7           0       -3.377962   -3.234344    0.488419
     10          7           0       -0.775338    2.886296   -0.206939
     11          6           0        0.689739   -2.473768   -1.335281
     12          6           0        0.906966   -1.092454   -1.044857
     13          6           0       -0.692690   -2.663898   -1.251445
     14          6           0       -1.344214   -1.479628   -0.827088
     15          6           0        3.805349    1.466573   -0.264637
     16          6           0        2.442412    0.882050   -0.590981
     17          6           0        2.230500   -0.400014   -0.918891
     18          6           0        3.527730    2.893257    0.080756
     19          6           0        1.687273   -3.507559   -1.886797
     20          6           0       -5.425181   -2.605806    1.359027
     21          6           0       -3.579761   -1.905105    0.023446
     22          6           0        2.129841    3.068797    0.022214
     23          6           0       -5.025822   -1.638370    0.291157
     24          6           0        5.028495    0.806578   -0.387623
     25          6           0       -2.665681   -1.072438   -0.541662
     26          6           0       -1.526096   -3.878317   -1.928128
     27          6           0       -4.353940   -3.657071    1.374454
     28          6           0        2.043989   -4.544058   -0.806864
     29          6           0        5.541618   -0.114010    0.785788
     30          6           0        4.540897    3.860758    0.513539
     31          6           0        1.328660    4.165583    0.197380
     32          6           0       -6.845472   -3.295164    1.360066
     33          6           0       -5.745062   -0.585242   -0.155166
     34          6           0       -0.049381    4.069705    0.200111
     35          6           0       -1.006105    5.138878    0.496070
     36          6           0       -2.316659    4.701119    0.325893
     37          6           0        2.939254   -3.972025    0.221917
     38          6           0       -5.422649    0.389223   -1.247069
     39          6           0        6.927521   -0.761865    0.643224
     40          6           0       -3.699407    5.278662    0.545877
     41          6           0       -2.141170    3.175923   -0.123470
     42          6           0       -0.810746    6.535821    0.977111
     43          6           0       -4.401023    5.473121   -0.888836
     44          1           0       -0.505070    0.397427   -0.276674
     45          1           0        2.874599   -1.079398   -1.100353
     46          1           0        2.572663   -3.155573   -2.251132
     47          1           0        1.379386   -4.012521   -2.874654
     48          1           0       -5.254766   -2.093848    2.464306
     49          1           0        4.987760    0.002052   -1.254478
     50          1           0        5.957151    1.260024   -0.818671
     51          1           0       -3.078242   -0.128580   -0.739430
     52          1           0        0.508837    1.858690   -0.452357
     53          1           0       -1.730849   -4.539462   -0.968916
     54          1           0       -2.440112   -3.434519   -2.251631
     55          1           0       -0.800055   -4.222482   -2.802013
     56          1           0       -2.542265   -3.665447    0.441832
     57          1           0        1.113331   -4.857589   -0.503280
     58          1           0        2.599301   -5.436435   -1.350394
     59          1           0        4.874954   -0.924390    1.047337
     60          1           0        5.520001    0.571665    1.547795
     61          1           0        4.516930    4.829356   -0.059177
     62          1           0        5.571808    3.554604    0.355203
     63          1           0        4.445518    4.027442    1.600739
     64          1           0        1.764216    5.254952    0.602390
     65          1           0       -7.751886   -2.509726    1.580134
     66          1           0       -7.017848   -4.064345    2.071726
     67          1           0       -7.110035   -3.831222    0.422165
     68          1           0       -6.761953   -0.498603    0.297763
     69          1           0       -4.849120    1.280200   -0.813502
     70          1           0       -6.292902    0.898427   -1.731682
     71          1           0       -4.872210    0.009205   -1.927244
     72          1           0       -3.629666    6.410765    0.874972
     73          1           0       -4.324871    4.590954    1.254052
     74          1           0       -0.377581    6.563916    1.998532
     75          1           0       -1.746234    7.014356    1.021242
     76          1           0       -0.197020    7.014367    0.169772
     77          1           0       -3.802376    6.221278   -1.544254
     78          1           0       -5.424182    5.717208   -0.834439
     79          1           0       -4.490168    4.421046   -1.396625
     80          1           0        3.554991   -4.423114    1.788444
     81          1           0        8.167328   -1.888693    1.624071
 ---------------------------------------------------------------------

 SCF Done:  E(RB3LYP) =  -1949.11893521     A.U. after   16 cycles

 Excitation energies and oscillator strengths:

 Excited State   1:      Singlet-A      1.8662 eV  664.38 nm  f=0.3402  <S**2>=0.000
     156 ->157         0.70765
     156 <-157        -0.10633
 This state for optimization and/or second-order correction.
 Total Energy, E(TD-HF/TD-DFT) =  -1949.05035528
 Copying the excited state density for this state as the 1-particle RhoCI density.

 The electronic state is 1-A.
 Alpha  occ. eigenvalues --  -19.18275 -19.18209 -19.14717 -19.13496 -19.10651
 Alpha  occ. eigenvalues --  -19.10017 -14.37774 -14.36880 -14.35789 -14.29160
 Alpha  occ. eigenvalues --  -10.34168 -10.31628 -10.28995 -10.26667 -10.24359
 Alpha  occ. eigenvalues --  -10.24218 -10.23980 -10.23948 -10.23518 -10.23498
 Alpha  occ. eigenvalues --  -10.22660 -10.21988 -10.21936 -10.21451 -10.21426
 Alpha  occ. eigenvalues --  -10.21343 -10.20987 -10.20966 -10.20618 -10.20614
 Alpha  occ. eigenvalues --  -10.20328 -10.20137 -10.19965 -10.19906 -10.19898
 Alpha  occ. eigenvalues --  -10.19768 -10.19751 -10.19448 -10.19358 -10.18977
 Alpha  occ. eigenvalues --  -10.18794 -10.18561 -10.16659  -1.12925  -1.11115
 Alpha  occ. eigenvalues --   -1.02282  -1.01454  -1.00800  -0.99423  -0.98609
 Alpha  occ. eigenvalues --   -0.97124  -0.95293  -0.89061  -0.83271  -0.82554
 Alpha  occ. eigenvalues --   -0.81692  -0.81506  -0.79596  -0.78875  -0.78514
 Alpha  occ. eigenvalues --   -0.77235  -0.76574  -0.75101  -0.74174  -0.72553
 Alpha  occ. eigenvalues --   -0.71376  -0.69820  -0.69184  -0.68491  -0.67781
 Alpha  occ. eigenvalues --   -0.67118  -0.66105  -0.65474  -0.62633  -0.61393
 Alpha  occ. eigenvalues --   -0.60589  -0.59394  -0.58527  -0.58124  -0.57731
 Alpha  occ. eigenvalues --   -0.56165  -0.55500  -0.55140  -0.53998  -0.53088
 Alpha  occ. eigenvalues --   -0.52907  -0.51344  -0.51089  -0.50566  -0.50097
 Alpha  occ. eigenvalues --   -0.49771  -0.49546  -0.48976  -0.48498  -0.47798
 Alpha  occ. eigenvalues --   -0.47408  -0.46841  -0.46357  -0.45718  -0.45420
 Alpha  occ. eigenvalues --   -0.44969  -0.44616  -0.44277  -0.44169  -0.43921
 Alpha  occ. eigenvalues --   -0.43660  -0.43336  -0.43194  -0.42823  -0.42603
 Alpha  occ. eigenvalues --   -0.42361  -0.41894  -0.41663  -0.41506  -0.41185
 Alpha  occ. eigenvalues --   -0.40682  -0.40323  -0.39751  -0.39677  -0.39579
 Alpha  occ. eigenvalues --   -0.39335  -0.39103  -0.38963  -0.38399  -0.37965
 Alpha  occ. eigenvalues --   -0.37842  -0.37735  -0.37281  -0.36913  -0.36677
 Alpha  occ. eigenvalues --   -0.36127  -0.35993  -0.35467  -0.35239  -0.34939
 Alpha  occ. eigenvalues --   -0.34786  -0.33814  -0.33678  -0.33517  -0.33332
 Alpha  occ. eigenvalues --   -0.33246  -0.32599  -0.31759  -0.30242  -0.29818
 Alpha  occ. eigenvalues --   -0.28980  -0.27346  -0.26776  -0.25948  -0.25849
 Alpha  occ. eigenvalues --   -0.24843  -0.24352  -0.23572  -0.22951  -0.21639
 Alpha  occ. eigenvalues --   -0.18620
 Alpha virt. eigenvalues --   -0.11132  -0.05822  -0.04103  -0.03181  -0.00357
 Alpha virt. eigenvalues --    0.01145   0.01974   0.02237   0.03023   0.04052
 Alpha virt. eigenvalues --    0.04405   0.04511   0.05207   0.06045   0.06675

 Mulliken charges:
               1
     1  O   -0.233302
     2  O   -0.106137
     3  O   -0.259353
     4  O   -0.257951
     5  O   -0.149373
     6  O   -0.242343
     7  N   -0.115636
     8  N   -0.081467
     9  N   -0.089422
    10  N   -0.375053
    11  C   -0.090938
    12  C   -0.017515
    13  C   -0.216036
    14  C    0.121723
    15  C    0.003846
    16  C    0.192755
    17  C    0.090383
    18  C   -0.140097
    19  C    0.096181
    20  C   -0.094545
    21  C    0.038492
    22  C    0.144292
    23  C    0.027660
    24  C   -0.051702
    25  C   -0.032219
    26  C    0.053629
    27  C    0.135303
    28  C    0.044319
    29  C    0.019235
    30  C    0.097279
    31  C   -0.181388
    32  C    0.028303
    33  C   -0.156028
    34  C    0.116793
    35  C   -0.142928
    36  C   -0.152425
    37  C    0.135479
    38  C    0.114414
    39  C    0.117089
    40  C    0.012720
    41  C    0.184829
    42  C    0.141603
    43  C   -0.046385
    44  H    0.147082
    45  H   -0.141028
    46  H   -0.025926
    47  H    0.016271
    48  H    0.070969
    49  H    0.019290
    50  H    0.027446
    51  H   -0.035548
    52  H    0.153592
    53  H    0.040795
    54  H    0.037217
    55  H    0.053313
    56  H    0.084554
    57  H    0.017328
    58  H    0.072779
    59  H    0.044146
    60  H    0.005858
    61  H    0.025885
    62  H    0.003898
    63  H    0.031941
    64  H    0.028002
    65  H    0.023004
    66  H    0.021744
    67  H    0.014053
    68  H   -0.003941
    69  H    0.082770
    70  H    0.006055
    71  H   -0.031406
    72  H    0.022199
    73  H    0.051640
    74  H    0.029753
    75  H   -0.019939
    76  H    0.025816
    77  H    0.033212
    78  H    0.001672
    79  H    0.041847
    80  H    0.120627
    81  H    0.218941
 Sum of Mulliken charges =  -0.00000

 Dipole moment (field-independent basis, Debye):
    X=              3.6097    Y=              1.0050    Z=             -0.4621  Tot=              3.7753
 Quadrupole moment (field-independent basis, Debye-Ang):
   XX=           -247.1154   YY=           -240.5995   ZZ=           -256.4972
   XY=            -19.7643   XZ=             12.1256   YZ=             19.5465

 Normal termination of Gaussian 16 at Thu Jun 27 19:59:10 2019.
