 Gaussian 16, Revision A.03,
 Gaussian 16:  ES64L-G16RevA.03 25-Dec-2016

 --------------------------
 # td=(NStates=1) B3LYP/SVP
 --------------------------

 --
 TD
 --
 Symbolic Z-matrix:
 Charge =  0 Multiplicity = 1

                         Standard orientation:
 ---------------------------------------------------------------------
 Center     Atomic      Atomic             Coordinates (Angstroms)
 Number     Number       Type             X           Y           Z
 ---------------------------------------------------------------------
      1          8           0       -4.631504   -4.704968    1.824972
      2          8           0        2.984114   -4.962039    1.266938
      3          8           0        7.021315   -1.384359    1.978030
      4          8           0        3.709987   -3.211631    0.030096
      5          8           0        7.773235   -0.328732    0.046503
      6          8           0       -3.089361    2.440306   -0.372838
      7          7           0       -0.247216   -0.642464   -0.535002
      8          7           0        1.570342    1.801064   -0.453851
      9          7           0       -3.509744   -3.055223    0.683955
     10          7           0       -0.802263    2.884938   -0.106023
     11          6           0        0.654587   -2.513644   -1.403767
     12          6           0        0.976072   -1.196546   -0.970131
     13          6           0       -0.691791   -2.713384   -1.261929
     14          6           0       -1.311911   -1.575873   -0.692671
     15          6           0        3.832310    1.452131   -0.503116
     16          6           0        2.497670    0.831754   -0.667067
     17          6           0        2.254572   -0.512983   -0.792459
     18          6           0        3.503819    2.774232   -0.093388
     19          6           0        1.741884   -3.530777   -1.933756
     20          6           0       -5.594190   -2.499322    1.357265
     21          6           0       -3.596213   -1.822049    0.187818
     22          6           0        2.120567    2.947904   -0.106394
     23          6           0       -5.009123   -1.473456    0.424474
     24          6           0        5.057237    0.792571   -0.491308
     25          6           0       -2.671074   -1.161207   -0.489307
     26          6           0       -1.506999   -3.899125   -1.814748
     27          6           0       -4.503038   -3.612873    1.448662
     28          6           0        1.959792   -4.606069   -0.818747
     29          6           0        5.433618   -0.109576    0.737160
     30          6           0        4.647351    3.792085    0.342641
     31          6           0        1.329256    3.980178    0.252973
     32          6           0       -6.964277   -3.066643    1.126165
     33          6           0       -5.737847   -0.497016   -0.170402
     34          6           0       -0.053348    3.994973    0.113744
     35          6           0       -1.080751    5.094370    0.513501
     36          6           0       -2.254104    4.736013    0.375102
     37          6           0        3.028119   -4.193114    0.140801
     38          6           0       -5.304988    0.421860   -1.261184
     39          6           0        6.812654   -0.611710    0.870100
     40          6           0       -3.606142    5.489152    0.555587
     41          6           0       -2.169977    3.169091   -0.155212
     42          6           0       -0.516292    6.470572    0.892510
     43          6           0       -4.197180    5.688315   -0.847894
     44          1           0       -0.453076    0.163480    0.121380
     45          1           0        2.964353   -1.284399   -0.787360
     46          1           0        2.739361   -3.022590   -2.369848
     47          1           0        1.176114   -4.010866   -2.672523
     48          1           0       -5.418121   -1.865123    2.540992
     49          1           0        5.097519    0.176873   -1.205779
     50          1           0        5.950071    1.520194   -0.489366
     51          1           0       -2.735069   -0.010028   -0.867455
     52          1           0        0.605670    1.811005   -0.559344
     53          1           0       -1.141240   -4.870631   -1.085707
     54          1           0       -2.502805   -3.646406   -1.735444
     55          1           0       -1.269793   -3.976701   -3.069538
     56          1           0       -2.626113   -3.653501    0.517488
     57          1           0        1.043912   -4.941277   -0.356019
     58          1           0        2.414886   -5.409787   -1.382269
     59          1           0        4.795164   -1.067149    0.771023
     60          1           0        5.060273    0.376559    1.626008
     61          1           0        4.130370    4.807356   -0.019973
     62          1           0        5.692519    3.489118   -0.040841
     63          1           0        4.760516    3.765881    1.600715
     64          1           0        1.663353    5.032050    0.658741
     65          1           0       -7.791881   -2.408112    1.175307
     66          1           0       -7.518085   -3.821045    1.756325
     67          1           0       -7.175796   -3.385403    0.126093
     68          1           0       -6.784731   -0.494409    0.205811
     69          1           0       -4.890962    1.300676   -0.933913
     70          1           0       -6.212675    0.825527   -1.650232
     71          1           0       -4.787344   -0.079264   -2.032660
     72          1           0       -3.508268    6.474585    1.071071
     73          1           0       -4.211113    4.840236    1.237436
     74          1           0        0.104770    6.596924    1.782599
     75          1           0       -1.344374    7.188880    1.040418
     76          1           0        0.143913    6.993637    0.149113
     77          1           0       -3.536772    6.433355   -1.375464
     78          1           0       -5.241579    6.115479   -0.684858
     79          1           0       -4.381697    4.852938   -1.456407
     80          1           0        3.739389   -4.778615    1.950134
     81          1           0        7.747654   -1.985279    1.941039
 ---------------------------------------------------------------------

 SCF Done:  E(RB3LYP) =  -1949.06908758     A.U. after   16 cycles

 Excitation energies and oscillator strengths:

 Excited State   1:      Singlet-A      1.9845 eV  624.76 nm  f=0.4008  <S**2>=0.000
     156 ->157         0.70722
     156 <-157        -0.10944
 This state for optimization and/or second-order correction.
 Total Energy, E(TD-HF/TD-DFT) =  -1948.99615827
 Copying the excited state density for this state as the 1-particle RhoCI density.

 The electronic state is 1-A.
 Alpha  occ. eigenvalues --  -19.19808 -19.18692 -19.14927 -19.12479 -19.11875
 Alpha  occ. eigenvalues --  -19.11289 -14.37361 -14.37088 -14.35594 -14.28729
 Alpha  occ. eigenvalues --  -10.33933 -10.33364 -10.29210 -10.27259 -10.23768
 Alpha  occ. eigenvalues --  -10.23611 -10.23503 -10.22942 -10.22873 -10.22859
 Alpha  occ. eigenvalues --  -10.22780 -10.22501 -10.22253 -10.21847 -10.21841
 Alpha  occ. eigenvalues --  -10.21379 -10.20899 -10.20653 -10.20403 -10.19619
 Alpha  occ. eigenvalues --  -10.19538 -10.19416 -10.19261 -10.19136 -10.19123
 Alpha  occ. eigenvalues --  -10.18981 -10.18838 -10.18745 -10.18296 -10.18165
 Alpha  occ. eigenvalues --  -10.17796 -10.17308 -10.15850  -1.10462  -1.08397
 Alpha  occ. eigenvalues --   -1.06618  -1.02973  -1.02257  -1.00515  -0.97701
 Alpha  occ. eigenvalues --   -0.97319  -0.95767  -0.90819  -0.83758  -0.81859
 Alpha  occ. eigenvalues --   -0.81247  -0.81045  -0.79511  -0.79062  -0.77943
 Alpha  occ. eigenvalues --   -0.77796  -0.76379  -0.74779  -0.74052  -0.72761
 Alpha  occ. eigenvalues --   -0.71593  -0.70042  -0.68894  -0.68397  -0.68039
 Alpha  occ. eigenvalues --   -0.67521  -0.66177  -0.64543  -0.62710  -0.62365
 Alpha  occ. eigenvalues --   -0.61065  -0.60679  -0.59308  -0.58049  -0.57188
 Alpha  occ. eigenvalues --   -0.56014  -0.55505  -0.54929  -0.53316  -0.52565
 Alpha  occ. eigenvalues --   -0.52190  -0.51480  -0.51298  -0.50876  -0.50245
 Alpha  occ. eigenvalues --   -0.49817  -0.49580  -0.48804  -0.48207  -0.47570
 Alpha  occ. eigenvalues --   -0.47027  -0.46756  -0.46224  -0.45680  -0.45207
 Alpha  occ. eigenvalues --   -0.44712  -0.44361  -0.44170  -0.43926  -0.43694
 Alpha  occ. eigenvalues --   -0.43338  -0.43104  -0.42945  -0.42145  -0.41940
 Alpha  occ. eigenvalues --   -0.41713  -0.41488  -0.41289  -0.41221  -0.40830
 Alpha  occ. eigenvalues --   -0.40645  -0.40107  -0.39836  -0.39326  -0.39168
 Alpha  occ. eigenvalues --   -0.38744  -0.38687  -0.38570  -0.38542  -0.37981
 Alpha  occ. eigenvalues --   -0.37856  -0.37727  -0.37468  -0.36949  -0.36866
 Alpha  occ. eigenvalues --   -0.36824  -0.36604  -0.35844  -0.34797  -0.34589
 Alpha  occ. eigenvalues --   -0.34354  -0.34309  -0.33969  -0.33595  -0.33210
 Alpha  occ. eigenvalues --   -0.33089  -0.32860  -0.31383  -0.30346  -0.29870
 Alpha  occ. eigenvalues --   -0.27403  -0.26803  -0.26678  -0.26232  -0.25322
 Alpha  occ. eigenvalues --   -0.25164  -0.25022  -0.24154  -0.23343  -0.21606
 Alpha  occ. eigenvalues --   -0.17976
 Alpha virt. eigenvalues --   -0.10116  -0.04313  -0.02940  -0.02289  -0.01520
 Alpha virt. eigenvalues --    0.00009   0.01481   0.01756   0.02015   0.03582
 Alpha virt. eigenvalues --    0.04215   0.05013   0.05291   0.05527   0.06081

 Mulliken charges:
               1
     1  O   -0.140218
     2  O   -0.235701
     3  O   -0.189321
     4  O   -0.202197
     5  O   -0.296824
     6  O   -0.168251
     7  N   -0.166258
     8  N    0.033037
     9  N   -0.120776
    10  N   -0.332745
    11  C   -0.117963
    12  C    0.025121
    13  C   -0.159748
    14  C    0.029793
    15  C   -0.078848
    16  C    0.135330
    17  C   -0.050976
    18  C   -0.143714
    19  C    0.123238
    20  C   -0.119241
    21  C    0.171589
    22  C    0.148358
    23  C   -0.036767
    24  C    0.228339
    25  C   -0.229258
    26  C    0.010475
    27  C    0.125789
    28  C    0.039876
    29  C   -0.052381
    30  C   -0.016133
    31  C   -0.163098
    32  C    0.090305
    33  C   -0.171469
    34  C    0.037601
    35  C   -0.026495
    36  C   -0.239709
    37  C    0.137125
    38  C    0.196660
    39  C    0.183773
    40  C    0.079714
    41  C    0.161136
    42  C    0.061198
    43  C    0.000133
    44  H    0.161111
    45  H   -0.029663
    46  H    0.054348
    47  H   -0.026648
    48  H    0.056640
    49  H   -0.062093
    50  H    0.028065
    51  H    0.091669
    52  H    0.081354
    53  H    0.052984
    54  H    0.012337
    55  H    0.062340
    56  H    0.140517
    57  H    0.040480
    58  H    0.034441
    59  H    0.059926
    60  H    0.030730
    61  H    0.056772
    62  H    0.052673
    63  H    0.050124
    64  H    0.003963
    65  H   -0.020691
    66  H    0.022503
    67  H   -0.004538
    68  H   -0.011123
    69  H    0.018947
    70  H   -0.028006
    71  H    0.017470
    72  H    0.003802
    73  H    0.015982
    74  H    0.011844
    75  H   -0.004048
    76  H    0.016817
    77  H    0.020401
    78  H    0.008108
    79  H    0.020373
    80  H    0.218688
    81  H    0.180904
 Sum of Mulliken charges =  -0.00000

 Dipole moment (field-independent basis, Debye):
    X=              2.0601    Y=             -1.6754    Z=              0.9988  Tot=              2.8371
 Quadrupole moment (field-independent basis, Debye-Ang):
   XX=           -259.1204   YY=           -238.5923   ZZ=           -252.9348
   XY=            -24.8479   XZ=             18.0123   YZ=              8.9550

 Normal termination of Gaussian 16 at Sat Jul  6 13:01:46 2019.
