 Gaussian 16, Revision A.03,
 Gaussian 16:  ES64L-G16RevA.03 25-Dec-2016

 --------------------------
 # td=(NStates=1) B3LYP/SVP
 --------------------------

 --
 TD
 --
 Symbolic Z-matrix:
 Charge =  0 Multiplicity = 1

                         Standard orientation:
 ---------------------------------------------------------------------
 Center     Atomic      Atomic             Coordinates (Angstroms)
 Number     Number       Type             X           Y           Z
 ---------------------------------------------------------------------
      1          8           0       -4.413668   -4.731021    1.973673
      2          8           0        3.208343   -4.855268    1.458141
      3          8           0        7.235236   -1.206379    1.727903
      4          8           0        3.854573   -3.123274    0.242850
      5          8           0        7.706209   -0.340371   -0.345813
      6          8           0       -3.098077    2.493539   -0.416849
      7          7           0       -0.242377   -0.631875   -0.649328
      8          7           0        1.447989    1.693570   -0.461317
      9          7           0       -3.383452   -3.148531    0.582753
     10          7           0       -0.878776    2.948633   -0.107276
     11          6           0        0.693881   -2.549756   -1.373438
     12          6           0        0.995301   -1.200471   -0.895700
     13          6           0       -0.681846   -2.718013   -1.224390
     14          6           0       -1.233025   -1.429243   -0.746633
     15          6           0        3.720290    1.506310   -0.340318
     16          6           0        2.465228    0.832630   -0.563556
     17          6           0        2.226577   -0.480248   -0.949862
     18          6           0        3.427212    2.878983   -0.081657
     19          6           0        1.688330   -3.657481   -1.763207
     20          6           0       -5.587949   -2.708981    1.237278
     21          6           0       -3.635613   -1.826961   -0.004024
     22          6           0        2.017794    2.981932   -0.099934
     23          6           0       -5.003315   -1.492668    0.339219
     24          6           0        5.054481    0.797142   -0.469223
     25          6           0       -2.652704   -1.032714   -0.492604
     26          6           0       -1.434649   -3.895639   -1.587574
     27          6           0       -4.440607   -3.756809    1.297731
     28          6           0        2.148053   -4.540091   -0.661641
     29          6           0        5.547550   -0.003999    0.783047
     30          6           0        4.381521    3.927995    0.312901
     31          6           0        1.267952    4.108515    0.316655
     32          6           0       -6.934025   -3.393702    0.866561
     33          6           0       -5.902095   -0.590656   -0.174004
     34          6           0       -0.138484    4.067750    0.257162
     35          6           0       -1.098829    5.128460    0.522664
     36          6           0       -2.364916    4.711571    0.457699
     37          6           0        3.173062   -4.112542    0.337410
     38          6           0       -5.618052    0.526847   -1.277846
     39          6           0        6.866128   -0.488103    0.559998
     40          6           0       -3.677748    5.236881    0.659143
     41          6           0       -2.170946    3.194530   -0.066832
     42          6           0       -0.587772    6.477417    0.927007
     43          6           0       -4.396676    5.418665   -0.672654
     44          1           0       -0.384574    0.239476   -0.275821
     45          1           0        3.035889   -1.017321   -1.405945
     46          1           0        2.720939   -3.295562   -2.076578
     47          1           0        1.360484   -4.247917   -2.610910
     48          1           0       -5.513176   -2.298539    2.204125
     49          1           0        4.983036    0.273453   -1.347867
     50          1           0        5.883992    1.417810   -0.695928
     51          1           0       -2.808693    0.015784   -0.673895
     52          1           0        0.357342    1.777993   -0.315686
     53          1           0       -1.271469   -4.683223   -0.905614
     54          1           0       -2.509063   -3.666996   -1.712357
     55          1           0       -0.888317   -4.363517   -2.600319
     56          1           0       -2.306155   -3.502011    0.555638
     57          1           0        1.478013   -5.084335    0.057671
     58          1           0        2.567246   -5.430812   -1.192914
     59          1           0        4.873746   -1.073124    0.807737
     60          1           0        5.529741    0.729497    1.617771
     61          1           0        4.177352    5.018933   -0.028661
     62          1           0        5.423081    3.651698   -0.062761
     63          1           0        4.415139    4.035382    1.347098
     64          1           0        1.886657    4.902845    0.533565
     65          1           0       -7.783748   -2.648714    1.026826
     66          1           0       -7.145238   -4.236039    1.564905
     67          1           0       -6.794580   -3.553224   -0.228881
     68          1           0       -7.011376   -0.413038    0.278438
     69          1           0       -5.227247    1.450936   -0.854323
     70          1           0       -6.526212    0.717023   -1.888477
     71          1           0       -4.880520    0.105664   -1.966128
     72          1           0       -3.388510    6.032137    1.255313
     73          1           0       -4.366563    4.650089    1.194064
     74          1           0        0.265120    6.410848    1.615605
     75          1           0       -1.427632    7.136921    1.061671
     76          1           0       -0.322358    6.951129   -0.092489
     77          1           0       -3.918564    6.393423   -1.141373
     78          1           0       -5.526774    5.537884   -0.569166
     79          1           0       -4.377804    4.668922   -1.412054
     80          1           0        3.845487   -4.688122    2.099090
     81          1           0        8.346038   -1.351045    1.589314
 ---------------------------------------------------------------------

 SCF Done:  E(RB3LYP) =  -1949.13251932     A.U. after   19 cycles

 Excitation energies and oscillator strengths:

 Excited State   1:      Singlet-A      1.9100 eV  649.12 nm  f=0.4273  <S**2>=0.000
     156 ->157         0.71165
     156 <-157        -0.13327
 This state for optimization and/or second-order correction.
 Total Energy, E(TD-HF/TD-DFT) =  -1949.06232709
 Copying the excited state density for this state as the 1-particle RhoCI density.

 The electronic state is 1-A.
 Alpha  occ. eigenvalues --  -19.19019 -19.17361 -19.13907 -19.13286 -19.11702
 Alpha  occ. eigenvalues --  -19.08956 -14.39139 -14.37541 -14.35310 -14.28315
 Alpha  occ. eigenvalues --  -10.33808 -10.32006 -10.29470 -10.25527 -10.24897
 Alpha  occ. eigenvalues --  -10.24825 -10.24184 -10.23346 -10.23014 -10.22717
 Alpha  occ. eigenvalues --  -10.22567 -10.22473 -10.22016 -10.21927 -10.21710
 Alpha  occ. eigenvalues --  -10.21290 -10.21132 -10.20825 -10.20690 -10.20418
 Alpha  occ. eigenvalues --  -10.20227 -10.20165 -10.20106 -10.19978 -10.19789
 Alpha  occ. eigenvalues --  -10.19297 -10.18763 -10.18629 -10.18121 -10.18048
 Alpha  occ. eigenvalues --  -10.17918 -10.17301 -10.17119  -1.11632  -1.05942
 Alpha  occ. eigenvalues --   -1.04711  -1.02372  -1.02195  -1.00549  -0.97273
 Alpha  occ. eigenvalues --   -0.96581  -0.93174  -0.91151  -0.83960  -0.81954
 Alpha  occ. eigenvalues --   -0.81638  -0.80370  -0.80202  -0.79813  -0.79264
 Alpha  occ. eigenvalues --   -0.77644  -0.76774  -0.75446  -0.73678  -0.72969
 Alpha  occ. eigenvalues --   -0.72126  -0.71230  -0.69785  -0.68375  -0.67891
 Alpha  occ. eigenvalues --   -0.67297  -0.65438  -0.64183  -0.63599  -0.62606
 Alpha  occ. eigenvalues --   -0.61470  -0.59810  -0.59356  -0.57469  -0.56700
 Alpha  occ. eigenvalues --   -0.56588  -0.54992  -0.54642  -0.53184  -0.52288
 Alpha  occ. eigenvalues --   -0.51885  -0.51410  -0.51196  -0.50055  -0.49738
 Alpha  occ. eigenvalues --   -0.49453  -0.48922  -0.48501  -0.47887  -0.47411
 Alpha  occ. eigenvalues --   -0.46965  -0.46800  -0.46598  -0.46035  -0.45805
 Alpha  occ. eigenvalues --   -0.45626  -0.44584  -0.44385  -0.43985  -0.43727
 Alpha  occ. eigenvalues --   -0.43577  -0.43391  -0.43219  -0.42805  -0.42753
 Alpha  occ. eigenvalues --   -0.42297  -0.41960  -0.41594  -0.41053  -0.40961
 Alpha  occ. eigenvalues --   -0.40867  -0.40427  -0.40325  -0.40128  -0.40038
 Alpha  occ. eigenvalues --   -0.39582  -0.39341  -0.38923  -0.38639  -0.38402
 Alpha  occ. eigenvalues --   -0.37691  -0.37532  -0.37141  -0.36790  -0.36666
 Alpha  occ. eigenvalues --   -0.36569  -0.36089  -0.35694  -0.35668  -0.35271
 Alpha  occ. eigenvalues --   -0.35082  -0.34116  -0.33973  -0.33728  -0.32812
 Alpha  occ. eigenvalues --   -0.32350  -0.32159  -0.31172  -0.29928  -0.29199
 Alpha  occ. eigenvalues --   -0.28178  -0.26902  -0.26686  -0.26566  -0.26060
 Alpha  occ. eigenvalues --   -0.25302  -0.24756  -0.22704  -0.22318  -0.21845
 Alpha  occ. eigenvalues --   -0.17954
 Alpha virt. eigenvalues --   -0.10635  -0.05564  -0.04071  -0.01693  -0.01059
 Alpha virt. eigenvalues --    0.00997   0.01785   0.02325   0.02483   0.03454
 Alpha virt. eigenvalues --    0.04104   0.04890   0.05226   0.05499   0.05529

 Mulliken charges:
               1
     1  O   -0.177705
     2  O   -0.157104
     3  O   -0.314837
     4  O   -0.210533
     5  O   -0.254714
     6  O   -0.226350
     7  N    0.086082
     8  N   -0.174907
     9  N   -0.260351
    10  N   -0.289620
    11  C   -0.056359
    12  C    0.013743
    13  C   -0.201756
    14  C   -0.033633
    15  C   -0.081340
    16  C    0.104939
    17  C   -0.021378
    18  C   -0.121659
    19  C    0.132792
    20  C   -0.084747
    21  C    0.149686
    22  C    0.058584
    23  C   -0.002415
    24  C    0.129552
    25  C   -0.051917
    26  C    0.074321
    27  C    0.146264
    28  C   -0.024672
    29  C   -0.033146
    30  C    0.083675
    31  C   -0.077602
    32  C    0.054838
    33  C   -0.192543
    34  C    0.164296
    35  C   -0.150540
    36  C   -0.196828
    37  C    0.109409
    38  C    0.033865
    39  C    0.172803
    40  C    0.171170
    41  C    0.106161
    42  C    0.146358
    43  C   -0.018702
    44  H    0.087840
    45  H   -0.011527
    46  H    0.020212
    47  H    0.002676
    48  H    0.024094
    49  H   -0.012721
    50  H   -0.016086
    51  H    0.012263
    52  H    0.182312
    53  H    0.011134
    54  H    0.049650
    55  H    0.029668
    56  H    0.171926
    57  H    0.031681
    58  H    0.041645
    59  H    0.123342
    60  H    0.058090
    61  H    0.031352
    62  H    0.028644
    63  H    0.009478
    64  H   -0.073952
    65  H    0.019897
    66  H    0.048135
    67  H    0.029429
    68  H    0.043293
    69  H    0.073228
    70  H    0.011102
    71  H    0.018268
    72  H   -0.024965
    73  H   -0.015184
    74  H    0.039333
    75  H   -0.016545
    76  H    0.011158
    77  H    0.008280
    78  H    0.005867
    79  H    0.022995
    80  H    0.168339
    81  H    0.232470
 Sum of Mulliken charges =  -0.00000

 Dipole moment (field-independent basis, Debye):
    X=              2.7410    Y=             -1.2877    Z=              0.5699  Tot=              3.0815
 Quadrupole moment (field-independent basis, Debye-Ang):
   XX=           -252.1186   YY=           -241.2482   ZZ=           -255.7647
   XY=            -12.4698   XZ=             15.5290   YZ=             14.9745

 Normal termination of Gaussian 16 at Wed Jul  3 05:28:14 2019.
