 Gaussian 16, Revision A.03,
 Gaussian 16:  ES64L-G16RevA.03 25-Dec-2016

 --------------------------
 # td=(NStates=1) B3LYP/SVP
 --------------------------

 --
 TD
 --
 Symbolic Z-matrix:
 Charge =  0 Multiplicity = 1

                         Standard orientation:
 ---------------------------------------------------------------------
 Center     Atomic      Atomic             Coordinates (Angstroms)
 Number     Number       Type             X           Y           Z
 ---------------------------------------------------------------------
      1          8           0       -4.812689   -4.689012    1.985965
      2          8           0        3.120233   -4.880552    1.154461
      3          8           0        7.169907   -1.422157    1.858972
      4          8           0        4.027523   -3.193111   -0.083037
      5          8           0        7.702150   -0.596964   -0.119159
      6          8           0       -2.953723    2.510447   -0.226384
      7          7           0       -0.270828   -0.653236   -0.488287
      8          7           0        1.624996    1.755644   -0.404400
      9          7           0       -3.489347   -3.145270    0.892480
     10          7           0       -0.746539    2.877056   -0.116073
     11          6           0        0.612977   -2.426521   -1.352358
     12          6           0        0.900275   -1.179263   -0.980650
     13          6           0       -0.781710   -2.798051   -1.144809
     14          6           0       -1.320167   -1.515789   -0.622105
     15          6           0        3.751361    1.416658   -0.392852
     16          6           0        2.501748    0.774837   -0.580539
     17          6           0        2.127626   -0.592687   -0.847343
     18          6           0        3.517161    2.724289    0.025793
     19          6           0        1.691373   -3.467202   -1.899559
     20          6           0       -5.737391   -2.546345    1.343506
     21          6           0       -3.658204   -1.911917    0.168822
     22          6           0        2.135012    2.966301   -0.003681
     23          6           0       -5.102672   -1.521769    0.381635
     24          6           0        4.986841    0.591603   -0.548203
     25          6           0       -2.688893   -1.073745   -0.400079
     26          6           0       -1.659293   -3.951941   -1.671721
     27          6           0       -4.713757   -3.612359    1.459966
     28          6           0        2.033508   -4.460381   -0.826370
     29          6           0        5.416686   -0.132847    0.912511
     30          6           0        4.594771    3.796739    0.288250
     31          6           0        1.252150    4.032833    0.310837
     32          6           0       -7.114920   -3.057541    0.772811
     33          6           0       -5.798775   -0.476484   -0.307952
     34          6           0       -0.078031    3.998253    0.245486
     35          6           0       -0.919089    5.203889    0.520785
     36          6           0       -2.258570    4.716180    0.373258
     37          6           0        3.138120   -4.077754    0.064526
     38          6           0       -5.265668    0.481900   -1.325752
     39          6           0        6.878901   -0.731985    0.701975
     40          6           0       -3.604661    5.477301    0.421887
     41          6           0       -2.017062    3.297889   -0.000238
     42          6           0       -0.440084    6.560143    0.911442
     43          6           0       -4.073170    5.856349   -0.952180
     44          1           0       -0.398272    0.218647   -0.131940
     45          1           0        3.033523   -1.252391   -0.888524
     46          1           0        2.575030   -2.992531   -2.214606
     47          1           0        1.189791   -3.787955   -2.798520
     48          1           0       -5.827479   -2.239105    2.472524
     49          1           0        4.719634   -0.239299   -1.257086
     50          1           0        5.775313    1.194832   -0.668978
     51          1           0       -2.931490   -0.059729   -0.860143
     52          1           0        0.500865    1.524281   -0.675758
     53          1           0       -1.750907   -4.708351   -0.744275
     54          1           0       -2.602249   -3.607898   -1.910368
     55          1           0       -1.142994   -4.435301   -2.432264
     56          1           0       -2.648129   -3.533936    0.939806
     57          1           0        1.063752   -4.843682   -0.312393
     58          1           0        2.359854   -5.555192   -1.117520
     59          1           0        4.859264   -1.085302    1.024476
     60          1           0        5.569362    0.514206    1.881583
     61          1           0        4.326408    4.711645   -0.364884
     62          1           0        5.579224    3.472896    0.113330
     63          1           0        4.388519    4.104252    1.204658
     64          1           0        1.794618    5.010797    0.846634
     65          1           0       -7.941539   -2.415286    0.901596
     66          1           0       -7.600416   -3.869976    1.338114
     67          1           0       -6.878661   -3.372269   -0.242985
     68          1           0       -6.869356   -0.484077    0.177834
     69          1           0       -4.630575    1.209239   -0.893841
     70          1           0       -6.106878    0.984510   -1.737493
     71          1           0       -4.903887   -0.229894   -2.349475
     72          1           0       -3.524859    6.299608    1.049479
     73          1           0       -4.322249    4.715839    0.735188
     74          1           0        0.459431    6.760130    1.595633
     75          1           0       -1.308793    7.175531    1.604599
     76          1           0       -0.191304    7.394740    0.097853
     77          1           0       -3.245153    6.604334   -1.396373
     78          1           0       -5.223758    6.221755   -0.970159
     79          1           0       -3.809052    5.020058   -1.715499
     80          1           0        3.792640   -4.622281    1.797306
     81          1           0        8.177242   -1.634919    1.867282
 ---------------------------------------------------------------------

 SCF Done:  E(RB3LYP) =  -1949.07453175     A.U. after   22 cycles

 Excitation energies and oscillator strengths:

 Excited State   1:      Singlet-A      1.8846 eV  657.87 nm  f=0.3986  <S**2>=0.000
     156 ->157         0.70818
     156 <-157        -0.13195
 This state for optimization and/or second-order correction.
 Total Energy, E(TD-HF/TD-DFT) =  -1949.00527263
 Copying the excited state density for this state as the 1-particle RhoCI density.

 The electronic state is 1-A.
 Alpha  occ. eigenvalues --  -19.19833 -19.16646 -19.14776 -19.12913 -19.11643
 Alpha  occ. eigenvalues --  -19.07636 -14.37658 -14.36801 -14.35899 -14.27885
 Alpha  occ. eigenvalues --  -10.34661 -10.31296 -10.29931 -10.25437 -10.24617
 Alpha  occ. eigenvalues --  -10.24471 -10.23723 -10.23433 -10.22698 -10.22483
 Alpha  occ. eigenvalues --  -10.22237 -10.22006 -10.21986 -10.21843 -10.21574
 Alpha  occ. eigenvalues --  -10.21395 -10.21112 -10.21111 -10.20966 -10.20801
 Alpha  occ. eigenvalues --  -10.20579 -10.20523 -10.20190 -10.20070 -10.19725
 Alpha  occ. eigenvalues --  -10.19584 -10.19543 -10.19375 -10.19287 -10.19170
 Alpha  occ. eigenvalues --  -10.19008 -10.18818 -10.18254  -1.10552  -1.09128
 Alpha  occ. eigenvalues --   -1.04464  -1.00527  -0.99916  -0.99807  -0.99167
 Alpha  occ. eigenvalues --   -0.98375  -0.94556  -0.90950  -0.83255  -0.81490
 Alpha  occ. eigenvalues --   -0.81289  -0.80681  -0.79100  -0.78933  -0.78729
 Alpha  occ. eigenvalues --   -0.76611  -0.75737  -0.74632  -0.74095  -0.72898
 Alpha  occ. eigenvalues --   -0.71545  -0.70330  -0.70157  -0.69149  -0.67601
 Alpha  occ. eigenvalues --   -0.67063  -0.66116  -0.64626  -0.61852  -0.61360
 Alpha  occ. eigenvalues --   -0.59979  -0.59052  -0.58192  -0.57944  -0.57351
 Alpha  occ. eigenvalues --   -0.56498  -0.55192  -0.54582  -0.53210  -0.52892
 Alpha  occ. eigenvalues --   -0.52467  -0.52036  -0.51027  -0.50168  -0.49462
 Alpha  occ. eigenvalues --   -0.49059  -0.48752  -0.48620  -0.47721  -0.47589
 Alpha  occ. eigenvalues --   -0.47118  -0.46614  -0.46358  -0.45673  -0.45098
 Alpha  occ. eigenvalues --   -0.44964  -0.44630  -0.44353  -0.43729  -0.43596
 Alpha  occ. eigenvalues --   -0.43151  -0.42989  -0.42626  -0.42471  -0.42342
 Alpha  occ. eigenvalues --   -0.41835  -0.41690  -0.41358  -0.41164  -0.41008
 Alpha  occ. eigenvalues --   -0.40556  -0.40285  -0.40125  -0.39691  -0.39442
 Alpha  occ. eigenvalues --   -0.39156  -0.38319  -0.38293  -0.38066  -0.38030
 Alpha  occ. eigenvalues --   -0.37641  -0.37440  -0.37209  -0.36629  -0.36473
 Alpha  occ. eigenvalues --   -0.36272  -0.36119  -0.35961  -0.35656  -0.35277
 Alpha  occ. eigenvalues --   -0.34291  -0.33948  -0.33522  -0.32867  -0.32506
 Alpha  occ. eigenvalues --   -0.32305  -0.31946  -0.31299  -0.30078  -0.29642
 Alpha  occ. eigenvalues --   -0.27833  -0.27416  -0.27061  -0.26101  -0.25683
 Alpha  occ. eigenvalues --   -0.24758  -0.24121  -0.22721  -0.22679  -0.21430
 Alpha  occ. eigenvalues --   -0.18017
 Alpha virt. eigenvalues --   -0.10774  -0.05742  -0.04472  -0.03181  -0.00943
 Alpha virt. eigenvalues --    0.01465   0.02245   0.02706   0.03475   0.03871
 Alpha virt. eigenvalues --    0.04103   0.04361   0.05342   0.05604   0.05874

 Mulliken charges:
               1
     1  O   -0.183881
     2  O   -0.178347
     3  O   -0.260334
     4  O   -0.269555
     5  O   -0.179875
     6  O   -0.251998
     7  N   -0.018333
     8  N   -0.134445
     9  N   -0.118448
    10  N   -0.237262
    11  C   -0.194438
    12  C    0.169031
    13  C   -0.187324
    14  C    0.010918
    15  C   -0.100296
    16  C   -0.016228
    17  C   -0.089111
    18  C   -0.169134
    19  C    0.198114
    20  C   -0.059962
    21  C    0.103850
    22  C    0.105569
    23  C   -0.105541
    24  C    0.175571
    25  C   -0.106279
    26  C    0.151017
    27  C    0.124787
    28  C   -0.033433
    29  C   -0.075981
    30  C    0.189456
    31  C   -0.201003
    32  C    0.074122
    33  C   -0.129105
    34  C    0.113946
    35  C   -0.027337
    36  C   -0.209696
    37  C    0.166235
    38  C    0.067639
    39  C    0.127525
    40  C    0.194169
    41  C    0.107497
    42  C   -0.064560
    43  C   -0.080609
    44  H    0.078728
    45  H    0.025631
    46  H   -0.007779
    47  H    0.006487
    48  H    0.069854
    49  H    0.038706
    50  H   -0.033107
    51  H    0.069138
    52  H    0.204600
    53  H    0.027709
    54  H    0.021716
    55  H   -0.001918
    56  H    0.075748
    57  H    0.055256
    58  H    0.062896
    59  H    0.055136
    60  H    0.070823
    61  H    0.026243
    62  H    0.006098
    63  H   -0.020852
    64  H    0.008177
    65  H    0.003134
    66  H    0.013264
    67  H    0.027118
    68  H    0.017713
    69  H    0.085320
    70  H   -0.001643
    71  H    0.049893
    72  H   -0.017513
    73  H    0.003471
    74  H    0.033024
    75  H    0.032033
    76  H    0.046697
    77  H    0.007749
    78  H    0.046212
    79  H    0.032780
    80  H    0.188520
    81  H    0.196012
 Sum of Mulliken charges =  -0.00000

 Dipole moment (field-independent basis, Debye):
    X=              1.6323    Y=             -1.1802    Z=              0.5055  Tot=              2.0767
 Quadrupole moment (field-independent basis, Debye-Ang):
   XX=           -249.5305   YY=           -240.8697   ZZ=           -253.5604
   XY=             -9.3611   XZ=             18.3574   YZ=             13.7354

 Normal termination of Gaussian 16 at Sat Jun 29 13:25:09 2019.
