 Gaussian 16, Revision A.03,
 Gaussian 16:  ES64L-G16RevA.03 25-Dec-2016

 --------------------------
 # td=(NStates=1) B3LYP/SVP
 --------------------------

 --
 TD
 --
 Symbolic Z-matrix:
 Charge =  0 Multiplicity = 1

                         Standard orientation:
 ---------------------------------------------------------------------
 Center     Atomic      Atomic             Coordinates (Angstroms)
 Number     Number       Type             X           Y           Z
 ---------------------------------------------------------------------
      1          8           0       -4.570959   -4.598469    2.059160
      2          8           0        2.934342   -4.716932    1.349674
      3          8           0        7.137336   -1.458947    1.822503
      4          8           0        3.728144   -3.129741   -0.065067
      5          8           0        7.482462   -0.681406   -0.279807
      6          8           0       -3.062322    2.525155   -0.236166
      7          7           0       -0.299427   -0.595936   -0.557392
      8          7           0        1.560886    1.712530   -0.352518
      9          7           0       -3.459711   -3.097920    0.733436
     10          7           0       -0.780016    2.911426   -0.128740
     11          6           0        0.573158   -2.561982   -1.319724
     12          6           0        0.931138   -1.158748   -0.859775
     13          6           0       -0.807532   -2.710240   -1.253106
     14          6           0       -1.359113   -1.523419   -0.728639
     15          6           0        3.813481    1.365689   -0.296289
     16          6           0        2.471845    0.809424   -0.584669
     17          6           0        2.182626   -0.500632   -0.856463
     18          6           0        3.525554    2.730761    0.106847
     19          6           0        1.595782   -3.469535   -1.892057
     20          6           0       -5.622271   -2.583572    1.362962
     21          6           0       -3.699552   -1.850545    0.143051
     22          6           0        2.209775    2.875515   -0.001484
     23          6           0       -5.020276   -1.454614    0.438731
     24          6           0        5.027920    0.621100   -0.432776
     25          6           0       -2.630264   -1.009370   -0.329046
     26          6           0       -1.536206   -3.913168   -1.802390
     27          6           0       -4.516147   -3.549029    1.435657
     28          6           0        1.979385   -4.631701   -0.876740
     29          6           0        5.431559   -0.279308    0.821292
     30          6           0        4.584410    3.767156    0.480517
     31          6           0        1.373892    4.110489    0.245227
     32          6           0       -7.020782   -3.103745    0.944807
     33          6           0       -5.733007   -0.500096   -0.229154
     34          6           0        0.007534    4.062707    0.157537
     35          6           0       -0.898237    5.207482    0.459764
     36          6           0       -2.141793    4.740857    0.337481
     37          6           0        2.944793   -4.125513    0.168958
     38          6           0       -5.350568    0.453551   -1.262062
     39          6           0        6.756842   -0.833501    0.675436
     40          6           0       -3.475185    5.443276    0.396941
     41          6           0       -2.055591    3.251403   -0.146193
     42          6           0       -0.384873    6.579921    0.962165
     43          6           0       -4.153614    5.649866   -0.926466
     44          1           0       -0.351339    0.364375    0.074162
     45          1           0        2.993450   -0.997854   -1.230407
     46          1           0        2.481224   -3.238860   -2.528690
     47          1           0        1.255305   -4.203728   -2.671244
     48          1           0       -5.833024   -2.216371    2.315569
     49          1           0        5.203813    0.053181   -1.441353
     50          1           0        5.997917    1.391945   -0.624578
     51          1           0       -2.864239   -0.037090   -0.675522
     52          1           0        0.364193    1.842785   -0.359585
     53          1           0       -1.562998   -4.733986   -1.129750
     54          1           0       -2.626222   -3.475476   -2.046829
     55          1           0       -1.075085   -4.352808   -2.854812
     56          1           0       -2.421723   -3.346560    0.915085
     57          1           0        1.106009   -4.958529   -0.311725
     58          1           0        2.686037   -5.374970   -1.378411
     59          1           0        4.630904   -0.937796    1.049482
     60          1           0        5.382496    0.422320    1.589290
     61          1           0        4.693393    4.459917   -0.356091
     62          1           0        5.513250    3.297195    0.442761
     63          1           0        4.462459    4.292362    1.353853
     64          1           0        1.839148    5.091071    0.536690
     65          1           0       -7.764126   -2.221493    1.017905
     66          1           0       -7.106528   -3.932954    1.704926
     67          1           0       -7.106321   -3.378308   -0.056992
     68          1           0       -6.996315   -0.441417   -0.107105
     69          1           0       -5.083971    1.529189   -0.808166
     70          1           0       -6.418014    0.491444   -2.048802
     71          1           0       -4.434200    0.071241   -1.879787
     72          1           0       -3.296465    6.385347    0.778700
     73          1           0       -4.140257    4.802916    0.886132
     74          1           0        0.301377    6.660283    1.650088
     75          1           0       -1.205544    7.192826    1.069487
     76          1           0        0.185673    6.977009    0.235029
     77          1           0       -3.500704    6.443489   -1.597132
     78          1           0       -5.073568    6.036929   -0.886880
     79          1           0       -4.133924    4.793571   -1.528552
     80          1           0        3.516397   -4.430290    1.998775
     81          1           0        8.009271   -1.811751    1.796570
 ---------------------------------------------------------------------

 SCF Done:  E(RB3LYP) =  -1949.07532547     A.U. after   19 cycles

 Excitation energies and oscillator strengths:

 Excited State   1:      Singlet-A      1.8458 eV  671.72 nm  f=0.4217  <S**2>=0.000
     156 ->157         0.70814
     156 <-157        -0.12264
 This state for optimization and/or second-order correction.
 Total Energy, E(TD-HF/TD-DFT) =  -1949.00749474
 Copying the excited state density for this state as the 1-particle RhoCI density.

 The electronic state is 1-A.
 Alpha  occ. eigenvalues --  -19.20320 -19.17742 -19.12738 -19.12645 -19.10720
 Alpha  occ. eigenvalues --  -19.07952 -14.38936 -14.38449 -14.34601 -14.28886
 Alpha  occ. eigenvalues --  -10.33757 -10.31990 -10.29087 -10.25310 -10.25016
 Alpha  occ. eigenvalues --  -10.24831 -10.24357 -10.23224 -10.22780 -10.22285
 Alpha  occ. eigenvalues --  -10.22182 -10.22123 -10.22078 -10.22033 -10.21795
 Alpha  occ. eigenvalues --  -10.21425 -10.21266 -10.21166 -10.20793 -10.20745
 Alpha  occ. eigenvalues --  -10.20373 -10.20369 -10.19660 -10.19495 -10.19463
 Alpha  occ. eigenvalues --  -10.19449 -10.19156 -10.18425 -10.18389 -10.17212
 Alpha  occ. eigenvalues --  -10.16401 -10.16318 -10.16043  -1.11732  -1.09413
 Alpha  occ. eigenvalues --   -1.03896  -1.00880  -0.98728  -0.98535  -0.98314
 Alpha  occ. eigenvalues --   -0.97070  -0.96238  -0.89996  -0.82726  -0.82022
 Alpha  occ. eigenvalues --   -0.81805  -0.81537  -0.79445  -0.79026  -0.78414
 Alpha  occ. eigenvalues --   -0.77583  -0.76507  -0.75641  -0.74111  -0.72620
 Alpha  occ. eigenvalues --   -0.72005  -0.70631  -0.69694  -0.69351  -0.68923
 Alpha  occ. eigenvalues --   -0.68069  -0.65902  -0.64417  -0.63374  -0.61998
 Alpha  occ. eigenvalues --   -0.61459  -0.60246  -0.59547  -0.58388  -0.57591
 Alpha  occ. eigenvalues --   -0.56485  -0.55318  -0.54360  -0.52698  -0.52540
 Alpha  occ. eigenvalues --   -0.52271  -0.51422  -0.50875  -0.50705  -0.49845
 Alpha  occ. eigenvalues --   -0.49094  -0.48864  -0.48240  -0.47980  -0.47614
 Alpha  occ. eigenvalues --   -0.47084  -0.46368  -0.46347  -0.45939  -0.45522
 Alpha  occ. eigenvalues --   -0.45411  -0.44636  -0.44311  -0.43928  -0.43868
 Alpha  occ. eigenvalues --   -0.43514  -0.43057  -0.42913  -0.42339  -0.41963
 Alpha  occ. eigenvalues --   -0.41892  -0.41713  -0.41150  -0.41015  -0.40787
 Alpha  occ. eigenvalues --   -0.40725  -0.40362  -0.39978  -0.39730  -0.39668
 Alpha  occ. eigenvalues --   -0.39347  -0.39243  -0.39033  -0.38370  -0.38266
 Alpha  occ. eigenvalues --   -0.37892  -0.37676  -0.37658  -0.37303  -0.37068
 Alpha  occ. eigenvalues --   -0.36631  -0.36069  -0.35930  -0.35344  -0.33990
 Alpha  occ. eigenvalues --   -0.33646  -0.33310  -0.32850  -0.32437  -0.32089
 Alpha  occ. eigenvalues --   -0.31882  -0.31697  -0.31574  -0.29671  -0.28479
 Alpha  occ. eigenvalues --   -0.27981  -0.27201  -0.26859  -0.26648  -0.26011
 Alpha  occ. eigenvalues --   -0.25561  -0.24192  -0.22648  -0.22485  -0.21287
 Alpha  occ. eigenvalues --   -0.18218
 Alpha virt. eigenvalues --   -0.11022  -0.05790  -0.03554  -0.02099  -0.00580
 Alpha virt. eigenvalues --    0.00124   0.01147   0.02331   0.02531   0.03522
 Alpha virt. eigenvalues --    0.04401   0.04749   0.05000   0.05804   0.05923

 Mulliken charges:
               1
     1  O   -0.220546
     2  O   -0.116830
     3  O   -0.187425
     4  O   -0.305859
     5  O   -0.220542
     6  O   -0.283462
     7  N   -0.174169
     8  N   -0.142632
     9  N   -0.115522
    10  N   -0.309144
    11  C   -0.011302
    12  C    0.063013
    13  C   -0.136521
    14  C    0.091535
    15  C   -0.022589
    16  C    0.044134
    17  C    0.019576
    18  C   -0.173910
    19  C    0.067855
    20  C   -0.026585
    21  C    0.026263
    22  C    0.082870
    23  C    0.015029
    24  C   -0.103063
    25  C   -0.065581
    26  C    0.018549
    27  C    0.104219
    28  C    0.001279
    29  C    0.091851
    30  C    0.213701
    31  C   -0.132428
    32  C    0.042543
    33  C   -0.175539
    34  C    0.114766
    35  C   -0.113742
    36  C   -0.250674
    37  C    0.110018
    38  C   -0.057610
    39  C    0.155297
    40  C    0.197004
    41  C    0.154137
    42  C    0.305884
    43  C    0.020640
    44  H    0.201106
    45  H   -0.038260
    46  H    0.026476
    47  H   -0.008947
    48  H    0.021731
    49  H    0.051791
    50  H    0.032881
    51  H    0.022182
    52  H    0.219311
    53  H    0.027127
    54  H    0.055336
    55  H    0.050101
    56  H    0.168829
    57  H    0.033325
    58  H    0.059278
    59  H    0.029308
    60  H    0.008906
    61  H    0.010144
    62  H   -0.027932
    63  H    0.003576
    64  H   -0.019993
    65  H    0.030351
    66  H    0.051744
    67  H   -0.001046
    68  H    0.037928
    69  H    0.122543
    70  H    0.030337
    71  H    0.051717
    72  H   -0.035052
    73  H   -0.014913
    74  H   -0.041350
    75  H   -0.021543
    76  H   -0.043307
    77  H   -0.011176
    78  H   -0.018309
    79  H    0.007219
    80  H    0.169034
    81  H    0.165063
 Sum of Mulliken charges =  -0.00000

 Dipole moment (field-independent basis, Debye):
    X=              3.2133    Y=             -2.1347    Z=              0.8291  Tot=              3.9458
 Quadrupole moment (field-independent basis, Debye-Ang):
   XX=           -248.7357   YY=           -241.9189   ZZ=           -253.5348
   XY=            -12.8809   XZ=             20.4913   YZ=             13.2011

 Normal termination of Gaussian 16 at Sat Jun 29 05:53:14 2019.
