 Gaussian 16, Revision A.03,
 Gaussian 16:  ES64L-G16RevA.03 25-Dec-2016

 --------------------------
 # td=(NStates=1) B3LYP/SVP
 --------------------------

 --
 TD
 --
 Symbolic Z-matrix:
 Charge =  0 Multiplicity = 1

                         Standard orientation:
 ---------------------------------------------------------------------
 Center     Atomic      Atomic             Coordinates (Angstroms)
 Number     Number       Type             X           Y           Z
 ---------------------------------------------------------------------
      1          8           0        4.476313   -4.740227   -1.985482
      2          8           0       -2.539806   -4.779546   -1.337795
      3          8           0       -7.099685   -1.771117   -1.910623
      4          8           0       -3.435187   -3.193475   -0.107356
      5          8           0       -7.684211   -0.977442    0.162846
      6          8           0        3.000501    2.686358    0.245403
      7          7           0        0.310167   -0.594954    0.634899
      8          7           0       -1.628054    1.823381    0.355763
      9          7           0        3.513057   -3.049902   -0.798760
     10          7           0        0.678539    3.040164    0.087699
     11          6           0       -0.623502   -2.520198    1.407833
     12          6           0       -0.927836   -1.140000    1.029091
     13          6           0        0.797746   -2.702768    1.325598
     14          6           0        1.263015   -1.511733    0.750346
     15          6           0       -3.821147    1.348618    0.359704
     16          6           0       -2.517073    0.649529    0.631282
     17          6           0       -2.206496   -0.566397    0.945825
     18          6           0       -3.603857    2.688367    0.031016
     19          6           0       -1.523861   -3.552572    1.997631
     20          6           0        5.647563   -2.572745   -1.295070
     21          6           0        3.648719   -1.822951   -0.186863
     22          6           0       -2.204530    2.889959   -0.047968
     23          6           0        5.124374   -1.540162   -0.272995
     24          6           0       -5.016294    0.538992    0.421303
     25          6           0        2.652675   -1.093535    0.378830
     26          6           0        1.599518   -3.877430    1.683526
     27          6           0        4.622194   -3.626194   -1.363984
     28          6           0       -1.834900   -4.697381    0.962618
     29          6           0       -5.513137   -0.213573   -0.882713
     30          6           0       -4.669732    3.654040   -0.267326
     31          6           0       -1.451392    4.071660   -0.301330
     32          6           0        7.091243   -2.981434   -1.108319
     33          6           0        5.857319   -0.531405    0.231975
     34          6           0       -0.141620    4.056185   -0.252367
     35          6           0        0.787341    5.294253   -0.539207
     36          6           0        2.051223    4.911917   -0.387319
     37          6           0       -2.666631   -4.107427   -0.199468
     38          6           0        5.485636    0.490638    1.254408
     39          6           0       -6.905531   -0.999765   -0.754625
     40          6           0        3.330973    5.656462   -0.392269
     41          6           0        2.020172    3.353660   -0.049971
     42          6           0        0.307279    6.664820   -0.960137
     43          6           0        3.880811    6.169306    1.015238
     44          1           0        0.501948    0.275957    0.291307
     45          1           0       -2.933435   -1.412059    0.954890
     46          1           0       -2.417489   -3.270767    2.706114
     47          1           0       -0.976915   -4.006905    2.895108
     48          1           0        5.355828   -1.841541   -2.271815
     49          1           0       -5.074630   -0.035318    1.431334
     50          1           0       -5.875218    1.295987    0.389816
     51          1           0        3.036941   -0.044071    0.615393
     52          1           0       -0.741092    1.808454    0.603142
     53          1           0        1.623520   -4.726589    0.972560
     54          1           0        2.711872   -3.304170    2.036093
     55          1           0        1.251248   -4.352643    2.592952
     56          1           0        2.713952   -3.661224   -0.635937
     57          1           0       -0.670367   -5.270785    0.643245
     58          1           0       -2.544525   -5.418354    1.413063
     59          1           0       -4.796875   -0.990460   -0.961511
     60          1           0       -5.392109    0.544027   -1.705156
     61          1           0       -4.765925    4.327660    0.488395
     62          1           0       -5.765490    3.251428   -0.299305
     63          1           0       -4.539374    4.050578   -1.352519
     64          1           0       -1.863196    4.964446   -0.549256
     65          1           0        7.914272   -2.168423   -1.478009
     66          1           0        7.542655   -4.035861   -1.629178
     67          1           0        7.399480   -3.370919    0.045383
     68          1           0        7.032293   -0.516570    0.087481
     69          1           0        4.657724    1.163478    0.762785
     70          1           0        6.358843    0.979736    1.567887
     71          1           0        4.890217   -0.024152    2.031452
     72          1           0        3.282860    6.577753   -1.210187
     73          1           0        4.046460    4.916130   -0.767517
     74          1           0       -0.313278    6.642071   -1.988983
     75          1           0        1.165397    7.614253   -0.865273
     76          1           0       -0.524014    7.190398   -0.376360
     77          1           0        3.089364    6.892868    1.341076
     78          1           0        4.784048    6.826435    0.681937
     79          1           0        3.755329    5.244851    1.740496
     80          1           0       -3.204758   -4.333765   -2.070193
     81          1           0       -7.816498   -2.393593   -1.609618
 ---------------------------------------------------------------------

 SCF Done:  E(RB3LYP) =  -1949.04162527     A.U. after   16 cycles

 Excitation energies and oscillator strengths:

 Excited State   1:      Singlet-A      2.1651 eV  572.64 nm  f=0.3915  <S**2>=0.000
     156 ->157         0.70198
 This state for optimization and/or second-order correction.
 Total Energy, E(TD-HF/TD-DFT) =  -1948.96205787
 Copying the excited state density for this state as the 1-particle RhoCI density.

 The electronic state is 1-A.
 Alpha  occ. eigenvalues --  -19.20477 -19.18777 -19.14802 -19.14780 -19.10532
 Alpha  occ. eigenvalues --  -19.09986 -14.38272 -14.36850 -14.36202 -14.27678
 Alpha  occ. eigenvalues --  -10.34076 -10.33812 -10.29420 -10.26097 -10.24964
 Alpha  occ. eigenvalues --  -10.24795 -10.24649 -10.24132 -10.23799 -10.23642
 Alpha  occ. eigenvalues --  -10.22991 -10.22795 -10.22710 -10.22090 -10.21920
 Alpha  occ. eigenvalues --  -10.21849 -10.21520 -10.21492 -10.21408 -10.21160
 Alpha  occ. eigenvalues --  -10.21039 -10.20621 -10.20567 -10.20470 -10.20355
 Alpha  occ. eigenvalues --  -10.19936 -10.19697 -10.19268 -10.18779 -10.18744
 Alpha  occ. eigenvalues --  -10.18043 -10.17293 -10.17217  -1.11768  -1.09302
 Alpha  occ. eigenvalues --   -1.02226  -1.01530  -1.01343  -1.00482  -1.00071
 Alpha  occ. eigenvalues --   -0.99416  -0.94242  -0.90137  -0.83786  -0.82882
 Alpha  occ. eigenvalues --   -0.82483  -0.81594  -0.79344  -0.78078  -0.77927
 Alpha  occ. eigenvalues --   -0.77697  -0.77062  -0.75130  -0.73527  -0.72372
 Alpha  occ. eigenvalues --   -0.71908  -0.69909  -0.69449  -0.68691  -0.67633
 Alpha  occ. eigenvalues --   -0.66304  -0.65726  -0.64789  -0.62205  -0.61045
 Alpha  occ. eigenvalues --   -0.60250  -0.59471  -0.58820  -0.58370  -0.57516
 Alpha  occ. eigenvalues --   -0.56454  -0.56361  -0.55434  -0.54026  -0.52947
 Alpha  occ. eigenvalues --   -0.52044  -0.51256  -0.50551  -0.50420  -0.49945
 Alpha  occ. eigenvalues --   -0.49648  -0.49311  -0.49222  -0.48877  -0.48150
 Alpha  occ. eigenvalues --   -0.47453  -0.46850  -0.46561  -0.46164  -0.45781
 Alpha  occ. eigenvalues --   -0.45185  -0.44948  -0.44451  -0.43964  -0.43528
 Alpha  occ. eigenvalues --   -0.43270  -0.43139  -0.42787  -0.42534  -0.42050
 Alpha  occ. eigenvalues --   -0.41710  -0.41516  -0.41413  -0.41183  -0.41031
 Alpha  occ. eigenvalues --   -0.40907  -0.40556  -0.40264  -0.39522  -0.39398
 Alpha  occ. eigenvalues --   -0.39122  -0.38844  -0.38753  -0.38495  -0.38355
 Alpha  occ. eigenvalues --   -0.38084  -0.37778  -0.37632  -0.36229  -0.35912
 Alpha  occ. eigenvalues --   -0.35705  -0.35349  -0.34725  -0.34379  -0.34066
 Alpha  occ. eigenvalues --   -0.33830  -0.33609  -0.33492  -0.33210  -0.32809
 Alpha  occ. eigenvalues --   -0.32659  -0.31786  -0.31260  -0.31066  -0.30369
 Alpha  occ. eigenvalues --   -0.29400  -0.26105  -0.25993  -0.25917  -0.25585
 Alpha  occ. eigenvalues --   -0.25352  -0.24681  -0.23321  -0.22553  -0.21381
 Alpha  occ. eigenvalues --   -0.19016
 Alpha virt. eigenvalues --   -0.10123  -0.04863  -0.03599  -0.01939  -0.01516
 Alpha virt. eigenvalues --   -0.01148   0.00343   0.00819   0.01329   0.03312
 Alpha virt. eigenvalues --    0.03693   0.04126   0.04757   0.05005   0.05287

 Mulliken charges:
               1
     1  O   -0.279531
     2  O   -0.214117
     3  O   -0.233106
     4  O   -0.218794
     5  O   -0.197772
     6  O   -0.220071
     7  N    0.002844
     8  N    0.003887
     9  N   -0.086100
    10  N   -0.310938
    11  C   -0.076554
    12  C    0.012908
    13  C   -0.119208
    14  C    0.041122
    15  C   -0.060779
    16  C    0.153342
    17  C   -0.063709
    18  C   -0.123287
    19  C    0.009219
    20  C   -0.062095
    21  C    0.076532
    22  C    0.092002
    23  C   -0.007255
    24  C    0.001919
    25  C   -0.125642
    26  C    0.001107
    27  C    0.154300
    28  C   -0.043771
    29  C    0.014100
    30  C    0.089357
    31  C   -0.091102
    32  C   -0.089016
    33  C   -0.211182
    34  C    0.114062
    35  C   -0.026694
    36  C   -0.203914
    37  C    0.142243
    38  C    0.035914
    39  C    0.171195
    40  C   -0.004841
    41  C    0.163299
    42  C   -0.035520
    43  C   -0.015851
    44  H    0.091408
    45  H    0.044444
    46  H    0.035688
    47  H    0.016045
    48  H    0.106912
    49  H    0.049567
    50  H    0.006323
    51  H    0.024881
    52  H    0.059416
    53  H    0.049215
    54  H    0.068824
    55  H    0.005409
    56  H    0.125171
    57  H    0.078849
    58  H    0.051301
    59  H    0.027011
    60  H    0.052406
    61  H    0.006981
    62  H    0.016490
    63  H    0.043754
    64  H   -0.088675
    65  H    0.054123
    66  H    0.055803
    67  H    0.045567
    68  H    0.022984
    69  H    0.107567
    70  H    0.006593
    71  H    0.028612
    72  H    0.012840
    73  H    0.011354
    74  H    0.032422
    75  H    0.045681
    76  H    0.017394
    77  H    0.005450
    78  H    0.042396
    79  H    0.056197
    80  H    0.237928
    81  H    0.187166
 Sum of Mulliken charges =  -0.00000

 Dipole moment (field-independent basis, Debye):
    X=             -4.0381    Y=             -1.2412    Z=              0.8886  Tot=              4.3170
 Quadrupole moment (field-independent basis, Debye-Ang):
   XX=           -251.0596   YY=           -249.0187   ZZ=           -257.2254
   XY=             12.5024   XZ=             16.3930   YZ=            -16.4526

 Normal termination of Gaussian 16 at Tue Jul  2 10:49:11 2019.
