 Gaussian 16, Revision A.03,
 Gaussian 16:  ES64L-G16RevA.03 25-Dec-2016

 --------------------------
 # td=(NStates=1) B3LYP/SVP
 --------------------------

 --
 TD
 --
 Symbolic Z-matrix:
 Charge =  0 Multiplicity = 1

                         Standard orientation:
 ---------------------------------------------------------------------
 Center     Atomic      Atomic             Coordinates (Angstroms)
 Number     Number       Type             X           Y           Z
 ---------------------------------------------------------------------
      1          8           0        4.441165   -4.769785   -1.862071
      2          8           0       -2.805052   -4.764767   -1.475706
      3          8           0       -6.992517   -1.335063   -1.952030
      4          8           0       -3.761049   -3.046207   -0.348994
      5          8           0       -7.476913   -0.870908    0.229022
      6          8           0        3.078719    2.424686    0.077076
      7          7           0        0.163906   -0.667766    0.435270
      8          7           0       -1.489558    1.837700    0.203855
      9          7           0        3.376457   -3.123482   -0.682390
     10          7           0        0.749487    2.935843   -0.018925
     11          6           0       -0.716819   -2.492967    1.297970
     12          6           0       -0.954612   -1.221575    0.864435
     13          6           0        0.600753   -2.620212    1.313967
     14          6           0        1.289611   -1.538473    0.746341
     15          6           0       -3.718926    1.562881    0.468129
     16          6           0       -2.498190    0.803775    0.549193
     17          6           0       -2.254873   -0.495348    0.823847
     18          6           0       -3.508717    2.899805    0.114807
     19          6           0       -1.863495   -3.457687    1.923914
     20          6           0        5.545978   -2.740859   -1.245145
     21          6           0        3.639900   -1.862725   -0.095839
     22          6           0       -1.991067    3.054286    0.105119
     23          6           0        5.027735   -1.615503   -0.238639
     24          6           0       -5.097348    0.767165    0.498325
     25          6           0        2.606048   -1.160447    0.524740
     26          6           0        1.278611   -3.838164    1.851246
     27          6           0        4.392950   -3.686978   -1.411695
     28          6           0       -2.253249   -4.582524    0.972929
     29          6           0       -5.366334   -0.097885   -0.869777
     30          6           0       -4.615870    3.983663    0.048564
     31          6           0       -1.207773    4.222359   -0.260117
     32          6           0        6.873768   -3.322808   -0.965199
     33          6           0        5.810989   -0.672021    0.328991
     34          6           0        0.148224    4.030530   -0.297680
     35          6           0        1.128804    5.254222   -0.522344
     36          6           0        2.369864    4.703753   -0.455531
     37          6           0       -2.977095   -4.039596   -0.246184
     38          6           0        5.432909    0.300750    1.412651
     39          6           0       -6.714700   -0.744829   -0.788176
     40          6           0        3.685186    5.271748   -0.571599
     41          6           0        2.131871    3.248006   -0.150592
     42          6           0        0.607280    6.621639   -0.739772
     43          6           0        4.244702    5.689968    0.774568
     44          1           0        0.442375    0.178704    0.171456
     45          1           0       -3.110584   -1.068142    0.827142
     46          1           0       -2.551151   -2.707989    2.396606
     47          1           0       -1.208049   -3.871080    2.933609
     48          1           0        5.776294   -2.178770   -2.167857
     49          1           0       -5.034008    0.165840    1.275916
     50          1           0       -6.019680    1.675329    0.582849
     51          1           0        2.843789   -0.099161    0.804807
     52          1           0       -0.422579    2.010116    0.236368
     53          1           0        1.018435   -4.522549    1.007441
     54          1           0        2.312646   -3.649633    1.987430
     55          1           0        0.687885   -4.169456    2.703394
     56          1           0        2.409344   -3.597156   -0.488837
     57          1           0       -1.402917   -5.109595    0.628105
     58          1           0       -2.777790   -5.399902    1.466252
     59          1           0       -4.609431   -0.934304   -1.124932
     60          1           0       -5.177984    0.446259   -1.744238
     61          1           0       -4.342672    4.823564    0.837863
     62          1           0       -5.458217    3.755161    0.434998
     63          1           0       -4.638349    4.506372   -1.154400
     64          1           0       -1.826541    5.142465   -0.636024
     65          1           0        7.748953   -2.488781   -0.942969
     66          1           0        7.010302   -4.084582   -1.635699
     67          1           0        6.581182   -3.855143    0.095530
     68          1           0        6.753711   -0.784718    0.075917
     69          1           0        5.155678    1.207702    0.994384
     70          1           0        6.236941    0.392844    2.167255
     71          1           0        4.658530   -0.255773    2.136418
     72          1           0        3.422338    6.121653   -1.354620
     73          1           0        4.319027    4.566488   -1.089152
     74          1           0        0.034064    6.774855   -1.586522
     75          1           0        1.424430    7.334798   -0.626557
     76          1           0        0.146987    7.001844    0.121544
     77          1           0        3.712038    6.670077    1.125122
     78          1           0        5.246798    6.079434    0.448580
     79          1           0        4.084186    4.784320    1.407140
     80          1           0       -3.532673   -4.347970   -2.080421
     81          1           0       -7.846852   -1.836507   -1.705606
 ---------------------------------------------------------------------

 SCF Done:  E(RB3LYP) =  -1949.02705367     A.U. after   16 cycles

 Excitation energies and oscillator strengths:

 Excited State   1:      Singlet-A      2.0004 eV  619.81 nm  f=0.3583  <S**2>=0.000
     156 ->157         0.70575
 This state for optimization and/or second-order correction.
 Total Energy, E(TD-HF/TD-DFT) =  -1948.95354178
 Copying the excited state density for this state as the 1-particle RhoCI density.

 The electronic state is 1-A.
 Alpha  occ. eigenvalues --  -19.19218 -19.19073 -19.15263 -19.12302 -19.10796
 Alpha  occ. eigenvalues --  -19.10598 -14.36748 -14.36294 -14.34928 -14.30096
 Alpha  occ. eigenvalues --  -10.35203 -10.32378 -10.28531 -10.27461 -10.24733
 Alpha  occ. eigenvalues --  -10.24115 -10.23972 -10.23820 -10.23796 -10.22818
 Alpha  occ. eigenvalues --  -10.22606 -10.21983 -10.21875 -10.21571 -10.21247
 Alpha  occ. eigenvalues --  -10.21115 -10.21065 -10.20996 -10.20226 -10.19653
 Alpha  occ. eigenvalues --  -10.19631 -10.19600 -10.19284 -10.19162 -10.19054
 Alpha  occ. eigenvalues --  -10.18773 -10.18725 -10.18720 -10.18589 -10.18584
 Alpha  occ. eigenvalues --  -10.18383 -10.18284 -10.18180  -1.09444  -1.07612
 Alpha  occ. eigenvalues --   -1.05270  -0.99488  -0.98922  -0.98648  -0.97527
 Alpha  occ. eigenvalues --   -0.96784  -0.94906  -0.92782  -0.83221  -0.82225
 Alpha  occ. eigenvalues --   -0.81306  -0.81169  -0.80412  -0.79369  -0.78283
 Alpha  occ. eigenvalues --   -0.76778  -0.76602  -0.76161  -0.74592  -0.73112
 Alpha  occ. eigenvalues --   -0.71101  -0.70237  -0.70149  -0.68391  -0.67386
 Alpha  occ. eigenvalues --   -0.67285  -0.65018  -0.64415  -0.62432  -0.61622
 Alpha  occ. eigenvalues --   -0.60443  -0.58979  -0.58643  -0.57706  -0.56701
 Alpha  occ. eigenvalues --   -0.55189  -0.55095  -0.54945  -0.53340  -0.53197
 Alpha  occ. eigenvalues --   -0.52328  -0.52075  -0.51408  -0.50147  -0.49511
 Alpha  occ. eigenvalues --   -0.49417  -0.48898  -0.48439  -0.48371  -0.47828
 Alpha  occ. eigenvalues --   -0.47174  -0.46830  -0.46241  -0.45917  -0.45509
 Alpha  occ. eigenvalues --   -0.45222  -0.45058  -0.44334  -0.43860  -0.43736
 Alpha  occ. eigenvalues --   -0.43408  -0.43211  -0.43097  -0.42774  -0.42298
 Alpha  occ. eigenvalues --   -0.42042  -0.41805  -0.41741  -0.41532  -0.41134
 Alpha  occ. eigenvalues --   -0.40680  -0.40517  -0.40422  -0.39946  -0.39671
 Alpha  occ. eigenvalues --   -0.39610  -0.38979  -0.38739  -0.38465  -0.38328
 Alpha  occ. eigenvalues --   -0.37924  -0.37817  -0.37435  -0.37412  -0.36501
 Alpha  occ. eigenvalues --   -0.36296  -0.35764  -0.35438  -0.34939  -0.34522
 Alpha  occ. eigenvalues --   -0.34161  -0.33473  -0.33141  -0.33038  -0.32799
 Alpha  occ. eigenvalues --   -0.32743  -0.31834  -0.31244  -0.29849  -0.29624
 Alpha  occ. eigenvalues --   -0.27858  -0.27776  -0.26344  -0.26139  -0.25827
 Alpha  occ. eigenvalues --   -0.25498  -0.24709  -0.24341  -0.24220  -0.21524
 Alpha  occ. eigenvalues --   -0.18129
 Alpha virt. eigenvalues --   -0.09893  -0.05749  -0.04634  -0.03900  -0.00857
 Alpha virt. eigenvalues --    0.00995   0.02204   0.02596   0.03194   0.03398
 Alpha virt. eigenvalues --    0.03656   0.04380   0.04726   0.05630   0.06202

 Mulliken charges:
               1
     1  O   -0.164808
     2  O   -0.265242
     3  O   -0.184878
     4  O   -0.268987
     5  O   -0.301238
     6  O   -0.262811
     7  N    0.002372
     8  N   -0.154448
     9  N   -0.182513
    10  N   -0.258174
    11  C   -0.137474
    12  C    0.053763
    13  C   -0.194276
    14  C    0.060796
    15  C   -0.101250
    16  C    0.136127
    17  C   -0.021270
    18  C   -0.122766
    19  C   -0.000909
    20  C   -0.081338
    21  C    0.093316
    22  C    0.022021
    23  C   -0.011504
    24  C    0.112909
    25  C   -0.156005
    26  C    0.131442
    27  C    0.141071
    28  C    0.145325
    29  C   -0.006042
    30  C    0.089457
    31  C   -0.156885
    32  C    0.009437
    33  C   -0.065758
    34  C    0.089101
    35  C   -0.135060
    36  C   -0.174829
    37  C    0.187510
    38  C    0.079280
    39  C    0.177116
    40  C    0.032726
    41  C    0.186064
    42  C    0.205307
    43  C    0.016761
    44  H    0.070155
    45  H   -0.026551
    46  H    0.047910
    47  H    0.038404
    48  H    0.031642
    49  H   -0.010725
    50  H    0.051422
    51  H    0.039533
    52  H    0.164714
    53  H    0.026564
    54  H    0.024550
    55  H   -0.001118
    56  H    0.155338
    57  H    0.014425
    58  H    0.055589
    59  H    0.071312
    60  H    0.010124
    61  H    0.033022
    62  H   -0.047810
    63  H    0.054992
    64  H    0.016747
    65  H    0.052995
    66  H    0.012326
    67  H    0.021480
    68  H   -0.084291
    69  H    0.051461
    70  H    0.005861
    71  H    0.034430
    72  H    0.012067
    73  H    0.006580
    74  H    0.019641
    75  H   -0.015232
    76  H   -0.006207
    77  H    0.016443
    78  H    0.022880
    79  H    0.051834
    80  H    0.217063
    81  H    0.196994
 Sum of Mulliken charges =  -0.00000

 Dipole moment (field-independent basis, Debye):
    X=             -2.1851    Y=              1.5229    Z=              0.2504  Tot=              2.6751
 Quadrupole moment (field-independent basis, Debye-Ang):
   XX=           -258.6615   YY=           -233.9958   ZZ=           -254.0874
   XY=             16.5161   XZ=             14.5875   YZ=            -13.6362

 Normal termination of Gaussian 16 at Wed Jul  3 22:44:15 2019.
