 Gaussian 16, Revision A.03,
 Gaussian 16:  ES64L-G16RevA.03 25-Dec-2016

 --------------------------
 # td=(NStates=1) B3LYP/SVP
 --------------------------

 --
 TD
 --
 Symbolic Z-matrix:
 Charge =  0 Multiplicity = 1

                         Standard orientation:
 ---------------------------------------------------------------------
 Center     Atomic      Atomic             Coordinates (Angstroms)
 Number     Number       Type             X           Y           Z
 ---------------------------------------------------------------------
      1          8           0        4.502143   -4.677261   -1.958929
      2          8           0       -2.785120   -4.791004   -1.413462
      3          8           0       -7.191260   -1.481142   -1.960171
      4          8           0       -3.727231   -3.180469   -0.102957
      5          8           0       -7.511859   -0.956970    0.291842
      6          8           0        2.922127    2.436480    0.097394
      7          7           0        0.369957   -0.532332    0.516690
      8          7           0       -1.586016    1.798262    0.483075
      9          7           0        3.451196   -3.084744   -0.669838
     10          7           0        0.620540    2.897806   -0.096516
     11          6           0       -0.528980   -2.423414    1.438076
     12          6           0       -0.816029   -1.160256    0.927032
     13          6           0        0.890067   -2.598349    1.390146
     14          6           0        1.388777   -1.346886    0.692141
     15          6           0       -3.850595    1.383401    0.450559
     16          6           0       -2.546812    0.754478    0.532510
     17          6           0       -2.117687   -0.541672    0.895427
     18          6           0       -3.687499    2.651340    0.038219
     19          6           0       -1.556210   -3.448161    1.799852
     20          6           0        5.621267   -2.606435   -1.244607
     21          6           0        3.721313   -1.853745   -0.143199
     22          6           0       -2.191964    2.980592    0.014684
     23          6           0        5.084824   -1.527768   -0.300188
     24          6           0       -5.134190    0.609338    0.516189
     25          6           0        2.771990   -1.050343    0.442714
     26          6           0        1.557520   -3.743100    2.018749
     27          6           0        4.467431   -3.575728   -1.355994
     28          6           0       -1.962725   -4.541984    0.796556
     29          6           0       -5.491070   -0.192726   -0.799865
     30          6           0       -4.639572    3.794779   -0.230899
     31          6           0       -1.422281    4.156003   -0.218078
     32          6           0        6.998095   -3.241253   -0.987652
     33          6           0        5.817469   -0.457469    0.124610
     34          6           0        0.028777    4.045760   -0.251403
     35          6           0        0.909264    5.183222   -0.518933
     36          6           0        2.124053    4.756131   -0.413616
     37          6           0       -2.873255   -4.033610   -0.246142
     38          6           0        5.520259    0.652529    1.141867
     39          6           0       -6.816677   -0.942808   -0.709889
     40          6           0        3.474037    5.409674   -0.370977
     41          6           0        2.011600    3.208397   -0.105824
     42          6           0        0.361335    6.558563   -0.845415
     43          6           0        4.197364    5.721008    0.783627
     44          1           0        0.643480    0.345526   -0.023262
     45          1           0       -2.861819   -1.430835    1.109210
     46          1           0       -2.539688   -2.989409    2.187566
     47          1           0       -1.199946   -4.039175    2.695428
     48          1           0        5.647715   -2.057406   -2.301205
     49          1           0       -4.880971   -0.033843    1.231148
     50          1           0       -6.065880    1.123009    0.593163
     51          1           0        2.826470   -0.065115    0.732626
     52          1           0       -0.485370    1.742669    0.584757
     53          1           0        1.552554   -4.671460    1.484202
     54          1           0        2.620984   -3.408650    2.318149
     55          1           0        1.176046   -4.086900    3.053110
     56          1           0        2.672958   -3.674883   -0.765905
     57          1           0       -1.196997   -5.102801    0.360400
     58          1           0       -2.657755   -5.371976    1.297457
     59          1           0       -4.709618   -0.940712   -1.323248
     60          1           0       -5.853998    0.427066   -1.612826
     61          1           0       -4.789753    4.587243    0.774993
     62          1           0       -5.850355    3.293018   -0.412141
     63          1           0       -4.405331    4.226986   -1.182723
     64          1           0       -2.053284    5.095939   -0.409279
     65          1           0        7.893363   -2.431637   -1.163086
     66          1           0        7.036366   -4.340409   -1.425858
     67          1           0        7.022974   -3.346926    0.224360
     68          1           0        6.761840   -0.534390   -0.412106
     69          1           0        5.186786    1.584483    0.753282
     70          1           0        6.420911    1.117961    1.602000
     71          1           0        4.769269    0.512546    2.120533
     72          1           0        3.368431    6.227094   -1.272105
     73          1           0        4.161263    4.568363   -1.015877
     74          1           0       -0.479941    6.561426   -1.495044
     75          1           0        1.218151    6.889775   -1.375463
     76          1           0        0.199522    7.223224    0.242932
     77          1           0        3.663883    6.465914    1.428505
     78          1           0        5.114509    6.095746    0.517493
     79          1           0        4.045351    4.829390    1.677022
     80          1           0       -3.545563   -4.183144   -1.915469
     81          1           0       -7.946072   -2.034781   -1.708006
 ---------------------------------------------------------------------

 SCF Done:  E(RB3LYP) =  -1949.04463584     A.U. after   16 cycles

 Excitation energies and oscillator strengths:

 Excited State   1:      Singlet-A      1.9414 eV  638.63 nm  f=0.3677  <S**2>=0.000
     156 ->157         0.70737
     156 <-157        -0.10521
 This state for optimization and/or second-order correction.
 Total Energy, E(TD-HF/TD-DFT) =  -1948.97329049
 Copying the excited state density for this state as the 1-particle RhoCI density.

 The electronic state is 1-A.
 Alpha  occ. eigenvalues --  -19.19742 -19.18105 -19.15070 -19.13303 -19.11879
 Alpha  occ. eigenvalues --  -19.10226 -14.39083 -14.37958 -14.35494 -14.29685
 Alpha  occ. eigenvalues --  -10.33464 -10.32322 -10.28589 -10.27605 -10.24905
 Alpha  occ. eigenvalues --  -10.24369 -10.23961 -10.23453 -10.23403 -10.23116
 Alpha  occ. eigenvalues --  -10.22940 -10.22510 -10.22085 -10.21860 -10.21611
 Alpha  occ. eigenvalues --  -10.21336 -10.21186 -10.21060 -10.20983 -10.20501
 Alpha  occ. eigenvalues --  -10.20428 -10.20360 -10.20333 -10.20246 -10.20031
 Alpha  occ. eigenvalues --  -10.19996 -10.19754 -10.19491 -10.19428 -10.19335
 Alpha  occ. eigenvalues --  -10.19228 -10.19016 -10.18659  -1.09804  -1.08065
 Alpha  occ. eigenvalues --   -1.03602  -1.02854  -1.00824  -1.00416  -0.99379
 Alpha  occ. eigenvalues --   -0.96214  -0.95399  -0.93155  -0.83158  -0.82626
 Alpha  occ. eigenvalues --   -0.81975  -0.81156  -0.80206  -0.78678  -0.78181
 Alpha  occ. eigenvalues --   -0.77118  -0.76671  -0.75639  -0.74321  -0.72303
 Alpha  occ. eigenvalues --   -0.70877  -0.70369  -0.69474  -0.68497  -0.67572
 Alpha  occ. eigenvalues --   -0.66762  -0.66208  -0.64915  -0.63119  -0.61305
 Alpha  occ. eigenvalues --   -0.58882  -0.58816  -0.57658  -0.57225  -0.56520
 Alpha  occ. eigenvalues --   -0.56090  -0.54980  -0.54759  -0.54340  -0.52654
 Alpha  occ. eigenvalues --   -0.52062  -0.51782  -0.51476  -0.50152  -0.49819
 Alpha  occ. eigenvalues --   -0.49158  -0.49031  -0.48601  -0.48073  -0.47689
 Alpha  occ. eigenvalues --   -0.47249  -0.47003  -0.46379  -0.45717  -0.45408
 Alpha  occ. eigenvalues --   -0.44667  -0.44594  -0.44048  -0.43936  -0.43783
 Alpha  occ. eigenvalues --   -0.43318  -0.43087  -0.42749  -0.42488  -0.42154
 Alpha  occ. eigenvalues --   -0.41860  -0.41645  -0.41560  -0.41260  -0.40951
 Alpha  occ. eigenvalues --   -0.40729  -0.40531  -0.40349  -0.40167  -0.39977
 Alpha  occ. eigenvalues --   -0.39556  -0.39206  -0.38880  -0.38619  -0.38390
 Alpha  occ. eigenvalues --   -0.37923  -0.37617  -0.37532  -0.37162  -0.36690
 Alpha  occ. eigenvalues --   -0.36344  -0.35937  -0.35439  -0.34704  -0.34561
 Alpha  occ. eigenvalues --   -0.34441  -0.34025  -0.33599  -0.33465  -0.33427
 Alpha  occ. eigenvalues --   -0.32625  -0.32288  -0.30450  -0.29697  -0.29583
 Alpha  occ. eigenvalues --   -0.28925  -0.28052  -0.26562  -0.26135  -0.25589
 Alpha  occ. eigenvalues --   -0.25419  -0.25148  -0.24354  -0.24011  -0.21556
 Alpha  occ. eigenvalues --   -0.17599
 Alpha virt. eigenvalues --   -0.09774  -0.06219  -0.04464  -0.02428  -0.00321
 Alpha virt. eigenvalues --   -0.00000   0.01500   0.02072   0.03032   0.03187
 Alpha virt. eigenvalues --    0.03447   0.03722   0.04347   0.04845   0.05332

 Mulliken charges:
               1
     1  O   -0.266984
     2  O   -0.258030
     3  O   -0.229216
     4  O   -0.239142
     5  O   -0.228898
     6  O   -0.182668
     7  N   -0.059764
     8  N   -0.190967
     9  N    0.006971
    10  N   -0.294408
    11  C   -0.048465
    12  C    0.024112
    13  C   -0.134747
    14  C   -0.033773
    15  C   -0.077407
    16  C    0.100716
    17  C   -0.085012
    18  C   -0.099043
    19  C    0.045658
    20  C   -0.075238
    21  C    0.167197
    22  C    0.097574
    23  C   -0.041038
    24  C    0.236266
    25  C   -0.115228
    26  C    0.024860
    27  C    0.060474
    28  C    0.070261
    29  C   -0.046603
    30  C   -0.023843
    31  C   -0.157086
    32  C   -0.045877
    33  C   -0.054775
    34  C    0.087590
    35  C   -0.108972
    36  C   -0.196660
    37  C    0.133637
    38  C    0.044513
    39  C    0.146413
    40  C   -0.036944
    41  C    0.158041
    42  C    0.117276
    43  C    0.074682
    44  H    0.177727
    45  H    0.051943
    46  H    0.033214
    47  H    0.003580
    48  H    0.066376
    49  H   -0.020654
    50  H    0.003303
    51  H   -0.022767
    52  H    0.177677
    53  H    0.015720
    54  H    0.034892
    55  H    0.025590
    56  H    0.114678
    57  H    0.005416
    58  H    0.067686
    59  H    0.066960
    60  H    0.023588
    61  H    0.073069
    62  H    0.024615
    63  H    0.036604
    64  H    0.001137
    65  H    0.048080
    66  H    0.078498
    67  H    0.025593
    68  H   -0.014416
    69  H    0.030342
    70  H   -0.001717
    71  H    0.049964
    72  H    0.015933
    73  H    0.020693
    74  H    0.018199
    75  H   -0.000266
    76  H    0.057445
    77  H   -0.000579
    78  H    0.012842
    79  H    0.036561
    80  H    0.221203
    81  H    0.175818
 Sum of Mulliken charges =  -0.00000

 Dipole moment (field-independent basis, Debye):
    X=             -1.2892    Y=              1.7285    Z=              0.5208  Tot=              2.2183
 Quadrupole moment (field-independent basis, Debye-Ang):
   XX=           -259.4730   YY=           -242.1723   ZZ=           -258.2293
   XY=             20.0043   XZ=             16.5759   YZ=            -14.7548

 Normal termination of Gaussian 16 at Sat Jun 29 19:25:38 2019.
