 Gaussian 16, Revision A.03,
 Gaussian 16:  ES64L-G16RevA.03 25-Dec-2016

 --------------------------
 # td=(NStates=1) B3LYP/SVP
 --------------------------

 --
 TD
 --
 Symbolic Z-matrix:
 Charge =  0 Multiplicity = 1

                         Standard orientation:
 ---------------------------------------------------------------------
 Center     Atomic      Atomic             Coordinates (Angstroms)
 Number     Number       Type             X           Y           Z
 ---------------------------------------------------------------------
      1          8           0       -4.238873   -4.670768    2.061971
      2          8           0        3.050607   -4.766312    1.469311
      3          8           0        7.120195   -1.241809    1.809750
      4          8           0        3.850343   -3.217230    0.101106
      5          8           0        7.891143   -0.126170   -0.106001
      6          8           0       -3.078546    2.410568   -0.254892
      7          7           0       -0.284439   -0.567367   -0.689555
      8          7           0        1.473559    1.822100   -0.370401
      9          7           0       -3.302538   -3.214843    0.545889
     10          7           0       -0.881449    2.801149   -0.044801
     11          6           0        0.672478   -2.523820   -1.265087
     12          6           0        0.994783   -1.154028   -1.000576
     13          6           0       -0.747581   -2.713235   -1.306489
     14          6           0       -1.298630   -1.514517   -0.752931
     15          6           0        3.767978    1.514716   -0.419009
     16          6           0        2.526162    0.823116   -0.720087
     17          6           0        2.261765   -0.594577   -0.862692
     18          6           0        3.458563    2.831255   -0.083121
     19          6           0        1.649685   -3.574357   -1.820398
     20          6           0       -5.449796   -2.606330    1.308254
     21          6           0       -3.556176   -1.954839   -0.010631
     22          6           0        2.054305    2.955058   -0.093505
     23          6           0       -5.009431   -1.699404    0.243473
     24          6           0        5.014606    0.821616   -0.540875
     25          6           0       -2.643333   -1.084483   -0.583552
     26          6           0       -1.431511   -3.937402   -1.711364
     27          6           0       -4.321035   -3.682044    1.374807
     28          6           0        2.000330   -4.592154   -0.792990
     29          6           0        5.523724    0.089913    0.644508
     30          6           0        4.467317    3.888507    0.338894
     31          6           0        1.142458    4.102121    0.273430
     32          6           0       -6.808052   -3.257090    1.079710
     33          6           0       -5.758616   -0.687428   -0.239313
     34          6           0       -0.214670    3.988433    0.239914
     35          6           0       -1.173028    5.051857    0.593383
     36          6           0       -2.440273    4.632763    0.465455
     37          6           0        2.997798   -4.128162    0.362836
     38          6           0       -5.455297    0.339429   -1.255314
     39          6           0        7.003789   -0.429225    0.730626
     40          6           0       -3.686686    5.240117    0.483554
     41          6           0       -2.210268    3.123394   -0.024747
     42          6           0       -0.808935    6.584512    0.808986
     43          6           0       -4.419378    5.616322   -0.805259
     44          1           0       -0.178605    0.251720   -0.189251
     45          1           0        3.309962   -1.252926   -1.041371
     46          1           0        2.539651   -3.105250   -2.285926
     47          1           0        1.059434   -4.034784   -2.825598
     48          1           0       -5.634885   -2.049859    2.373193
     49          1           0        5.085788    0.176728   -1.502719
     50          1           0        5.877455    1.513033   -0.730073
     51          1           0       -2.982019    0.007741   -0.735455
     52          1           0        0.461888    1.769887   -0.666051
     53          1           0       -1.489186   -4.618554   -0.825147
     54          1           0       -2.450057   -3.799456   -2.103802
     55          1           0       -1.000828   -4.357298   -2.689740
     56          1           0       -2.196075   -3.439746    0.946414
     57          1           0        1.136300   -5.165238   -0.422933
     58          1           0        2.823562   -5.214563   -1.136240
     59          1           0        5.036104   -0.960422    0.784645
     60          1           0        5.227526    0.535833    1.701023
     61          1           0        4.262493    4.795940   -0.220204
     62          1           0        5.526700    3.664866    0.404292
     63          1           0        4.058248    4.584535    1.298520
     64          1           0        1.504374    5.157741    0.495125
     65          1           0       -7.570286   -2.560677    1.290864
     66          1           0       -6.869534   -4.012494    1.829125
     67          1           0       -6.733407   -3.699623    0.019473
     68          1           0       -6.779723   -0.603511    0.299360
     69          1           0       -5.044851    1.189273   -0.768004
     70          1           0       -6.390303    0.562127   -1.850961
     71          1           0       -4.627731   -0.022315   -1.893770
     72          1           0       -3.647037    6.248801    1.030314
     73          1           0       -4.523881    4.773072    1.195352
     74          1           0       -0.317841    6.553582    1.840852
     75          1           0       -1.707613    7.173685    1.147841
     76          1           0       -0.090428    6.950595    0.000767
     77          1           0       -3.978415    6.393455   -1.405029
     78          1           0       -5.407602    6.021427   -0.357029
     79          1           0       -4.598420    4.716926   -1.464592
     80          1           0        3.858471   -4.509326    1.999996
     81          1           0        8.037629   -1.448644    1.759501
 ---------------------------------------------------------------------

 SCF Done:  E(RB3LYP) =  -1949.12056476     A.U. after   19 cycles

 Excitation energies and oscillator strengths:

 Excited State   1:      Singlet-A      1.9349 eV  640.78 nm  f=0.3894  <S**2>=0.000
     156 ->157         0.70752
     156 <-157        -0.11242
 This state for optimization and/or second-order correction.
 Total Energy, E(TD-HF/TD-DFT) =  -1949.04945892
 Copying the excited state density for this state as the 1-particle RhoCI density.

 The electronic state is 1-A.
 Alpha  occ. eigenvalues --  -19.21955 -19.19959 -19.13519 -19.12907 -19.12295
 Alpha  occ. eigenvalues --  -19.08704 -14.38388 -14.37336 -14.36134 -14.26923
 Alpha  occ. eigenvalues --  -10.34459 -10.33347 -10.29905 -10.24830 -10.24625
 Alpha  occ. eigenvalues --  -10.24258 -10.24188 -10.23618 -10.23594 -10.23491
 Alpha  occ. eigenvalues --  -10.23106 -10.22485 -10.21631 -10.21288 -10.21154
 Alpha  occ. eigenvalues --  -10.20867 -10.20754 -10.20623 -10.20432 -10.20409
 Alpha  occ. eigenvalues --  -10.20373 -10.20317 -10.20305 -10.19671 -10.19586
 Alpha  occ. eigenvalues --  -10.19549 -10.18712 -10.18544 -10.18492 -10.18396
 Alpha  occ. eigenvalues --  -10.18001 -10.17886 -10.16646  -1.13569  -1.10682
 Alpha  occ. eigenvalues --   -1.04552  -1.03871  -1.00006  -0.99212  -0.97894
 Alpha  occ. eigenvalues --   -0.97000  -0.95138  -0.89538  -0.82951  -0.82611
 Alpha  occ. eigenvalues --   -0.81983  -0.81133  -0.79189  -0.78499  -0.78025
 Alpha  occ. eigenvalues --   -0.77202  -0.75865  -0.74573  -0.73521  -0.72041
 Alpha  occ. eigenvalues --   -0.71315  -0.70115  -0.69300  -0.68313  -0.67792
 Alpha  occ. eigenvalues --   -0.66863  -0.65090  -0.64056  -0.63169  -0.61919
 Alpha  occ. eigenvalues --   -0.60827  -0.59180  -0.57994  -0.57692  -0.56349
 Alpha  occ. eigenvalues --   -0.54758  -0.54729  -0.53922  -0.53117  -0.52093
 Alpha  occ. eigenvalues --   -0.51903  -0.51273  -0.50589  -0.50416  -0.49678
 Alpha  occ. eigenvalues --   -0.49361  -0.49213  -0.48713  -0.48426  -0.47774
 Alpha  occ. eigenvalues --   -0.47086  -0.46619  -0.46012  -0.45662  -0.45124
 Alpha  occ. eigenvalues --   -0.44856  -0.44476  -0.44336  -0.43938  -0.43685
 Alpha  occ. eigenvalues --   -0.43218  -0.43051  -0.42886  -0.42515  -0.42195
 Alpha  occ. eigenvalues --   -0.42056  -0.41635  -0.41414  -0.41187  -0.41070
 Alpha  occ. eigenvalues --   -0.40992  -0.40546  -0.40241  -0.39985  -0.39745
 Alpha  occ. eigenvalues --   -0.39582  -0.38818  -0.38410  -0.38197  -0.37990
 Alpha  occ. eigenvalues --   -0.37568  -0.37273  -0.37100  -0.36801  -0.36535
 Alpha  occ. eigenvalues --   -0.35841  -0.35530  -0.35281  -0.35027  -0.34874
 Alpha  occ. eigenvalues --   -0.34357  -0.34328  -0.33236  -0.32940  -0.32757
 Alpha  occ. eigenvalues --   -0.32480  -0.31981  -0.31413  -0.30304  -0.28415
 Alpha  occ. eigenvalues --   -0.28081  -0.27388  -0.26451  -0.26203  -0.25749
 Alpha  occ. eigenvalues --   -0.25451  -0.24277  -0.22677  -0.21791  -0.21028
 Alpha  occ. eigenvalues --   -0.18006
 Alpha virt. eigenvalues --   -0.10326  -0.04902  -0.03426  -0.02421  -0.01209
 Alpha virt. eigenvalues --   -0.00850   0.00903   0.01237   0.01911   0.03615
 Alpha virt. eigenvalues --    0.03915   0.04458   0.05278   0.05518   0.05840

 Mulliken charges:
               1
     1  O   -0.188445
     2  O   -0.113782
     3  O   -0.147695
     4  O   -0.315150
     5  O   -0.264690
     6  O   -0.137111
     7  N   -0.084939
     8  N   -0.115657
     9  N   -0.204624
    10  N   -0.326811
    11  C   -0.099646
    12  C    0.067778
    13  C   -0.178712
    14  C    0.090233
    15  C   -0.069628
    16  C    0.035024
    17  C   -0.075111
    18  C   -0.102885
    19  C    0.038495
    20  C   -0.164915
    21  C    0.086217
    22  C    0.085819
    23  C    0.006976
    24  C    0.082421
    25  C   -0.126545
    26  C    0.109424
    27  C    0.151048
    28  C    0.070244
    29  C   -0.101608
    30  C    0.092571
    31  C   -0.133508
    32  C    0.089698
    33  C   -0.185262
    34  C    0.094130
    35  C   -0.107444
    36  C   -0.103315
    37  C    0.099889
    38  C    0.101750
    39  C    0.162285
    40  C   -0.030287
    41  C    0.084821
    42  C    0.068781
    43  C   -0.005456
    44  H    0.105167
    45  H    0.105613
    46  H    0.017267
    47  H    0.042934
    48  H    0.064053
    49  H    0.035876
    50  H    0.011296
    51  H    0.064733
    52  H    0.166791
    53  H    0.034448
    54  H    0.016298
    55  H    0.020410
    56  H    0.202592
    57  H    0.033893
    58  H    0.037870
    59  H    0.055799
    60  H    0.055767
    61  H    0.001899
    62  H    0.035583
    63  H    0.015758
    64  H   -0.024650
    65  H    0.004921
    66  H    0.014107
    67  H    0.026432
    68  H    0.003030
    69  H    0.057115
    70  H    0.024525
    71  H    0.024457
    72  H   -0.016338
    73  H    0.017239
    74  H    0.012575
    75  H    0.012090
    76  H    0.052588
    77  H    0.010039
    78  H    0.014608
    79  H    0.034435
    80  H    0.215006
    81  H    0.159399
 Sum of Mulliken charges =  -0.00000

 Dipole moment (field-independent basis, Debye):
    X=              2.2967    Y=             -2.3058    Z=              0.9177  Tot=              3.3814
 Quadrupole moment (field-independent basis, Debye-Ang):
   XX=           -249.9627   YY=           -241.5454   ZZ=           -253.4044
   XY=            -19.5998   XZ=             17.1552   YZ=              8.9406

 Normal termination of Gaussian 16 at Thu Jun 27 20:36:49 2019.
