 Gaussian 16, Revision A.03,
 Gaussian 16:  ES64L-G16RevA.03 25-Dec-2016

 --------------------------
 # td=(NStates=1) B3LYP/SVP
 --------------------------

 --
 TD
 --
 Symbolic Z-matrix:
 Charge =  0 Multiplicity = 1

                         Standard orientation:
 ---------------------------------------------------------------------
 Center     Atomic      Atomic             Coordinates (Angstroms)
 Number     Number       Type             X           Y           Z
 ---------------------------------------------------------------------
      1          8           0        4.447092   -4.808401   -1.726927
      2          8           0       -2.957969   -4.761513   -1.409009
      3          8           0       -6.921119   -1.699163   -1.720537
      4          8           0       -3.603152   -3.012237   -0.263907
      5          8           0       -7.545900   -0.589533    0.102234
      6          8           0        2.970180    2.529007    0.040427
      7          7           0        0.278793   -0.515317    0.607251
      8          7           0       -1.567849    1.820903    0.459325
      9          7           0        3.277493   -3.116361   -0.576886
     10          7           0        0.852685    2.940815    0.148671
     11          6           0       -0.682537   -2.489060    1.299935
     12          6           0       -0.895193   -1.246197    0.889561
     13          6           0        0.720793   -2.659985    1.332447
     14          6           0        1.261875   -1.450843    0.788204
     15          6           0       -3.772765    1.388941    0.311375
     16          6           0       -2.417040    0.833168    0.626079
     17          6           0       -2.218136   -0.572887    0.753334
     18          6           0       -3.544072    2.740105   -0.002087
     19          6           0       -1.727011   -3.481698    1.767648
     20          6           0        5.611889   -2.630913   -1.365593
     21          6           0        3.636301   -1.916587   -0.041516
     22          6           0       -2.086510    3.008315   -0.011519
     23          6           0        5.071133   -1.630463   -0.351916
     24          6           0       -5.150919    0.747408    0.429031
     25          6           0        2.642514   -1.159565    0.584475
     26          6           0        1.362943   -3.928101    1.814248
     27          6           0        4.384885   -3.666289   -1.220441
     28          6           0       -1.987815   -4.478073    0.760897
     29          6           0       -5.433969   -0.118405   -0.744357
     30          6           0       -4.491873    3.732242   -0.295835
     31          6           0       -1.260644    4.132829   -0.130446
     32          6           0        6.956920   -3.229076   -0.989025
     33          6           0        5.796553   -0.642324    0.211559
     34          6           0        0.063235    3.997131   -0.128261
     35          6           0        0.863992    5.192230   -0.406353
     36          6           0        2.196993    4.752169   -0.499388
     37          6           0       -3.025977   -4.064930   -0.290581
     38          6           0        5.446927    0.435505    1.085112
     39          6           0       -6.718471   -0.759114   -0.681197
     40          6           0        3.550825    5.434072   -0.648586
     41          6           0        2.123426    3.333844   -0.053255
     42          6           0        0.434293    6.646773   -0.697077
     43          6           0        4.228133    5.777525    0.699203
     44          1           0        0.412879    0.301726    0.256333
     45          1           0       -2.934655   -1.172672    0.891515
     46          1           0       -2.632866   -2.974676    2.067366
     47          1           0       -1.237720   -3.904963    2.734473
     48          1           0        5.518118   -2.295054   -2.381731
     49          1           0       -5.395597   -0.075978    1.212924
     50          1           0       -5.993922    1.506086    0.351477
     51          1           0        2.940165   -0.008264    0.900017
     52          1           0       -0.513630    1.847622    0.439168
     53          1           0        1.498762   -4.687565    1.021724
     54          1           0        2.470559   -3.794535    2.226557
     55          1           0        0.967522   -4.331379    2.736240
     56          1           0        2.430775   -3.793870   -0.548287
     57          1           0       -1.069064   -4.804656    0.227722
     58          1           0       -2.451438   -5.353176    1.317770
     59          1           0       -4.859598   -0.992858   -0.870258
     60          1           0       -5.412525    0.495428   -1.530851
     61          1           0       -4.404846    4.692320    0.277130
     62          1           0       -5.753028    3.546728   -0.340891
     63          1           0       -4.378358    4.180491   -1.228031
     64          1           0       -1.603106    5.243713   -0.229027
     65          1           0        7.743220   -2.517768   -1.210697
     66          1           0        7.113659   -4.289469   -1.465948
     67          1           0        7.171783   -3.572992    0.054201
     68          1           0        6.771269   -0.650366    0.036268
     69          1           0        4.843461    1.325021    0.534399
     70          1           0        6.296620    1.023716    1.632862
     71          1           0        4.930990    0.017385    1.968599
     72          1           0        3.425103    6.280562   -1.267664
     73          1           0        4.282310    4.761173   -1.114690
     74          1           0       -0.179610    6.828688   -1.594121
     75          1           0        1.258253    7.356419   -0.756599
     76          1           0       -0.048119    7.219911    0.275952
     77          1           0        3.627444    6.408674    1.373415
     78          1           0        5.292387    6.261299    0.616276
     79          1           0        4.361408    4.946101    1.244789
     80          1           0       -3.351435   -4.230879   -2.014961
     81          1           0       -7.782260   -2.133965   -1.264225
 ---------------------------------------------------------------------

 SCF Done:  E(RB3LYP) =  -1949.06951491     A.U. after   17 cycles

 Excitation energies and oscillator strengths:

 Excited State   1:      Singlet-A      1.8930 eV  654.98 nm  f=0.3760  <S**2>=0.000
     156 ->157         0.70529
     156 <-157        -0.11020
 This state for optimization and/or second-order correction.
 Total Energy, E(TD-HF/TD-DFT) =  -1948.99995027
 Copying the excited state density for this state as the 1-particle RhoCI density.

 The electronic state is 1-A.
 Alpha  occ. eigenvalues --  -19.19831 -19.16780 -19.14803 -19.13424 -19.10825
 Alpha  occ. eigenvalues --  -19.08975 -14.38218 -14.36999 -14.36622 -14.27526
 Alpha  occ. eigenvalues --  -10.33928 -10.30790 -10.29201 -10.24944 -10.24728
 Alpha  occ. eigenvalues --  -10.24543 -10.24042 -10.23681 -10.22666 -10.22320
 Alpha  occ. eigenvalues --  -10.21509 -10.21342 -10.21236 -10.21217 -10.21046
 Alpha  occ. eigenvalues --  -10.20961 -10.20809 -10.20757 -10.20378 -10.20296
 Alpha  occ. eigenvalues --  -10.20254 -10.20072 -10.19661 -10.19315 -10.19252
 Alpha  occ. eigenvalues --  -10.19165 -10.18959 -10.18774 -10.18659 -10.18568
 Alpha  occ. eigenvalues --  -10.18508 -10.18017 -10.17431  -1.14477  -1.10504
 Alpha  occ. eigenvalues --   -1.03719  -1.03482  -1.01862  -0.99557  -0.99540
 Alpha  occ. eigenvalues --   -0.98655  -0.95238  -0.91901  -0.84597  -0.83154
 Alpha  occ. eigenvalues --   -0.82001  -0.81223  -0.79930  -0.79565  -0.78715
 Alpha  occ. eigenvalues --   -0.78427  -0.76623  -0.75373  -0.74183  -0.72932
 Alpha  occ. eigenvalues --   -0.71655  -0.70465  -0.69683  -0.68614  -0.67885
 Alpha  occ. eigenvalues --   -0.67294  -0.66159  -0.64035  -0.63007  -0.62555
 Alpha  occ. eigenvalues --   -0.61207  -0.59627  -0.58913  -0.57719  -0.57098
 Alpha  occ. eigenvalues --   -0.56326  -0.55749  -0.54445  -0.54277  -0.53657
 Alpha  occ. eigenvalues --   -0.53386  -0.52824  -0.52054  -0.51474  -0.51037
 Alpha  occ. eigenvalues --   -0.50586  -0.49864  -0.49020  -0.48282  -0.48151
 Alpha  occ. eigenvalues --   -0.47452  -0.46945  -0.46580  -0.46165  -0.45588
 Alpha  occ. eigenvalues --   -0.45051  -0.44785  -0.44294  -0.44190  -0.43942
 Alpha  occ. eigenvalues --   -0.43778  -0.43372  -0.43231  -0.43027  -0.42870
 Alpha  occ. eigenvalues --   -0.42551  -0.42018  -0.41837  -0.41406  -0.41151
 Alpha  occ. eigenvalues --   -0.41034  -0.40566  -0.40530  -0.40186  -0.40051
 Alpha  occ. eigenvalues --   -0.39886  -0.39329  -0.39042  -0.38792  -0.38665
 Alpha  occ. eigenvalues --   -0.38119  -0.37819  -0.37545  -0.36841  -0.36674
 Alpha  occ. eigenvalues --   -0.35964  -0.35815  -0.35152  -0.35069  -0.34895
 Alpha  occ. eigenvalues --   -0.34711  -0.34352  -0.34056  -0.33875  -0.33565
 Alpha  occ. eigenvalues --   -0.32848  -0.31985  -0.31500  -0.30400  -0.29231
 Alpha  occ. eigenvalues --   -0.28691  -0.26970  -0.26597  -0.26211  -0.25338
 Alpha  occ. eigenvalues --   -0.24864  -0.24539  -0.23686  -0.22841  -0.21210
 Alpha  occ. eigenvalues --   -0.17958
 Alpha virt. eigenvalues --   -0.10447  -0.05273  -0.03805  -0.02340  -0.00367
 Alpha virt. eigenvalues --    0.01552   0.01722   0.02368   0.03361   0.03790
 Alpha virt. eigenvalues --    0.04329   0.04469   0.05225   0.05741   0.06510

 Mulliken charges:
               1
     1  O   -0.253508
     2  O   -0.094822
     3  O   -0.289798
     4  O   -0.214323
     5  O   -0.170789
     6  O   -0.156251
     7  N    0.016075
     8  N   -0.054772
     9  N   -0.122202
    10  N   -0.264252
    11  C   -0.130353
    12  C    0.040722
    13  C   -0.141446
    14  C    0.058561
    15  C   -0.086816
    16  C    0.091247
    17  C    0.103820
    18  C   -0.051294
    19  C    0.123556
    20  C    0.022990
    21  C    0.100940
    22  C    0.113797
    23  C   -0.007795
    24  C    0.057282
    25  C   -0.202028
    26  C    0.030865
    27  C    0.084365
    28  C    0.033897
    29  C    0.094209
    30  C    0.030917
    31  C   -0.178568
    32  C    0.015751
    33  C   -0.079149
    34  C    0.104174
    35  C   -0.100308
    36  C   -0.200827
    37  C    0.099347
    38  C   -0.006962
    39  C    0.087150
    40  C    0.133533
    41  C    0.078790
    42  C    0.035758
    43  C    0.016146
    44  H    0.041762
    45  H   -0.143573
    46  H    0.007447
    47  H    0.021644
    48  H    0.044118
    49  H    0.031814
    50  H    0.020696
    51  H    0.073410
    52  H    0.150430
    53  H    0.025243
    54  H    0.028882
    55  H    0.017938
    56  H    0.176101
    57  H    0.044990
    58  H    0.042853
    59  H    0.031653
    60  H   -0.012100
    61  H    0.013913
    62  H    0.035387
    63  H   -0.007342
    64  H    0.009219
    65  H    0.024290
    66  H    0.042765
    67  H    0.012622
    68  H   -0.066011
    69  H    0.112925
    70  H    0.008288
    71  H    0.029129
    72  H   -0.014912
    73  H    0.005618
    74  H    0.039770
    75  H    0.006345
    76  H    0.029556
    77  H   -0.000046
    78  H    0.018484
    79  H   -0.013960
    80  H    0.140687
    81  H    0.202336
 Sum of Mulliken charges =  -0.00000

 Dipole moment (field-independent basis, Debye):
    X=             -1.9125    Y=              0.1611    Z=              0.5548  Tot=              1.9979
 Quadrupole moment (field-independent basis, Debye-Ang):
   XX=           -256.9668   YY=           -237.4000   ZZ=           -255.7154
   XY=             14.0660   XZ=             10.9204   YZ=            -16.6103

 Normal termination of Gaussian 16 at Sun Jun 30 01:51:44 2019.
