 Gaussian 16, Revision A.03,
 Gaussian 16:  ES64L-G16RevA.03 25-Dec-2016

 --------------------------
 # td=(NStates=1) B3LYP/SVP
 --------------------------

 --
 TD
 --
 Symbolic Z-matrix:
 Charge =  0 Multiplicity = 1

                         Standard orientation:
 ---------------------------------------------------------------------
 Center     Atomic      Atomic             Coordinates (Angstroms)
 Number     Number       Type             X           Y           Z
 ---------------------------------------------------------------------
      1          8           0       -4.365976   -4.919217    1.797733
      2          8           0        3.130218   -4.913006    1.134873
      3          8           0        6.808324   -1.416044    1.953995
      4          8           0        3.945692   -3.218186   -0.017971
      5          8           0        7.677706   -0.399967    0.035835
      6          8           0       -3.152392    2.328952   -0.222989
      7          7           0       -0.215466   -0.456821   -0.687115
      8          7           0        1.505980    1.895949   -0.424136
      9          7           0       -3.309891   -3.227689    0.636246
     10          7           0       -0.906529    2.880604    0.000973
     11          6           0        0.811232   -2.425561   -1.358815
     12          6           0        1.060216   -1.149417   -0.961912
     13          6           0       -0.598275   -2.688602   -1.261392
     14          6           0       -1.184506   -1.402411   -0.736503
     15          6           0        3.819061    1.637765   -0.470200
     16          6           0        2.553024    0.894595   -0.695410
     17          6           0        2.180842   -0.439589   -1.023296
     18          6           0        3.465378    2.902372   -0.044260
     19          6           0        1.690937   -3.504270   -1.912779
     20          6           0       -5.463550   -2.699612    1.391134
     21          6           0       -3.556043   -1.947027    0.167552
     22          6           0        2.027159    3.053824   -0.051710
     23          6           0       -5.071971   -1.729425    0.331194
     24          6           0        5.076319    0.964885   -0.397949
     25          6           0       -2.608362   -1.151560   -0.430079
     26          6           0       -1.416666   -3.892531   -1.686460
     27          6           0       -4.293799   -3.819455    1.362035
     28          6           0        2.213377   -4.474757   -0.860015
     29          6           0        5.348897    0.188347    0.903305
     30          6           0        4.451719    3.977298    0.241216
     31          6           0        1.172254    4.147716    0.284216
     32          6           0       -6.784917   -3.258310    1.162777
     33          6           0       -5.768634   -0.786057   -0.293461
     34          6           0       -0.159688    4.027825    0.323576
     35          6           0       -1.220617    5.077812    0.457695
     36          6           0       -2.463251    4.516130    0.300625
     37          6           0        3.138309   -4.100434    0.197990
     38          6           0       -5.324318    0.315854   -1.173450
     39          6           0        6.718137   -0.506974    0.920527
     40          6           0       -3.770762    5.249978    0.505615
     41          6           0       -2.291592    3.234438   -0.094190
     42          6           0       -0.801711    6.511398    0.899544
     43          6           0       -4.349752    5.727176   -0.915513
     44          1           0       -0.528377    0.465326   -0.167290
     45          1           0        3.147018   -0.989335   -1.205101
     46          1           0        2.586988   -3.060899   -2.424025
     47          1           0        1.519901   -4.091099   -2.792572
     48          1           0       -5.444179   -2.223269    2.238232
     49          1           0        4.990465    0.219460   -1.104352
     50          1           0        5.863125    1.712242   -0.675398
     51          1           0       -2.793561   -0.016206   -0.525230
     52          1           0        0.302140    1.720407   -0.212748
     53          1           0       -1.624762   -4.621280   -0.910517
     54          1           0       -2.349013   -3.735486   -2.124250
     55          1           0       -0.783946   -4.387982   -2.450063
     56          1           0       -2.359018   -3.558820    0.710505
     57          1           0        1.397310   -4.975173   -0.236554
     58          1           0        2.841476   -5.277112   -1.547968
     59          1           0        4.711418   -0.573720    1.079884
     60          1           0        5.278980    0.505858    1.868113
     61          1           0        4.663013    4.804508   -0.602497
     62          1           0        5.372483    3.524558    0.605006
     63          1           0        3.974056    4.517003    1.199785
     64          1           0        1.657373    5.086704    0.470227
     65          1           0       -7.591384   -2.631913    1.368674
     66          1           0       -6.946183   -4.089983    1.728092
     67          1           0       -6.895066   -3.735892    0.076169
     68          1           0       -6.822783   -1.036077   -0.105674
     69          1           0       -4.986909    1.106693   -0.550264
     70          1           0       -6.176094    0.910043   -1.790241
     71          1           0       -4.593211   -0.134908   -2.083291
     72          1           0       -3.543614    6.260483    1.219613
     73          1           0       -4.559253    4.620129    1.143963
     74          1           0       -0.211551    6.543352    1.867407
     75          1           0       -1.634682    7.138571    1.217956
     76          1           0       -0.181050    7.133022    0.208858
     77          1           0       -3.469916    6.242477   -1.635042
     78          1           0       -5.260204    6.464569   -0.723260
     79          1           0       -4.545281    4.776466   -1.411213
     80          1           0        3.766477   -5.034467    1.844110
     81          1           0        7.769888   -1.631330    1.807728
 ---------------------------------------------------------------------

 SCF Done:  E(RB3LYP) =  -1949.04047688     A.U. after   23 cycles

 Excitation energies and oscillator strengths:

 Excited State   1:      Singlet-A      1.8719 eV  662.34 nm  f=0.2722  <S**2>=0.000
     155 ->157         0.11886
     156 ->157         0.69216
     156 <-157        -0.10194
 This state for optimization and/or second-order correction.
 Total Energy, E(TD-HF/TD-DFT) =  -1948.97168589
 Copying the excited state density for this state as the 1-particle RhoCI density.

 The electronic state is 1-A.
 Alpha  occ. eigenvalues --  -19.20936 -19.19287 -19.12802 -19.12553 -19.11828
 Alpha  occ. eigenvalues --  -19.08875 -14.38841 -14.37971 -14.35005 -14.28117
 Alpha  occ. eigenvalues --  -10.33019 -10.32497 -10.29979 -10.25190 -10.25148
 Alpha  occ. eigenvalues --  -10.24890 -10.23745 -10.23150 -10.22996 -10.22187
 Alpha  occ. eigenvalues --  -10.21668 -10.21440 -10.21402 -10.21362 -10.21067
 Alpha  occ. eigenvalues --  -10.20898 -10.20745 -10.20508 -10.20037 -10.20013
 Alpha  occ. eigenvalues --  -10.19933 -10.19784 -10.19759 -10.19709 -10.19702
 Alpha  occ. eigenvalues --  -10.19510 -10.19448 -10.19193 -10.19187 -10.19040
 Alpha  occ. eigenvalues --  -10.18301 -10.17821 -10.17415  -1.14650  -1.08304
 Alpha  occ. eigenvalues --   -1.05937  -1.01657  -0.98765  -0.97436  -0.96922
 Alpha  occ. eigenvalues --   -0.96504  -0.95352  -0.89427  -0.83583  -0.82973
 Alpha  occ. eigenvalues --   -0.82913  -0.80973  -0.78711  -0.78645  -0.78067
 Alpha  occ. eigenvalues --   -0.77444  -0.76444  -0.74889  -0.73808  -0.73029
 Alpha  occ. eigenvalues --   -0.72009  -0.71433  -0.69578  -0.68403  -0.68058
 Alpha  occ. eigenvalues --   -0.66591  -0.65323  -0.64781  -0.64331  -0.62406
 Alpha  occ. eigenvalues --   -0.59992  -0.59783  -0.58764  -0.58545  -0.57895
 Alpha  occ. eigenvalues --   -0.56746  -0.56271  -0.54419  -0.53262  -0.52658
 Alpha  occ. eigenvalues --   -0.51421  -0.51107  -0.50579  -0.49843  -0.49579
 Alpha  occ. eigenvalues --   -0.49400  -0.49244  -0.48993  -0.48647  -0.48310
 Alpha  occ. eigenvalues --   -0.47358  -0.46465  -0.46207  -0.45820  -0.45068
 Alpha  occ. eigenvalues --   -0.44894  -0.44531  -0.44343  -0.43631  -0.43597
 Alpha  occ. eigenvalues --   -0.43514  -0.42403  -0.42321  -0.42299  -0.41763
 Alpha  occ. eigenvalues --   -0.41628  -0.41422  -0.41244  -0.41074  -0.40715
 Alpha  occ. eigenvalues --   -0.40324  -0.40152  -0.39555  -0.39496  -0.39288
 Alpha  occ. eigenvalues --   -0.39204  -0.38862  -0.38538  -0.38489  -0.38123
 Alpha  occ. eigenvalues --   -0.37866  -0.37609  -0.37344  -0.36929  -0.36538
 Alpha  occ. eigenvalues --   -0.36175  -0.36117  -0.35479  -0.35287  -0.34845
 Alpha  occ. eigenvalues --   -0.33746  -0.33708  -0.33429  -0.33083  -0.32581
 Alpha  occ. eigenvalues --   -0.31560  -0.31103  -0.30781  -0.30561  -0.27773
 Alpha  occ. eigenvalues --   -0.27721  -0.27550  -0.26517  -0.25749  -0.25566
 Alpha  occ. eigenvalues --   -0.24955  -0.23936  -0.23811  -0.22994  -0.20981
 Alpha  occ. eigenvalues --   -0.18019
 Alpha virt. eigenvalues --   -0.10248  -0.06360  -0.03839  -0.01667  -0.01242
 Alpha virt. eigenvalues --    0.00524   0.01569   0.02649   0.03207   0.03968
 Alpha virt. eigenvalues --    0.04189   0.04579   0.04730   0.05215   0.05733

 Mulliken charges:
               1
     1  O   -0.165238
     2  O   -0.089559
     3  O   -0.200256
     4  O   -0.246435
     5  O   -0.319519
     6  O   -0.264282
     7  N   -0.164107
     8  N   -0.216957
     9  N   -0.083111
    10  N   -0.413109
    11  C   -0.030865
    12  C    0.192306
    13  C   -0.188008
    14  C    0.022608
    15  C   -0.048659
    16  C    0.005119
    17  C   -0.086019
    18  C   -0.149355
    19  C    0.135181
    20  C   -0.017325
    21  C    0.071666
    22  C    0.099518
    23  C   -0.023652
    24  C    0.179169
    25  C   -0.137983
    26  C    0.134269
    27  C    0.116457
    28  C   -0.074493
    29  C    0.145454
    30  C    0.025475
    31  C   -0.092566
    32  C    0.100420
    33  C   -0.123223
    34  C    0.143325
    35  C   -0.072572
    36  C   -0.085542
    37  C    0.088702
    38  C    0.035018
    39  C    0.152418
    40  C   -0.021107
    41  C    0.156156
    42  C    0.060271
    43  C   -0.056349
    44  H    0.190462
    45  H    0.017965
    46  H   -0.006604
    47  H    0.000400
    48  H   -0.014863
    49  H   -0.012005
    50  H    0.030347
    51  H    0.070343
    52  H    0.229873
    53  H    0.009354
    54  H    0.012450
    55  H    0.007409
    56  H    0.130714
    57  H    0.025531
    58  H    0.063519
    59  H   -0.017457
    60  H   -0.019078
    61  H    0.059742
    62  H    0.015904
    63  H    0.025502
    64  H   -0.041182
    65  H    0.002407
    66  H   -0.017595
    67  H    0.013822
    68  H   -0.014736
    69  H    0.060269
    70  H    0.013872
    71  H    0.062782
    72  H    0.016775
    73  H    0.041486
    74  H    0.020625
    75  H   -0.002242
    76  H    0.030997
    77  H    0.034387
    78  H    0.043514
    79  H    0.036337
    80  H    0.199872
    81  H    0.185862
 Sum of Mulliken charges =  -0.00000

 Dipole moment (field-independent basis, Debye):
    X=              2.2358    Y=             -2.2523    Z=              2.0755  Tot=              3.7919
 Quadrupole moment (field-independent basis, Debye-Ang):
   XX=           -264.6673   YY=           -233.0630   ZZ=           -249.1433
   XY=            -17.7524   XZ=             15.3435   YZ=              7.4657

 Normal termination of Gaussian 16 at Thu Jul  4 13:43:33 2019.
