 Gaussian 16, Revision A.03,
 Gaussian 16:  ES64L-G16RevA.03 25-Dec-2016

 --------------------------
 # td=(NStates=1) B3LYP/SVP
 --------------------------

 --
 TD
 --
 Symbolic Z-matrix:
 Charge =  0 Multiplicity = 1

                         Standard orientation:
 ---------------------------------------------------------------------
 Center     Atomic      Atomic             Coordinates (Angstroms)
 Number     Number       Type             X           Y           Z
 ---------------------------------------------------------------------
      1          8           0        4.320917   -5.068783   -1.763637
      2          8           0       -3.297786   -4.790135   -1.186714
      3          8           0       -7.075161   -1.266581   -1.980360
      4          8           0       -3.930930   -2.921402   -0.166854
      5          8           0       -7.730704   -0.368326    0.020244
      6          8           0        3.208044    2.271464    0.114500
      7          7           0        0.232510   -0.575457    0.690456
      8          7           0       -1.441299    1.828197    0.211937
      9          7           0        3.309325   -3.384513   -0.451856
     10          7           0        0.942825    2.910748    0.080147
     11          6           0       -0.864655   -2.395476    1.323967
     12          6           0       -1.073237   -1.067970    0.887157
     13          6           0        0.504155   -2.672796    1.263281
     14          6           0        1.188624   -1.544115    0.808224
     15          6           0       -3.744588    1.652669    0.232576
     16          6           0       -2.463522    0.953500    0.363195
     17          6           0       -2.342258   -0.431174    0.698152
     18          6           0       -3.483319    2.987140    0.021121
     19          6           0       -1.945070   -3.309080    2.027535
     20          6           0        5.431352   -2.832257   -1.290940
     21          6           0        3.496905   -2.070895   -0.021360
     22          6           0       -1.930952    3.106578    0.001169
     23          6           0        4.942135   -1.761945   -0.354682
     24          6           0       -5.096337    1.089838    0.392403
     25          6           0        2.591720   -1.195576    0.558765
     26          6           0        1.115712   -3.928862    1.817146
     27          6           0        4.338851   -3.951417   -1.259265
     28          6           0       -2.402590   -4.456612    1.077932
     29          6           0       -5.369039    0.199645   -0.945663
     30          6           0       -4.215556    4.216603   -0.137377
     31          6           0       -1.036876    4.260223   -0.182752
     32          6           0        6.812510   -3.420393   -1.195431
     33          6           0        5.766415   -0.757093    0.112130
     34          6           0        0.393950    4.112074   -0.108099
     35          6           0        1.409970    5.130696   -0.335249
     36          6           0        2.505275    4.538177   -0.288514
     37          6           0       -3.313105   -3.970279   -0.150326
     38          6           0        5.459748    0.311886    1.070930
     39          6           0       -6.842595   -0.493272   -0.871159
     40          6           0        3.881963    5.044267   -0.597694
     41          6           0        2.354839    3.106566   -0.035114
     42          6           0        1.100176    6.564521   -0.570911
     43          6           0        4.539711    5.322041    0.784815
     44          1           0        0.486251    0.258757    0.014043
     45          1           0       -3.299464   -0.807575    0.819841
     46          1           0       -2.772198   -2.765367    2.332680
     47          1           0       -1.721042   -3.815699    2.915607
     48          1           0        5.307456   -2.449132   -2.223942
     49          1           0       -5.336307    0.399172    1.233559
     50          1           0       -5.910583    1.871660    0.456518
     51          1           0        2.773227   -0.086591    0.877788
     52          1           0       -0.454214    1.707867    0.238641
     53          1           0        0.971807   -4.705233    1.175553
     54          1           0        2.207282   -3.955602    1.945382
     55          1           0        0.719547   -4.096893    2.650258
     56          1           0        2.350676   -3.884949   -0.418862
     57          1           0       -1.691327   -5.023378    0.561811
     58          1           0       -3.187118   -5.127159    1.580244
     59          1           0       -4.704856   -0.587573   -0.726733
     60          1           0       -5.069813    0.706764   -1.949823
     61          1           0       -3.786271    4.902694    0.520194
     62          1           0       -5.179646    3.945997   -0.071631
     63          1           0       -3.928914    4.607080   -1.187398
     64          1           0       -1.691924    5.246175   -0.531686
     65          1           0        7.589734   -2.647021   -1.290816
     66          1           0        6.915007   -4.082194   -2.052560
     67          1           0        6.950017   -4.123695   -0.332058
     68          1           0        6.778771   -0.693646   -0.186323
     69          1           0        4.950318    1.278083    0.634639
     70          1           0        6.543068    0.661912    1.450674
     71          1           0        4.855601   -0.131930    1.855200
     72          1           0        3.808689    6.052698   -1.018730
     73          1           0        4.499063    4.269205   -1.242125
     74          1           0       -0.100906    6.674045   -1.039769
     75          1           0        2.144548    7.068870   -1.080061
     76          1           0        1.050650    7.098352    0.483765
     77          1           0        4.197414    5.942773    1.195332
     78          1           0        5.576884    5.434171    0.470034
     79          1           0        4.503467    4.287556    1.071407
     80          1           0       -3.851765   -4.359698   -1.912476
     81          1           0       -8.013562   -1.396480   -1.806168
 ---------------------------------------------------------------------

 SCF Done:  E(RB3LYP) =  -1949.01948017     A.U. after   16 cycles

 Excitation energies and oscillator strengths:

 Excited State   1:      Singlet-A      1.8973 eV  653.48 nm  f=0.3567  <S**2>=0.000
     156 ->157         0.70638
     156 <-157        -0.11557
 This state for optimization and/or second-order correction.
 Total Energy, E(TD-HF/TD-DFT) =  -1948.94975554
 Copying the excited state density for this state as the 1-particle RhoCI density.

 The electronic state is 1-A.
 Alpha  occ. eigenvalues --  -19.20202 -19.19002 -19.13852 -19.13458 -19.12246
 Alpha  occ. eigenvalues --  -19.11623 -14.38107 -14.37931 -14.36545 -14.28468
 Alpha  occ. eigenvalues --  -10.33627 -10.33068 -10.30103 -10.26582 -10.25211
 Alpha  occ. eigenvalues --  -10.24924 -10.23513 -10.23399 -10.22989 -10.22982
 Alpha  occ. eigenvalues --  -10.22936 -10.22162 -10.22071 -10.21327 -10.21260
 Alpha  occ. eigenvalues --  -10.20932 -10.20803 -10.20762 -10.20702 -10.20037
 Alpha  occ. eigenvalues --  -10.20026 -10.19982 -10.19696 -10.19141 -10.19086
 Alpha  occ. eigenvalues --  -10.18999 -10.18886 -10.18601 -10.18243 -10.18095
 Alpha  occ. eigenvalues --  -10.17190 -10.16803 -10.15026  -1.11433  -1.09615
 Alpha  occ. eigenvalues --   -1.03227  -1.03147  -1.01212  -0.99056  -0.98354
 Alpha  occ. eigenvalues --   -0.97403  -0.94536  -0.92869  -0.82880  -0.81613
 Alpha  occ. eigenvalues --   -0.81347  -0.81231  -0.80524  -0.78626  -0.77528
 Alpha  occ. eigenvalues --   -0.76780  -0.76080  -0.75580  -0.74124  -0.72622
 Alpha  occ. eigenvalues --   -0.72293  -0.69757  -0.68973  -0.68747  -0.67681
 Alpha  occ. eigenvalues --   -0.66954  -0.64765  -0.63534  -0.62479  -0.61396
 Alpha  occ. eigenvalues --   -0.60659  -0.59542  -0.58470  -0.57822  -0.57195
 Alpha  occ. eigenvalues --   -0.56593  -0.55655  -0.55394  -0.53942  -0.53212
 Alpha  occ. eigenvalues --   -0.52009  -0.51673  -0.50345  -0.50016  -0.49905
 Alpha  occ. eigenvalues --   -0.49285  -0.48967  -0.48764  -0.48372  -0.48189
 Alpha  occ. eigenvalues --   -0.47761  -0.46887  -0.46767  -0.46319  -0.45716
 Alpha  occ. eigenvalues --   -0.45272  -0.44975  -0.44751  -0.44363  -0.44020
 Alpha  occ. eigenvalues --   -0.43911  -0.43424  -0.43374  -0.43154  -0.42964
 Alpha  occ. eigenvalues --   -0.42444  -0.42308  -0.42126  -0.41514  -0.40889
 Alpha  occ. eigenvalues --   -0.40442  -0.40185  -0.40118  -0.39956  -0.39349
 Alpha  occ. eigenvalues --   -0.39289  -0.38708  -0.38542  -0.38258  -0.38224
 Alpha  occ. eigenvalues --   -0.37953  -0.37790  -0.37621  -0.37442  -0.37354
 Alpha  occ. eigenvalues --   -0.37261  -0.36287  -0.35794  -0.35725  -0.35300
 Alpha  occ. eigenvalues --   -0.34595  -0.33905  -0.33661  -0.33445  -0.33289
 Alpha  occ. eigenvalues --   -0.32895  -0.32372  -0.32327  -0.29829  -0.28844
 Alpha  occ. eigenvalues --   -0.28606  -0.28360  -0.27084  -0.26117  -0.25704
 Alpha  occ. eigenvalues --   -0.25186  -0.24820  -0.24504  -0.23534  -0.21425
 Alpha  occ. eigenvalues --   -0.17612
 Alpha virt. eigenvalues --   -0.10114  -0.05670  -0.03536  -0.01691  -0.00079
 Alpha virt. eigenvalues --    0.00141   0.01943   0.02616   0.03114   0.03676
 Alpha virt. eigenvalues --    0.04245   0.04765   0.05251   0.05834   0.06182

 Mulliken charges:
               1
     1  O   -0.208824
     2  O   -0.169834
     3  O   -0.175119
     4  O   -0.238149
     5  O   -0.280694
     6  O   -0.184806
     7  N   -0.140743
     8  N   -0.020802
     9  N   -0.190077
    10  N   -0.324475
    11  C   -0.094113
    12  C    0.107345
    13  C   -0.200699
    14  C    0.030456
    15  C   -0.069836
    16  C    0.010072
    17  C    0.018010
    18  C   -0.155640
    19  C    0.210834
    20  C   -0.025537
    21  C    0.143717
    22  C   -0.004167
    23  C   -0.002906
    24  C    0.032534
    25  C   -0.142115
    26  C    0.239192
    27  C    0.138068
    28  C   -0.015803
    29  C   -0.041333
    30  C    0.207454
    31  C   -0.148528
    32  C    0.071822
    33  C   -0.142032
    34  C    0.095275
    35  C   -0.027600
    36  C   -0.204177
    37  C    0.092484
    38  C   -0.002087
    39  C    0.189844
    40  C    0.021841
    41  C    0.167886
    42  C   -0.034978
    43  C    0.232739
    44  H    0.179395
    45  H   -0.036372
    46  H   -0.020499
    47  H   -0.011426
    48  H    0.008593
    49  H    0.035631
    50  H    0.026252
    51  H    0.073681
    52  H    0.093798
    53  H   -0.019267
    54  H    0.011838
    55  H   -0.052383
    56  H    0.156514
    57  H    0.018924
    58  H    0.046958
    59  H    0.034966
    60  H    0.065023
    61  H    0.018423
    62  H   -0.024432
    63  H    0.033030
    64  H    0.017710
    65  H    0.019321
    66  H    0.014705
    67  H    0.021750
    68  H   -0.023426
    69  H    0.104626
    70  H    0.010351
    71  H    0.028209
    72  H   -0.025031
    73  H    0.037802
    74  H    0.057807
    75  H    0.050247
    76  H    0.049452
    77  H   -0.139181
    78  H   -0.005527
    79  H    0.008676
    80  H    0.205404
    81  H    0.163957
 Sum of Mulliken charges =  -0.00000

 Dipole moment (field-independent basis, Debye):
    X=             -2.4369    Y=              0.8193    Z=             -0.7262  Tot=              2.6716
 Quadrupole moment (field-independent basis, Debye-Ang):
   XX=           -255.6367   YY=           -243.8978   ZZ=           -253.5010
   XY=             14.7760   XZ=             11.1473   YZ=            -11.2802

 Normal termination of Gaussian 16 at Tue Jul  2 10:08:40 2019.
