 Gaussian 16, Revision A.03,
 Gaussian 16:  ES64L-G16RevA.03 25-Dec-2016

 --------------------------
 # td=(NStates=1) B3LYP/SVP
 --------------------------

 --
 TD
 --
 Symbolic Z-matrix:
 Charge =  0 Multiplicity = 1

                         Standard orientation:
 ---------------------------------------------------------------------
 Center     Atomic      Atomic             Coordinates (Angstroms)
 Number     Number       Type             X           Y           Z
 ---------------------------------------------------------------------
      1          8           0        4.798972   -4.666736   -1.840718
      2          8           0       -2.823154   -4.953930   -1.351442
      3          8           0       -6.995048   -1.689300   -1.730033
      4          8           0       -3.566925   -3.130253   -0.319998
      5          8           0       -7.583633   -0.752126    0.219126
      6          8           0        2.965862    2.605947    0.155393
      7          7           0        0.252554   -0.614232    0.624667
      8          7           0       -1.581722    1.703935    0.388076
      9          7           0        3.571965   -3.173415   -0.648501
     10          7           0        0.648606    2.901973    0.071471
     11          6           0       -0.618735   -2.527001    1.440352
     12          6           0       -0.961848   -1.228757    0.974039
     13          6           0        0.834226   -2.711389    1.239301
     14          6           0        1.291835   -1.507913    0.690995
     15          6           0       -3.850623    1.226851    0.347971
     16          6           0       -2.511254    0.739043    0.636012
     17          6           0       -2.233106   -0.589730    0.890365
     18          6           0       -3.663429    2.592755   -0.006075
     19          6           0       -1.580169   -3.675110    1.880927
     20          6           0        5.701382   -2.497776   -1.300172
     21          6           0        3.722322   -1.718804   -0.151114
     22          6           0       -2.160183    2.938333    0.001272
     23          6           0        5.153061   -1.359418   -0.383883
     24          6           0       -5.136972    0.533246    0.448366
     25          6           0        2.672695   -1.088889    0.363287
     26          6           0        1.643984   -3.838293    1.730175
     27          6           0        4.689731   -3.595042   -1.353528
     28          6           0       -1.848125   -4.626456    0.853708
     29          6           0       -5.413111   -0.171031   -0.783259
     30          6           0       -4.757355    3.545427   -0.425774
     31          6           0       -1.472056    4.052047   -0.282861
     32          6           0        7.235902   -2.919163   -0.900753
     33          6           0        5.811298   -0.380947    0.128990
     34          6           0       -0.084292    4.157056   -0.205297
     35          6           0        0.766576    5.221090   -0.413347
     36          6           0        2.055364    4.800752   -0.261240
     37          6           0       -2.754733   -4.073096   -0.320049
     38          6           0        5.366385    0.635733    1.184564
     39          6           0       -6.779388   -0.833714   -0.652820
     40          6           0        3.323335    5.577231   -0.460740
     41          6           0        2.001021    3.295720   -0.092742
     42          6           0        0.217115    6.607911   -0.798818
     43          6           0        3.948375    6.118600    0.879235
     44          1           0        0.346484    0.278150    0.175989
     45          1           0       -3.142584   -1.360943    0.736431
     46          1           0       -2.624649   -3.235526    2.220042
     47          1           0       -1.316145   -4.004467    2.960066
     48          1           0        5.722655   -1.991768   -2.223208
     49          1           0       -5.247636   -0.026032    1.420700
     50          1           0       -5.885438    1.430756    0.709221
     51          1           0        2.876362   -0.011007    0.771904
     52          1           0       -0.468396    1.711048    0.592727
     53          1           0        1.673880   -4.772705    1.180938
     54          1           0        2.706764   -3.647956    1.812156
     55          1           0        1.201551   -4.340623    2.790446
     56          1           0        2.771231   -3.739108   -0.230809
     57          1           0       -0.846263   -4.994727    0.426562
     58          1           0       -2.288764   -5.665323    1.178551
     59          1           0       -4.671861   -0.972325   -0.960055
     60          1           0       -5.402144    0.338030   -1.714848
     61          1           0       -4.527702    4.357911    0.238217
     62          1           0       -5.715022    3.048391   -0.223040
     63          1           0       -4.842362    3.797702   -1.515322
     64          1           0       -2.116180    5.052615   -0.657611
     65          1           0        7.813218   -2.030385   -1.233157
     66          1           0        7.673152   -3.996643   -1.280331
     67          1           0        7.499852   -3.068224    0.236475
     68          1           0        6.845147   -0.163743   -0.072662
     69          1           0        4.561695    1.322133    0.933173
     70          1           0        6.229349    1.252289    1.651344
     71          1           0        4.772758    0.054563    1.789546
     72          1           0        2.981692    6.384222   -1.142270
     73          1           0        3.924075    4.942586   -0.993485
     74          1           0        0.113014    6.599443   -2.043342
     75          1           0        1.187274    7.354914   -0.675100
     76          1           0       -1.036680    6.871761   -0.322108
     77          1           0        3.309671    7.020948    1.369980
     78          1           0        5.132977    6.379822    0.708189
     79          1           0        4.133126    5.390954    1.605962
     80          1           0       -3.640934   -4.634224   -1.912738
     81          1           0       -7.966945   -2.164746   -1.799681
 ---------------------------------------------------------------------

 SCF Done:  E(RB3LYP) =  -1949.06036592     A.U. after   17 cycles

 Excitation energies and oscillator strengths:

 Excited State   1:      Singlet-A      1.9022 eV  651.80 nm  f=0.2933  <S**2>=0.000
     154 ->157        -0.15630
     155 ->157         0.10232
     156 ->157         0.68507
     156 <-157        -0.11454
 This state for optimization and/or second-order correction.
 Total Energy, E(TD-HF/TD-DFT) =  -1948.99046160
 Copying the excited state density for this state as the 1-particle RhoCI density.

 The electronic state is 1-A.
 Alpha  occ. eigenvalues --  -19.20019 -19.17146 -19.15125 -19.13047 -19.10379
 Alpha  occ. eigenvalues --  -19.09536 -14.37820 -14.36147 -14.35275 -14.28881
 Alpha  occ. eigenvalues --  -10.34763 -10.31901 -10.27854 -10.26172 -10.24969
 Alpha  occ. eigenvalues --  -10.24424 -10.24242 -10.23944 -10.23777 -10.23578
 Alpha  occ. eigenvalues --  -10.23356 -10.23056 -10.22178 -10.21639 -10.21255
 Alpha  occ. eigenvalues --  -10.21159 -10.20938 -10.20898 -10.20815 -10.20651
 Alpha  occ. eigenvalues --  -10.20643 -10.20606 -10.20359 -10.20255 -10.20126
 Alpha  occ. eigenvalues --  -10.19903 -10.19878 -10.19739 -10.19594 -10.19549
 Alpha  occ. eigenvalues --  -10.19228 -10.18702 -10.16970  -1.10312  -1.07974
 Alpha  occ. eigenvalues --   -1.03522  -1.01621  -1.00433  -0.98943  -0.98028
 Alpha  occ. eigenvalues --   -0.96219  -0.91145  -0.89886  -0.83402  -0.82606
 Alpha  occ. eigenvalues --   -0.81170  -0.80927  -0.79608  -0.78782  -0.77871
 Alpha  occ. eigenvalues --   -0.77387  -0.76172  -0.74824  -0.73915  -0.72464
 Alpha  occ. eigenvalues --   -0.71363  -0.69052  -0.68078  -0.67563  -0.66975
 Alpha  occ. eigenvalues --   -0.66475  -0.64999  -0.64788  -0.62725  -0.60936
 Alpha  occ. eigenvalues --   -0.60154  -0.58577  -0.57751  -0.57113  -0.56785
 Alpha  occ. eigenvalues --   -0.55911  -0.55262  -0.54703  -0.53324  -0.52411
 Alpha  occ. eigenvalues --   -0.51870  -0.51612  -0.51205  -0.50330  -0.49438
 Alpha  occ. eigenvalues --   -0.49319  -0.48956  -0.48692  -0.48352  -0.47358
 Alpha  occ. eigenvalues --   -0.46953  -0.46514  -0.45536  -0.45322  -0.44703
 Alpha  occ. eigenvalues --   -0.44614  -0.44193  -0.43865  -0.43808  -0.43678
 Alpha  occ. eigenvalues --   -0.43202  -0.43141  -0.42895  -0.42308  -0.42013
 Alpha  occ. eigenvalues --   -0.41726  -0.41253  -0.41109  -0.41038  -0.40838
 Alpha  occ. eigenvalues --   -0.40472  -0.39623  -0.39519  -0.39367  -0.39112
 Alpha  occ. eigenvalues --   -0.38692  -0.38579  -0.38337  -0.38133  -0.37653
 Alpha  occ. eigenvalues --   -0.37629  -0.37400  -0.36979  -0.36645  -0.36377
 Alpha  occ. eigenvalues --   -0.36024  -0.35801  -0.35496  -0.35289  -0.34319
 Alpha  occ. eigenvalues --   -0.33926  -0.33600  -0.33531  -0.33229  -0.33092
 Alpha  occ. eigenvalues --   -0.32883  -0.31733  -0.31195  -0.30007  -0.29437
 Alpha  occ. eigenvalues --   -0.28485  -0.27935  -0.26082  -0.25732  -0.25167
 Alpha  occ. eigenvalues --   -0.25011  -0.24746  -0.24020  -0.22866  -0.21641
 Alpha  occ. eigenvalues --   -0.18687
 Alpha virt. eigenvalues --   -0.11196  -0.06037  -0.03691  -0.02939   0.00541
 Alpha virt. eigenvalues --    0.00726   0.01785   0.02010   0.02486   0.02903
 Alpha virt. eigenvalues --    0.02996   0.03782   0.04067   0.04515   0.05397

 Mulliken charges:
               1
     1  O   -0.178403
     2  O   -0.214519
     3  O   -0.299029
     4  O   -0.257672
     5  O   -0.190590
     6  O   -0.197620
     7  N   -0.079435
     8  N   -0.167349
     9  N   -0.243752
    10  N   -0.410359
    11  C   -0.133478
    12  C    0.075887
    13  C   -0.119083
    14  C    0.062275
    15  C   -0.091575
    16  C    0.119642
    17  C   -0.137103
    18  C   -0.157907
    19  C    0.049990
    20  C   -0.016895
    21  C    0.105785
    22  C    0.148090
    23  C    0.105207
    24  C    0.046844
    25  C   -0.144526
    26  C    0.022300
    27  C    0.147278
    28  C    0.000479
    29  C    0.045919
    30  C    0.103889
    31  C   -0.179275
    32  C   -0.044808
    33  C   -0.197619
    34  C    0.122355
    35  C   -0.039981
    36  C   -0.209573
    37  C    0.182150
    38  C    0.055690
    39  C    0.147040
    40  C    0.140230
    41  C    0.175785
    42  C   -0.068502
    43  C   -0.031090
    44  H    0.122096
    45  H    0.084072
    46  H    0.018649
    47  H    0.032832
    48  H    0.029808
    49  H    0.034248
    50  H    0.036298
    51  H    0.043069
    52  H    0.197113
    53  H    0.018797
    54  H    0.027357
    55  H    0.037050
    56  H    0.133690
    57  H    0.047121
    58  H    0.066515
    59  H    0.050696
    60  H    0.020230
    61  H    0.030167
    62  H   -0.001818
    63  H    0.039023
    64  H    0.022002
    65  H    0.032690
    66  H    0.057818
    67  H    0.030613
    68  H   -0.023035
    69  H    0.055205
    70  H    0.025851
    71  H   -0.009826
    72  H   -0.001478
    73  H   -0.011267
    74  H    0.054530
    75  H    0.054549
    76  H    0.073408
    77  H    0.042934
    78  H    0.020463
    79  H    0.012356
    80  H    0.220624
    81  H    0.228855
 Sum of Mulliken charges =  -0.00000

 Dipole moment (field-independent basis, Debye):
    X=             -3.9444    Y=              0.8929    Z=              0.0136  Tot=              4.0442
 Quadrupole moment (field-independent basis, Debye-Ang):
   XX=           -250.5077   YY=           -239.0826   ZZ=           -255.4338
   XY=             21.7726   XZ=             21.3292   YZ=            -16.7428

 Normal termination of Gaussian 16 at Fri Jun 28 18:59:55 2019.
