 Gaussian 16, Revision A.03,
 Gaussian 16:  ES64L-G16RevA.03 25-Dec-2016

 --------------------------
 # td=(NStates=1) B3LYP/SVP
 --------------------------

 --
 TD
 --
 Symbolic Z-matrix:
 Charge =  0 Multiplicity = 1

                         Standard orientation:
 ---------------------------------------------------------------------
 Center     Atomic      Atomic             Coordinates (Angstroms)
 Number     Number       Type             X           Y           Z
 ---------------------------------------------------------------------
      1          8           0       -4.488165   -4.663307    1.924932
      2          8           0        2.735605   -4.887789    1.153757
      3          8           0        7.053300   -1.590297    1.923648
      4          8           0        3.718214   -3.315814   -0.083674
      5          8           0        7.493900   -0.693848   -0.160925
      6          8           0       -3.020611    2.620563   -0.430290
      7          7           0       -0.313198   -0.491616   -0.598234
      8          7           0        1.625271    1.821147   -0.489020
      9          7           0       -3.383682   -3.020778    0.802362
     10          7           0       -0.720772    2.845488   -0.084877
     11          6           0        0.650359   -2.414280   -1.395057
     12          6           0        0.913774   -1.086217   -1.006252
     13          6           0       -0.741822   -2.651526   -1.191834
     14          6           0       -1.260149   -1.387672   -0.764058
     15          6           0        3.828384    1.403616   -0.388263
     16          6           0        2.507241    0.805969   -0.651676
     17          6           0        2.193952   -0.583601   -0.998036
     18          6           0        3.594987    2.722844    0.073372
     19          6           0        1.599120   -3.404725   -1.933891
     20          6           0       -5.702234   -2.469976    1.369074
     21          6           0       -3.602180   -1.757868    0.319508
     22          6           0        2.223362    2.880644    0.041692
     23          6           0       -5.133950   -1.393557    0.425550
     24          6           0        5.146908    0.667391   -0.378186
     25          6           0       -2.674385   -1.040092   -0.455438
     26          6           0       -1.569170   -3.893344   -1.675405
     27          6           0       -4.538412   -3.586880    1.426392
     28          6           0        1.865527   -4.523775   -0.893140
     29          6           0        5.380730   -0.163798    0.862219
     30          6           0        4.546483    3.718749    0.523058
     31          6           0        1.452777    4.044558    0.340030
     32          6           0       -6.972168   -3.131352    1.093903
     33          6           0       -5.829659   -0.518247   -0.217269
     34          6           0        0.015023    3.952518    0.310015
     35          6           0       -0.830256    5.175656    0.475392
     36          6           0       -2.116596    4.736448    0.346987
     37          6           0        2.924036   -4.152244    0.048088
     38          6           0       -5.412661    0.522015   -1.219407
     39          6           0        6.709484   -0.928503    0.828795
     40          6           0       -3.447824    5.448382    0.400445
     41          6           0       -2.068344    3.278031   -0.071619
     42          6           0       -0.464352    6.563599    0.937367
     43          6           0       -4.047102    5.525747   -1.030821
     44          1           0       -0.734652    0.588812   -0.379823
     45          1           0        2.896623   -1.304738   -1.251699
     46          1           0        2.550086   -3.226191   -2.439125
     47          1           0        0.915661   -3.908347   -2.931628
     48          1           0       -5.466726   -1.926660    2.347632
     49          1           0        5.426837    0.089877   -1.156301
     50          1           0        6.032414    1.225168   -0.458658
     51          1           0       -2.841528    0.131020   -0.726886
     52          1           0        0.473455    1.727880   -0.658070
     53          1           0       -1.639440   -4.697734   -0.725435
     54          1           0       -2.429411   -3.495340   -1.981907
     55          1           0       -0.775867   -4.320529   -2.415523
     56          1           0       -2.362465   -3.255278    1.004486
     57          1           0        1.106132   -4.834549   -0.419896
     58          1           0        2.095439   -5.407268   -1.410206
     59          1           0        4.660537   -1.122688    1.124931
     60          1           0        5.382830    0.521604    1.764814
     61          1           0        4.081024    4.682490   -0.039372
     62          1           0        5.765235    3.594645    0.414038
     63          1           0        4.291641    4.088110    1.431364
     64          1           0        2.001518    4.978947    0.619689
     65          1           0       -7.878043   -2.429407    1.401100
     66          1           0       -7.268462   -4.124853    1.593761
     67          1           0       -7.114661   -3.653009   -0.003378
     68          1           0       -7.049356   -0.761435    0.053760
     69          1           0       -5.069827    1.615142   -0.785394
     70          1           0       -6.157470    0.978266   -1.904337
     71          1           0       -4.513571    0.170345   -2.020926
     72          1           0       -3.093431    6.336252    0.993884
     73          1           0       -4.065818    4.788159    0.870383
     74          1           0        0.005910    6.541788    1.849685
     75          1           0       -1.248229    7.217968    1.268529
     76          1           0        0.024340    7.098176   -0.033734
     77          1           0       -3.590642    6.196134   -1.684212
     78          1           0       -5.087146    5.797431   -0.880984
     79          1           0       -3.984653    4.376123   -1.309992
     80          1           0        3.387182   -4.510071    1.846408
     81          1           0        8.037981   -1.753034    1.692610
 ---------------------------------------------------------------------

 SCF Done:  E(RB3LYP) =  -1949.00054870     A.U. after   17 cycles

 Excitation energies and oscillator strengths:

 Excited State   1:      Singlet-A      1.9096 eV  649.25 nm  f=0.3854  <S**2>=0.000
     156 ->157         0.70863
     156 <-157        -0.12419
 This state for optimization and/or second-order correction.
 Total Energy, E(TD-HF/TD-DFT) =  -1948.93037060
 Copying the excited state density for this state as the 1-particle RhoCI density.

 The electronic state is 1-A.
 Alpha  occ. eigenvalues --  -19.20729 -19.19715 -19.14884 -19.13019 -19.12304
 Alpha  occ. eigenvalues --  -19.10057 -14.38786 -14.37766 -14.35382 -14.29318
 Alpha  occ. eigenvalues --  -10.32911 -10.32577 -10.30725 -10.25782 -10.25446
 Alpha  occ. eigenvalues --  -10.23934 -10.23221 -10.23139 -10.22905 -10.22835
 Alpha  occ. eigenvalues --  -10.22766 -10.22193 -10.21593 -10.21516 -10.21490
 Alpha  occ. eigenvalues --  -10.21261 -10.20911 -10.20773 -10.20766 -10.20331
 Alpha  occ. eigenvalues --  -10.20079 -10.20071 -10.19938 -10.19911 -10.19538
 Alpha  occ. eigenvalues --  -10.19230 -10.19005 -10.18781 -10.18748 -10.17882
 Alpha  occ. eigenvalues --  -10.17529 -10.17486 -10.16893  -1.12628  -1.10538
 Alpha  occ. eigenvalues --   -1.06018  -1.03942  -1.01541  -0.98945  -0.98047
 Alpha  occ. eigenvalues --   -0.97997  -0.95282  -0.89851  -0.83832  -0.82246
 Alpha  occ. eigenvalues --   -0.81268  -0.80905  -0.79098  -0.78892  -0.78312
 Alpha  occ. eigenvalues --   -0.76749  -0.75874  -0.74679  -0.73457  -0.71513
 Alpha  occ. eigenvalues --   -0.70659  -0.68913  -0.68484  -0.68141  -0.67367
 Alpha  occ. eigenvalues --   -0.67149  -0.65366  -0.64248  -0.61967  -0.61227
 Alpha  occ. eigenvalues --   -0.60105  -0.58586  -0.58358  -0.57960  -0.56876
 Alpha  occ. eigenvalues --   -0.55911  -0.55522  -0.54504  -0.53341  -0.52491
 Alpha  occ. eigenvalues --   -0.52049  -0.51571  -0.50888  -0.50654  -0.50473
 Alpha  occ. eigenvalues --   -0.49760  -0.49058  -0.48613  -0.48453  -0.47956
 Alpha  occ. eigenvalues --   -0.47274  -0.46990  -0.46071  -0.45800  -0.45494
 Alpha  occ. eigenvalues --   -0.44938  -0.44769  -0.44530  -0.44314  -0.43740
 Alpha  occ. eigenvalues --   -0.43405  -0.42864  -0.42742  -0.42440  -0.42199
 Alpha  occ. eigenvalues --   -0.42085  -0.41889  -0.41559  -0.41364  -0.41060
 Alpha  occ. eigenvalues --   -0.40769  -0.40506  -0.39763  -0.39561  -0.39415
 Alpha  occ. eigenvalues --   -0.39130  -0.38816  -0.38295  -0.38097  -0.37951
 Alpha  occ. eigenvalues --   -0.37716  -0.37493  -0.36891  -0.36279  -0.36161
 Alpha  occ. eigenvalues --   -0.36016  -0.35621  -0.35425  -0.35209  -0.34851
 Alpha  occ. eigenvalues --   -0.34553  -0.33966  -0.32968  -0.32744  -0.32495
 Alpha  occ. eigenvalues --   -0.31678  -0.31566  -0.30866  -0.30781  -0.29976
 Alpha  occ. eigenvalues --   -0.28360  -0.28078  -0.27404  -0.26090  -0.25705
 Alpha  occ. eigenvalues --   -0.24648  -0.23865  -0.23399  -0.22578  -0.21685
 Alpha  occ. eigenvalues --   -0.17449
 Alpha virt. eigenvalues --   -0.09991  -0.05043  -0.03317  -0.01321  -0.00404
 Alpha virt. eigenvalues --   -0.00387   0.01533   0.02686   0.02911   0.03653
 Alpha virt. eigenvalues --    0.03919   0.04287   0.04700   0.05196   0.05379

 Mulliken charges:
               1
     1  O   -0.158497
     2  O   -0.203592
     3  O   -0.168567
     4  O   -0.166577
     5  O   -0.319740
     6  O   -0.223945
     7  N   -0.142713
     8  N   -0.105910
     9  N   -0.135406
    10  N   -0.375707
    11  C   -0.041101
    12  C    0.111869
    13  C   -0.201697
    14  C   -0.009601
    15  C   -0.076774
    16  C    0.062876
    17  C   -0.029595
    18  C   -0.119080
    19  C   -0.048349
    20  C   -0.026235
    21  C    0.066529
    22  C    0.106544
    23  C   -0.014163
    24  C    0.210905
    25  C   -0.162798
    26  C    0.109813
    27  C    0.108964
    28  C    0.182414
    29  C   -0.089157
    30  C    0.098769
    31  C   -0.159934
    32  C   -0.032069
    33  C   -0.141522
    34  C    0.118124
    35  C   -0.128198
    36  C   -0.213154
    37  C    0.092386
    38  C   -0.055854
    39  C    0.169010
    40  C    0.162184
    41  C    0.169390
    42  C    0.097297
    43  C   -0.016847
    44  H    0.226922
    45  H   -0.032939
    46  H    0.031460
    47  H    0.038175
    48  H    0.065560
    49  H   -0.038152
    50  H   -0.030803
    51  H    0.086192
    52  H    0.207234
    53  H    0.044198
    54  H    0.016355
    55  H    0.022500
    56  H    0.167299
    57  H   -0.064603
    58  H    0.015202
    59  H    0.058980
    60  H    0.043551
    61  H    0.018600
    62  H    0.062433
    63  H   -0.020430
    64  H   -0.015015
    65  H    0.043423
    66  H    0.045270
    67  H    0.043377
    68  H    0.026444
    69  H    0.089811
    70  H    0.008534
    71  H    0.054688
    72  H   -0.003526
    73  H   -0.028822
    74  H    0.004660
    75  H   -0.005796
    76  H    0.048536
    77  H    0.003283
    78  H    0.001372
    79  H    0.060780
    80  H    0.199891
    81  H    0.205062
 Sum of Mulliken charges =  -0.00000

 Dipole moment (field-independent basis, Debye):
    X=              1.8843    Y=             -1.5963    Z=              1.8922  Tot=              3.1112
 Quadrupole moment (field-independent basis, Debye-Ang):
   XX=           -249.7885   YY=           -242.9845   ZZ=           -253.4309
   XY=             -9.4950   XZ=             15.4723   YZ=             11.6040

 Normal termination of Gaussian 16 at Thu Jul  4 23:58:06 2019.
