 Gaussian 16, Revision A.03,
 Gaussian 16:  ES64L-G16RevA.03 25-Dec-2016

 --------------------------
 # td=(NStates=1) B3LYP/SVP
 --------------------------

 --
 TD
 --
 Symbolic Z-matrix:
 Charge =  0 Multiplicity = 1

                         Standard orientation:
 ---------------------------------------------------------------------
 Center     Atomic      Atomic             Coordinates (Angstroms)
 Number     Number       Type             X           Y           Z
 ---------------------------------------------------------------------
      1          8           0        4.477401   -4.696217   -1.892291
      2          8           0       -2.637414   -4.902946   -1.141898
      3          8           0       -7.059884   -1.669035   -1.783932
      4          8           0       -3.646665   -3.310524    0.035755
      5          8           0       -7.392081   -0.956347    0.200322
      6          8           0        2.879849    2.565586    0.149006
      7          7           0        0.318087   -0.512130    0.565388
      8          7           0       -1.562233    1.826387    0.196304
      9          7           0        3.458648   -3.009532   -0.601416
     10          7           0        0.633715    2.967592   -0.093369
     11          6           0       -0.549146   -2.385488    1.348809
     12          6           0       -0.846967   -1.183621    0.923415
     13          6           0        0.878407   -2.619134    1.242861
     14          6           0        1.330149   -1.422017    0.790814
     15          6           0       -3.778267    1.369332    0.277777
     16          6           0       -2.427853    0.831813    0.545145
     17          6           0       -2.178377   -0.557137    0.801537
     18          6           0       -3.667782    2.734124   -0.077978
     19          6           0       -1.518271   -3.445863    1.952748
     20          6           0        5.561554   -2.664173   -1.401400
     21          6           0        3.648043   -1.722225   -0.162635
     22          6           0       -2.263583    2.972071   -0.047515
     23          6           0        5.116338   -1.433829   -0.477770
     24          6           0       -5.016641    0.535051    0.341407
     25          6           0        2.686238   -0.972886    0.362369
     26          6           0        1.720229   -3.762927    1.708460
     27          6           0        4.386670   -3.618471   -1.305277
     28          6           0       -1.897128   -4.657916    1.079145
     29          6           0       -5.367128   -0.304242   -0.846648
     30          6           0       -4.805163    3.638063   -0.344369
     31          6           0       -1.478903    4.018137   -0.389089
     32          6           0        6.941958   -3.148303   -1.158153
     33          6           0        5.829996   -0.428612    0.149883
     34          6           0       -0.047415    4.065117   -0.284974
     35          6           0        0.805408    5.266639   -0.584143
     36          6           0        2.108805    4.816738   -0.376229
     37          6           0       -2.699540   -4.109346   -0.077739
     38          6           0        5.502554    0.580383    1.191568
     39          6           0       -6.710558   -1.015879   -0.721299
     40          6           0        3.413741    5.561409   -0.252428
     41          6           0        1.930642    3.341735   -0.030979
     42          6           0        0.165043    6.527942   -0.726890
     43          6           0        3.940310    5.863333    1.048969
     44          1           0        0.442919    0.313257    0.195885
     45          1           0       -3.109636   -1.191713    0.959962
     46          1           0       -2.344373   -2.970566    2.539658
     47          1           0       -1.027368   -3.831315    2.836467
     48          1           0        5.347411   -2.084134   -2.493703
     49          1           0       -5.044080   -0.010386    1.338593
     50          1           0       -5.871993    1.320818    0.435320
     51          1           0        2.898760    0.059077    0.640942
     52          1           0       -0.550109    2.010400    0.481222
     53          1           0        2.113620   -4.654873    1.072698
     54          1           0        2.682344   -3.221097    1.974022
     55          1           0        1.386924   -4.299527    2.673728
     56          1           0        2.491967   -3.370622   -0.457343
     57          1           0       -0.906632   -5.085089    0.629048
     58          1           0       -2.289963   -5.710033    1.299545
     59          1           0       -4.722967   -1.291901   -0.912352
     60          1           0       -5.390881    0.191942   -1.828575
     61          1           0       -4.710432    4.510571    0.487859
     62          1           0       -5.562244    3.168411   -0.052085
     63          1           0       -5.053994    4.070169   -1.432264
     64          1           0       -1.889404    5.137504   -0.544964
     65          1           0        7.710509   -2.417360   -1.565160
     66          1           0        7.154586   -4.042472   -1.635373
     67          1           0        7.005140   -3.238489    0.041602
     68          1           0        6.907732   -0.314932   -0.230600
     69          1           0        4.571941    1.342841    0.908321
     70          1           0        6.521740    0.935908    1.582646
     71          1           0        5.049195   -0.130161    2.073419
     72          1           0        3.509954    6.561554   -1.006957
     73          1           0        4.322406    5.166558   -0.797833
     74          1           0       -0.486396    6.619796   -1.644836
     75          1           0        0.840347    7.408129   -0.841938
     76          1           0       -0.410173    6.815035    0.148788
     77          1           0        3.486528    6.712256    1.779034
     78          1           0        5.082808    6.144871    1.040540
     79          1           0        3.802648    5.017092    1.761279
     80          1           0       -3.275843   -4.712723   -1.687517
     81          1           0       -7.870331   -2.098037   -1.769473
 ---------------------------------------------------------------------

 SCF Done:  E(RB3LYP) =  -1949.07081952     A.U. after   16 cycles

 Excitation energies and oscillator strengths:

 Excited State   1:      Singlet-A      1.9606 eV  632.39 nm  f=0.3075  <S**2>=0.000
     155 ->157        -0.14945
     156 ->157         0.69386
 This state for optimization and/or second-order correction.
 Total Energy, E(TD-HF/TD-DFT) =  -1948.99877043
 Copying the excited state density for this state as the 1-particle RhoCI density.

 The electronic state is 1-A.
 Alpha  occ. eigenvalues --  -19.18989 -19.17367 -19.13904 -19.11242 -19.10707
 Alpha  occ. eigenvalues --  -19.09508 -14.37142 -14.36555 -14.35351 -14.29759
 Alpha  occ. eigenvalues --  -10.33558 -10.30687 -10.28141 -10.27110 -10.23949
 Alpha  occ. eigenvalues --  -10.23927 -10.23485 -10.23470 -10.23079 -10.23051
 Alpha  occ. eigenvalues --  -10.22781 -10.22554 -10.21520 -10.21316 -10.21253
 Alpha  occ. eigenvalues --  -10.21086 -10.21014 -10.20927 -10.20920 -10.20756
 Alpha  occ. eigenvalues --  -10.20720 -10.20537 -10.20501 -10.20104 -10.19954
 Alpha  occ. eigenvalues --  -10.19850 -10.19794 -10.19631 -10.19530 -10.19464
 Alpha  occ. eigenvalues --  -10.19292 -10.18654 -10.18259  -1.13103  -1.12645
 Alpha  occ. eigenvalues --   -1.02689  -1.02374  -1.01561  -1.01161  -0.99346
 Alpha  occ. eigenvalues --   -0.98537  -0.95991  -0.93918  -0.82869  -0.82571
 Alpha  occ. eigenvalues --   -0.81160  -0.80808  -0.79656  -0.79613  -0.78547
 Alpha  occ. eigenvalues --   -0.78001  -0.77119  -0.76039  -0.73922  -0.72904
 Alpha  occ. eigenvalues --   -0.71915  -0.70544  -0.70326  -0.69201  -0.68839
 Alpha  occ. eigenvalues --   -0.68030  -0.65996  -0.63934  -0.62859  -0.62665
 Alpha  occ. eigenvalues --   -0.61720  -0.60503  -0.59294  -0.58250  -0.56917
 Alpha  occ. eigenvalues --   -0.56602  -0.55551  -0.55129  -0.54252  -0.53713
 Alpha  occ. eigenvalues --   -0.52097  -0.51604  -0.51151  -0.50352  -0.49800
 Alpha  occ. eigenvalues --   -0.49440  -0.49008  -0.48746  -0.48063  -0.47650
 Alpha  occ. eigenvalues --   -0.47511  -0.47199  -0.46230  -0.45703  -0.45526
 Alpha  occ. eigenvalues --   -0.44851  -0.44732  -0.44133  -0.44010  -0.43659
 Alpha  occ. eigenvalues --   -0.43176  -0.42905  -0.42584  -0.42358  -0.41918
 Alpha  occ. eigenvalues --   -0.41858  -0.41637  -0.41390  -0.40942  -0.40919
 Alpha  occ. eigenvalues --   -0.40630  -0.40487  -0.40387  -0.40131  -0.39828
 Alpha  occ. eigenvalues --   -0.39380  -0.39266  -0.38958  -0.38703  -0.38157
 Alpha  occ. eigenvalues --   -0.37914  -0.37641  -0.37313  -0.36912  -0.36640
 Alpha  occ. eigenvalues --   -0.36395  -0.35950  -0.35233  -0.34306  -0.34078
 Alpha  occ. eigenvalues --   -0.33852  -0.33755  -0.33566  -0.32966  -0.32905
 Alpha  occ. eigenvalues --   -0.32594  -0.30736  -0.29957  -0.29597  -0.29307
 Alpha  occ. eigenvalues --   -0.28270  -0.27341  -0.26694  -0.25901  -0.25464
 Alpha  occ. eigenvalues --   -0.25057  -0.24866  -0.24374  -0.23902  -0.21680
 Alpha  occ. eigenvalues --   -0.18790
 Alpha virt. eigenvalues --   -0.10957  -0.06163  -0.03632  -0.03005   0.00932
 Alpha virt. eigenvalues --    0.02188   0.03082   0.03726   0.03857   0.04212
 Alpha virt. eigenvalues --    0.04567   0.04928   0.05790   0.06363   0.06667

 Mulliken charges:
               1
     1  O   -0.242426
     2  O   -0.079189
     3  O   -0.120555
     4  O   -0.267192
     5  O   -0.168869
     6  O   -0.219399
     7  N   -0.005061
     8  N   -0.108377
     9  N   -0.055550
    10  N   -0.235727
    11  C   -0.147059
    12  C    0.089056
    13  C   -0.127393
    14  C    0.027656
    15  C   -0.110932
    16  C    0.082877
    17  C   -0.081960
    18  C   -0.114084
    19  C    0.138709
    20  C   -0.107230
    21  C    0.058542
    22  C    0.126641
    23  C   -0.024053
    24  C    0.056166
    25  C   -0.071257
    26  C   -0.029709
    27  C    0.110263
    28  C   -0.017158
    29  C   -0.025511
    30  C    0.184685
    31  C   -0.137253
    32  C    0.079293
    33  C   -0.178079
    34  C   -0.025602
    35  C   -0.040070
    36  C   -0.117432
    37  C    0.137873
    38  C   -0.039771
    39  C    0.049421
    40  C    0.032185
    41  C    0.138144
    42  C    0.068797
    43  C   -0.054764
    44  H    0.056983
    45  H    0.046651
    46  H    0.018062
    47  H   -0.012018
    48  H    0.065636
    49  H    0.040014
    50  H    0.019813
    51  H   -0.000083
    52  H    0.176486
    53  H    0.049377
    54  H    0.041704
    55  H    0.030685
    56  H    0.137955
    57  H    0.034683
    58  H    0.069664
    59  H    0.067444
    60  H    0.030574
    61  H    0.032926
    62  H   -0.096498
    63  H    0.055863
    64  H    0.001658
    65  H    0.023324
    66  H    0.011541
    67  H    0.032635
    68  H    0.005015
    69  H    0.139457
    70  H    0.032046
    71  H    0.035821
    72  H    0.003579
    73  H    0.018947
    74  H    0.034111
    75  H    0.009390
    76  H    0.034441
    77  H    0.009243
    78  H    0.024314
    79  H    0.022407
    80  H    0.115959
    81  H    0.151545
 Sum of Mulliken charges =  -0.00000

 Dipole moment (field-independent basis, Debye):
    X=             -4.2347    Y=              1.7284    Z=              0.4808  Tot=              4.5991
 Quadrupole moment (field-independent basis, Debye-Ang):
   XX=           -253.0081   YY=           -235.3316   ZZ=           -254.6842
   XY=             17.3314   XZ=             21.1108   YZ=            -11.7579

 Normal termination of Gaussian 16 at Wed Jul  3 03:24:46 2019.
