 Gaussian 16, Revision A.03,
 Gaussian 16:  ES64L-G16RevA.03 25-Dec-2016

 --------------------------
 # td=(NStates=1) B3LYP/SVP
 --------------------------

 --
 TD
 --
 Symbolic Z-matrix:
 Charge =  0 Multiplicity = 1

                         Standard orientation:
 ---------------------------------------------------------------------
 Center     Atomic      Atomic             Coordinates (Angstroms)
 Number     Number       Type             X           Y           Z
 ---------------------------------------------------------------------
      1          8           0       -4.401635   -4.871341    1.825247
      2          8           0        3.230147   -4.792329    1.175789
      3          8           0        6.970414   -1.357762    2.067334
      4          8           0        3.626243   -2.953910    0.005011
      5          8           0        7.496812   -0.595656   -0.033431
      6          8           0       -3.092009    2.388741   -0.185620
      7          7           0       -0.215363   -0.614575   -0.632394
      8          7           0        1.496577    1.746824   -0.425658
      9          7           0       -3.297431   -3.129878    0.699404
     10          7           0       -0.824504    2.958557   -0.156867
     11          6           0        0.760821   -2.442122   -1.456237
     12          6           0        0.966907   -1.191230   -0.967755
     13          6           0       -0.645408   -2.713057   -1.274166
     14          6           0       -1.255116   -1.531139   -0.706189
     15          6           0        3.762326    1.466296   -0.359779
     16          6           0        2.440740    0.902330   -0.640218
     17          6           0        2.154283   -0.454870   -0.958899
     18          6           0        3.436737    2.822671   -0.052678
     19          6           0        1.829799   -3.380936   -1.900914
     20          6           0       -5.402549   -2.634243    1.462272
     21          6           0       -3.493893   -1.861012    0.213132
     22          6           0        2.038971    2.938585   -0.081354
     23          6           0       -5.002263   -1.602601    0.490124
     24          6           0        5.069870    0.822128   -0.379238
     25          6           0       -2.546539   -1.118354   -0.469417
     26          6           0       -1.439566   -3.921014   -1.794686
     27          6           0       -4.441687   -3.775486    1.312617
     28          6           0        2.127480   -4.427427   -0.952686
     29          6           0        5.372704   -0.032945    0.874447
     30          6           0        4.426739    3.914639    0.243448
     31          6           0        1.279468    4.040424    0.277740
     32          6           0       -6.833244   -3.132180    1.346229
     33          6           0       -5.746817   -0.737504   -0.176307
     34          6           0       -0.158773    4.068361    0.099142
     35          6           0       -1.097011    5.235238    0.376550
     36          6           0       -2.337675    4.665144    0.332096
     37          6           0        3.084269   -4.033543    0.057708
     38          6           0       -5.398992    0.298041   -1.371325
     39          6           0        6.713500   -0.636345    0.988184
     40          6           0       -3.640671    5.392898    0.458874
     41          6           0       -2.209787    3.195734   -0.008455
     42          6           0       -0.593445    6.485101    0.892323
     43          6           0       -4.452271    5.503793   -0.814313
     44          1           0       -0.589319    0.157106   -0.201145
     45          1           0        2.953616   -1.061118   -1.157522
     46          1           0        2.717749   -2.784894   -2.204059
     47          1           0        1.480151   -3.908383   -2.724978
     48          1           0       -5.397228   -2.394898    2.628883
     49          1           0        5.280691    0.257304   -1.305867
     50          1           0        5.830228    1.567545   -0.439379
     51          1           0       -2.749548   -0.099228   -0.606255
     52          1           0        0.412027    1.721285   -0.649423
     53          1           0       -1.680360   -4.763974   -1.133161
     54          1           0       -2.403142   -3.762801   -2.220769
     55          1           0       -0.789700   -4.453332   -2.659202
     56          1           0       -2.469966   -3.553535    0.626016
     57          1           0        1.299684   -4.845925   -0.454879
     58          1           0        2.545353   -5.332740   -1.397798
     59          1           0        4.638809   -0.857427    0.895639
     60          1           0        5.185709    0.720617    1.786632
     61          1           0        4.509621    4.802956   -0.279658
     62          1           0        5.517875    3.470284    0.310869
     63          1           0        4.325702    4.401273    1.312705
     64          1           0        1.849580    5.014343    0.526346
     65          1           0       -7.703027   -2.302984    1.271605
     66          1           0       -7.175069   -3.821431    1.982301
     67          1           0       -6.820758   -3.776714    0.369776
     68          1           0       -6.982568   -0.789508   -0.175904
     69          1           0       -4.705098    1.126251   -0.957619
     70          1           0       -6.119226    0.600965   -2.001133
     71          1           0       -4.715425   -0.266562   -2.123827
     72          1           0       -3.494900    6.478674    0.998384
     73          1           0       -4.210317    4.695504    1.129894
     74          1           0       -0.091182    6.543173    2.020735
     75          1           0       -1.405124    7.244633    0.999382
     76          1           0        0.170435    7.058562    0.116133
     77          1           0       -3.979699    6.117687   -1.662829
     78          1           0       -5.427133    6.105888   -0.581651
     79          1           0       -4.719581    4.447538   -1.336335
     80          1           0        3.638685   -4.116065    1.874031
     81          1           0        7.904291   -1.660776    1.836399
 ---------------------------------------------------------------------

 SCF Done:  E(RB3LYP) =  -1949.12894254     A.U. after   16 cycles

 Excitation energies and oscillator strengths:

 Excited State   1:      Singlet-A      1.8574 eV  667.53 nm  f=0.4152  <S**2>=0.000
     156 ->157         0.71113
     156 <-157        -0.13948
 This state for optimization and/or second-order correction.
 Total Energy, E(TD-HF/TD-DFT) =  -1949.06068593
 Copying the excited state density for this state as the 1-particle RhoCI density.

 The electronic state is 1-A.
 Alpha  occ. eigenvalues --  -19.20433 -19.19434 -19.13694 -19.13103 -19.12014
 Alpha  occ. eigenvalues --  -19.10964 -14.36860 -14.36765 -14.35572 -14.28540
 Alpha  occ. eigenvalues --  -10.32750 -10.32482 -10.30790 -10.26854 -10.25291
 Alpha  occ. eigenvalues --  -10.22950 -10.22740 -10.22583 -10.22519 -10.22416
 Alpha  occ. eigenvalues --  -10.22195 -10.21943 -10.21260 -10.21254 -10.21167
 Alpha  occ. eigenvalues --  -10.20882 -10.20629 -10.20521 -10.20384 -10.20226
 Alpha  occ. eigenvalues --  -10.20018 -10.19964 -10.19948 -10.19754 -10.19663
 Alpha  occ. eigenvalues --  -10.19494 -10.19489 -10.19474 -10.19469 -10.18805
 Alpha  occ. eigenvalues --  -10.18750 -10.18673 -10.18351  -1.10695  -1.10508
 Alpha  occ. eigenvalues --   -1.04928  -1.02293  -1.00981  -1.00207  -0.99019
 Alpha  occ. eigenvalues --   -0.97566  -0.96272  -0.91567  -0.84685  -0.82779
 Alpha  occ. eigenvalues --   -0.81899  -0.81580  -0.79670  -0.79248  -0.79005
 Alpha  occ. eigenvalues --   -0.76954  -0.76182  -0.74772  -0.74027  -0.72008
 Alpha  occ. eigenvalues --   -0.71049  -0.70064  -0.69672  -0.68651  -0.68190
 Alpha  occ. eigenvalues --   -0.67430  -0.66299  -0.65022  -0.62309  -0.60816
 Alpha  occ. eigenvalues --   -0.60378  -0.59699  -0.58944  -0.58343  -0.57375
 Alpha  occ. eigenvalues --   -0.56847  -0.56023  -0.55023  -0.53932  -0.53340
 Alpha  occ. eigenvalues --   -0.53016  -0.52144  -0.51707  -0.50569  -0.49930
 Alpha  occ. eigenvalues --   -0.49736  -0.49492  -0.49226  -0.48813  -0.48500
 Alpha  occ. eigenvalues --   -0.47356  -0.47260  -0.46101  -0.45978  -0.45098
 Alpha  occ. eigenvalues --   -0.44926  -0.44387  -0.44262  -0.44085  -0.43733
 Alpha  occ. eigenvalues --   -0.43489  -0.43225  -0.43132  -0.42890  -0.42371
 Alpha  occ. eigenvalues --   -0.42025  -0.41701  -0.41294  -0.41092  -0.40897
 Alpha  occ. eigenvalues --   -0.40246  -0.40199  -0.40126  -0.39847  -0.39557
 Alpha  occ. eigenvalues --   -0.39202  -0.39049  -0.38764  -0.38590  -0.38180
 Alpha  occ. eigenvalues --   -0.38115  -0.37848  -0.37499  -0.36974  -0.36738
 Alpha  occ. eigenvalues --   -0.36560  -0.36436  -0.35781  -0.35581  -0.35318
 Alpha  occ. eigenvalues --   -0.34085  -0.33712  -0.33457  -0.33439  -0.32708
 Alpha  occ. eigenvalues --   -0.31836  -0.31738  -0.31311  -0.29947  -0.29290
 Alpha  occ. eigenvalues --   -0.28474  -0.27726  -0.27260  -0.26507  -0.26176
 Alpha  occ. eigenvalues --   -0.25353  -0.24912  -0.24354  -0.23128  -0.21480
 Alpha  occ. eigenvalues --   -0.17186
 Alpha virt. eigenvalues --   -0.10132  -0.05781  -0.03926  -0.02323  -0.01689
 Alpha virt. eigenvalues --   -0.01110   0.02342   0.02601   0.03561   0.03739
 Alpha virt. eigenvalues --    0.03986   0.04323   0.04868   0.05132   0.05775

 Mulliken charges:
               1
     1  O   -0.188170
     2  O   -0.231626
     3  O   -0.159673
     4  O   -0.234379
     5  O   -0.317461
     6  O   -0.189587
     7  N   -0.042544
     8  N   -0.023698
     9  N   -0.099833
    10  N   -0.320219
    11  C   -0.129681
    12  C    0.094772
    13  C   -0.123829
    14  C    0.052233
    15  C   -0.087399
    16  C    0.040313
    17  C   -0.036614
    18  C   -0.083555
    19  C    0.220447
    20  C   -0.071015
    21  C    0.075582
    22  C    0.094529
    23  C    0.055969
    24  C    0.144742
    25  C   -0.093087
    26  C    0.028080
    27  C    0.156295
    28  C    0.092524
    29  C   -0.035953
    30  C    0.048406
    31  C   -0.137560
    32  C    0.030313
    33  C   -0.204349
    34  C    0.047157
    35  C   -0.030572
    36  C   -0.185492
    37  C    0.097224
    38  C    0.009398
    39  C    0.165304
    40  C    0.052474
    41  C    0.171551
    42  C   -0.018590
    43  C   -0.072227
    44  H    0.107232
    45  H   -0.059650
    46  H    0.018718
    47  H   -0.038666
    48  H    0.079588
    49  H    0.019278
    50  H   -0.017270
    51  H   -0.018709
    52  H    0.180853
    53  H    0.016462
    54  H    0.019005
    55  H    0.017347
    56  H    0.078733
    57  H    0.011247
    58  H    0.025820
    59  H    0.058321
    60  H    0.048250
    61  H    0.008664
    62  H    0.020202
    63  H    0.016554
    64  H   -0.004774
    65  H    0.042327
    66  H   -0.011694
    67  H    0.007334
    68  H    0.039131
    69  H    0.104777
    70  H   -0.013969
    71  H    0.021458
    72  H    0.023329
    73  H    0.017565
    74  H    0.058505
    75  H    0.007308
    76  H    0.037919
    77  H    0.016777
    78  H    0.022750
    79  H    0.053093
    80  H    0.227272
    81  H    0.198710
 Sum of Mulliken charges =  -0.00000

 Dipole moment (field-independent basis, Debye):
    X=              1.2876    Y=             -0.3999    Z=              0.8517  Tot=              1.5948
 Quadrupole moment (field-independent basis, Debye-Ang):
   XX=           -252.0328   YY=           -242.6972   ZZ=           -252.2556
   XY=             -8.6806   XZ=             15.6231   YZ=             12.1722

 Normal termination of Gaussian 16 at Tue Jul  2 18:11:15 2019.
