 Gaussian 16, Revision A.03,
 Gaussian 16:  ES64L-G16RevA.03 25-Dec-2016

 --------------------------
 # td=(NStates=1) B3LYP/SVP
 --------------------------

 --
 TD
 --
 Symbolic Z-matrix:
 Charge =  0 Multiplicity = 1

                         Standard orientation:
 ---------------------------------------------------------------------
 Center     Atomic      Atomic             Coordinates (Angstroms)
 Number     Number       Type             X           Y           Z
 ---------------------------------------------------------------------
      1          8           0       -4.611656   -4.565880    2.036801
      2          8           0        2.898565   -4.867284    1.334044
      3          8           0        7.193823   -1.675055    1.633561
      4          8           0        3.731182   -3.129816    0.146999
      5          8           0        7.509255   -0.651392   -0.286099
      6          8           0       -2.919521    2.485019   -0.278879
      7          7           0       -0.295016   -0.585381   -0.567499
      8          7           0        1.505022    1.873690   -0.278238
      9          7           0       -3.466294   -3.079267    0.615746
     10          7           0       -0.767144    2.966935   -0.126505
     11          6           0        0.632701   -2.438270   -1.334252
     12          6           0        0.932597   -1.173985   -0.916021
     13          6           0       -0.772176   -2.787240   -1.210525
     14          6           0       -1.260170   -1.463495   -0.771217
     15          6           0        3.764547    1.441263   -0.277657
     16          6           0        2.459582    0.826969   -0.516235
     17          6           0        2.231795   -0.563204   -0.770822
     18          6           0        3.636851    2.715373    0.058404
     19          6           0        1.680261   -3.492351   -1.828872
     20          6           0       -5.568859   -2.553072    1.332845
     21          6           0       -3.638842   -1.821550   -0.006191
     22          6           0        2.195676    2.974657   -0.015433
     23          6           0       -5.101602   -1.494262    0.380689
     24          6           0        5.096652    0.761703   -0.425103
     25          6           0       -2.693405   -1.111934   -0.530064
     26          6           0       -1.501931   -3.865131   -1.733058
     27          6           0       -4.522395   -3.542092    1.390614
     28          6           0        2.061647   -4.627271   -0.788034
     29          6           0        5.442081   -0.120489    0.832028
     30          6           0        4.604528    3.832601    0.342644
     31          6           0        1.303878    4.039594    0.292503
     32          6           0       -7.029197   -3.162525    0.942147
     33          6           0       -5.832636   -0.538856   -0.282294
     34          6           0       -0.068947    4.081620    0.121333
     35          6           0       -0.950128    5.198325    0.434045
     36          6           0       -2.122340    4.755356    0.344417
     37          6           0        2.973174   -4.072598    0.193807
     38          6           0       -5.472076    0.418982   -1.266114
     39          6           0        6.838528   -0.829884    0.695740
     40          6           0       -3.429848    5.443761    0.505666
     41          6           0       -2.051399    3.315257   -0.141452
     42          6           0       -0.421449    6.546104    0.856589
     43          6           0       -4.313999    5.517279   -0.759778
     44          1           0       -0.595183    0.260575    0.031235
     45          1           0        2.993923   -1.151129   -1.155974
     46          1           0        2.491705   -3.060790   -2.142180
     47          1           0        1.356495   -4.081299   -2.676872
     48          1           0       -5.634943   -2.090151    2.397943
     49          1           0        5.121402    0.050683   -1.330219
     50          1           0        5.764861    1.561988   -0.477287
     51          1           0       -2.903102   -0.004694   -0.680099
     52          1           0        0.435393    1.907874   -0.593037
     53          1           0       -1.537259   -4.728935   -1.062627
     54          1           0       -2.637766   -3.680062   -1.805703
     55          1           0       -1.142916   -4.151991   -2.495762
     56          1           0       -2.722469   -3.749376    0.509444
     57          1           0        1.143613   -5.185210   -0.539228
     58          1           0        2.566756   -5.417591   -1.089778
     59          1           0        4.758675   -0.978806    1.053769
     60          1           0        5.478187    0.419097    1.644236
     61          1           0        4.157941    4.722786   -0.368586
     62          1           0        5.635040    3.516476    0.267331
     63          1           0        4.494410    4.145109    1.328968
     64          1           0        1.849713    5.121839    0.569649
     65          1           0       -7.920990   -2.402359    1.094137
     66          1           0       -7.516717   -4.107020    1.511494
     67          1           0       -6.945940   -3.464627   -0.095591
     68          1           0       -6.908646   -0.667584    0.087382
     69          1           0       -4.797849    1.374296   -0.891589
     70          1           0       -6.257251    0.845400   -1.817087
     71          1           0       -4.538292    0.043058   -1.943509
     72          1           0       -3.395334    6.369575    0.940851
     73          1           0       -3.885804    4.746642    1.177543
     74          1           0        0.443592    6.578558    1.713387
     75          1           0       -1.261420    7.353007    1.334180
     76          1           0        0.118095    7.153141    0.065740
     77          1           0       -3.799979    6.278413   -1.597544
     78          1           0       -5.215828    6.128880   -0.435282
     79          1           0       -4.508199    4.544206   -1.263055
     80          1           0        3.274298   -4.455262    2.165870
     81          1           0        8.174045   -2.005095    1.469796
 ---------------------------------------------------------------------

 SCF Done:  E(RB3LYP) =  -1949.05049708     A.U. after   16 cycles

 Excitation energies and oscillator strengths:

 Excited State   1:      Singlet-A      2.0944 eV  591.97 nm  f=0.3888  <S**2>=0.000
     156 ->157         0.70544
     156 <-157        -0.10299
 This state for optimization and/or second-order correction.
 Total Energy, E(TD-HF/TD-DFT) =  -1948.97352867
 Copying the excited state density for this state as the 1-particle RhoCI density.

 The electronic state is 1-A.
 Alpha  occ. eigenvalues --  -19.18952 -19.17593 -19.14549 -19.11304 -19.10175
 Alpha  occ. eigenvalues --  -19.09733 -14.38629 -14.36449 -14.35873 -14.28179
 Alpha  occ. eigenvalues --  -10.33378 -10.31290 -10.28168 -10.25564 -10.24138
 Alpha  occ. eigenvalues --  -10.23981 -10.23952 -10.23662 -10.23156 -10.22077
 Alpha  occ. eigenvalues --  -10.21939 -10.21813 -10.20912 -10.20847 -10.20782
 Alpha  occ. eigenvalues --  -10.20754 -10.20413 -10.20254 -10.20193 -10.20152
 Alpha  occ. eigenvalues --  -10.20077 -10.20011 -10.19889 -10.19748 -10.19611
 Alpha  occ. eigenvalues --  -10.19386 -10.19347 -10.18855 -10.18661 -10.18498
 Alpha  occ. eigenvalues --  -10.18424 -10.17600 -10.17574  -1.10054  -1.08968
 Alpha  occ. eigenvalues --   -1.02956  -1.02296  -1.00617  -0.99897  -0.99190
 Alpha  occ. eigenvalues --   -0.97849  -0.94685  -0.93389  -0.83117  -0.82851
 Alpha  occ. eigenvalues --   -0.81092  -0.80947  -0.80687  -0.79861  -0.78560
 Alpha  occ. eigenvalues --   -0.77149  -0.76615  -0.75090  -0.74731  -0.73409
 Alpha  occ. eigenvalues --   -0.71760  -0.69651  -0.69172  -0.68328  -0.67579
 Alpha  occ. eigenvalues --   -0.67098  -0.65429  -0.64723  -0.61993  -0.61429
 Alpha  occ. eigenvalues --   -0.60609  -0.60300  -0.58822  -0.57424  -0.57306
 Alpha  occ. eigenvalues --   -0.56214  -0.55491  -0.55229  -0.53961  -0.53430
 Alpha  occ. eigenvalues --   -0.53094  -0.52661  -0.51734  -0.50341  -0.49541
 Alpha  occ. eigenvalues --   -0.49424  -0.49186  -0.48444  -0.47819  -0.47545
 Alpha  occ. eigenvalues --   -0.47322  -0.47116  -0.46582  -0.46120  -0.45339
 Alpha  occ. eigenvalues --   -0.44966  -0.44706  -0.44523  -0.44113  -0.44035
 Alpha  occ. eigenvalues --   -0.43351  -0.43191  -0.42645  -0.42330  -0.42198
 Alpha  occ. eigenvalues --   -0.41599  -0.41571  -0.41150  -0.40853  -0.40727
 Alpha  occ. eigenvalues --   -0.40561  -0.40199  -0.40090  -0.39697  -0.39465
 Alpha  occ. eigenvalues --   -0.39292  -0.39169  -0.38993  -0.38390  -0.38316
 Alpha  occ. eigenvalues --   -0.37683  -0.37394  -0.37181  -0.37063  -0.36507
 Alpha  occ. eigenvalues --   -0.36194  -0.35883  -0.35647  -0.35538  -0.34932
 Alpha  occ. eigenvalues --   -0.34572  -0.34126  -0.33284  -0.33111  -0.32766
 Alpha  occ. eigenvalues --   -0.31977  -0.31836  -0.31621  -0.30315  -0.29686
 Alpha  occ. eigenvalues --   -0.27602  -0.27201  -0.26506  -0.25798  -0.25716
 Alpha  occ. eigenvalues --   -0.25081  -0.24679  -0.24254  -0.23670  -0.21764
 Alpha  occ. eigenvalues --   -0.18292
 Alpha virt. eigenvalues --   -0.09946  -0.04782  -0.02969  -0.01325  -0.00135
 Alpha virt. eigenvalues --    0.02011   0.02249   0.02790   0.03296   0.03520
 Alpha virt. eigenvalues --    0.03958   0.04427   0.05172   0.05507   0.05713

 Mulliken charges:
               1
     1  O   -0.216507
     2  O   -0.256078
     3  O   -0.192733
     4  O   -0.207223
     5  O   -0.237570
     6  O   -0.201575
     7  N   -0.075290
     8  N   -0.153085
     9  N   -0.156717
    10  N   -0.260860
    11  C   -0.117821
    12  C    0.065025
    13  C   -0.152315
    14  C   -0.014157
    15  C   -0.126800
    16  C    0.095718
    17  C    0.009118
    18  C   -0.116078
    19  C    0.185836
    20  C   -0.001228
    21  C    0.166963
    22  C    0.064076
    23  C   -0.087446
    24  C    0.154002
    25  C   -0.159902
    26  C    0.233035
    27  C    0.096752
    28  C    0.073687
    29  C    0.039142
    30  C    0.137703
    31  C   -0.170977
    32  C   -0.031175
    33  C   -0.081616
    34  C    0.071868
    35  C    0.014332
    36  C   -0.227402
    37  C    0.156302
    38  C   -0.000807
    39  C    0.103853
    40  C    0.172467
    41  C    0.114065
    42  C   -0.040279
    43  C   -0.068077
    44  H    0.186602
    45  H   -0.025348
    46  H   -0.054377
    47  H   -0.013325
    48  H    0.063664
    49  H    0.036106
    50  H   -0.017010
    51  H    0.034524
    52  H    0.195047
    53  H    0.000513
    54  H    0.033482
    55  H   -0.093490
    56  H    0.115185
    57  H    0.028407
    58  H   -0.009534
    59  H    0.052192
    60  H   -0.030290
    61  H    0.057681
    62  H    0.008737
    63  H    0.005928
    64  H   -0.003262
    65  H    0.038663
    66  H    0.049466
    67  H    0.021876
    68  H   -0.005923
    69  H    0.101686
    70  H    0.007268
    71  H    0.038961
    72  H   -0.041341
    73  H   -0.000949
    74  H    0.040104
    75  H    0.036829
    76  H    0.032726
    77  H    0.013506
    78  H    0.021847
    79  H    0.053561
    80  H    0.199363
    81  H    0.220696
 Sum of Mulliken charges =  -0.00000

 Dipole moment (field-independent basis, Debye):
    X=              3.2771    Y=              0.2564    Z=              0.2266  Tot=              3.2949
 Quadrupole moment (field-independent basis, Debye-Ang):
   XX=           -248.8518   YY=           -239.0024   ZZ=           -254.7314
   XY=            -13.7241   XZ=             20.5398   YZ=             16.2855

 Normal termination of Gaussian 16 at Wed Jul  3 21:06:25 2019.
