 Gaussian 16, Revision A.03,
 Gaussian 16:  ES64L-G16RevA.03 25-Dec-2016

 --------------------------
 # td=(NStates=1) B3LYP/SVP
 --------------------------

 --
 TD
 --
 Symbolic Z-matrix:
 Charge =  0 Multiplicity = 1

                         Standard orientation:
 ---------------------------------------------------------------------
 Center     Atomic      Atomic             Coordinates (Angstroms)
 Number     Number       Type             X           Y           Z
 ---------------------------------------------------------------------
      1          8           0       -4.677002   -4.766977    1.886064
      2          8           0        3.054926   -4.675391    1.421201
      3          8           0        7.115132   -1.276430    1.869674
      4          8           0        3.965168   -3.101996    0.141737
      5          8           0        7.530844   -0.691731   -0.315252
      6          8           0       -3.160520    2.361019   -0.040352
      7          7           0       -0.287683   -0.523431   -0.617444
      8          7           0        1.489255    1.780309   -0.459944
      9          7           0       -3.447407   -3.224912    0.671999
     10          7           0       -0.836420    2.872564   -0.145899
     11          6           0        0.709165   -2.562911   -1.309889
     12          6           0        1.016086   -1.130329   -0.957197
     13          6           0       -0.672366   -2.691684   -1.194081
     14          6           0       -1.292750   -1.498902   -0.711490
     15          6           0        3.732033    1.454791   -0.410467
     16          6           0        2.529354    0.872489   -0.706728
     17          6           0        2.247943   -0.473568   -0.871762
     18          6           0        3.568856    2.786327    0.011522
     19          6           0        1.735567   -3.537403   -1.743077
     20          6           0       -5.667295   -2.624485    1.228092
     21          6           0       -3.665840   -1.935119    0.079447
     22          6           0        2.117824    2.939797   -0.065654
     23          6           0       -5.093825   -1.644541    0.302479
     24          6           0        5.103270    0.807570   -0.478534
     25          6           0       -2.737753   -1.103913   -0.384739
     26          6           0       -1.400518   -3.834475   -1.656826
     27          6           0       -4.566346   -3.684616    1.312454
     28          6           0        2.147337   -4.553342   -0.714200
     29          6           0        5.409368   -0.121122    0.709255
     30          6           0        4.562402    3.786507    0.347320
     31          6           0        1.286422    4.046423    0.192548
     32          6           0       -7.071532   -3.127197    0.782435
     33          6           0       -5.760149   -0.555272   -0.213834
     34          6           0       -0.087069    3.881757    0.198505
     35          6           0       -0.990106    5.123685    0.493630
     36          6           0       -2.303260    4.657687    0.435803
     37          6           0        3.133709   -3.990875    0.309831
     38          6           0       -5.360733    0.506004   -1.303962
     39          6           0        6.811530   -0.699468    0.666248
     40          6           0       -3.563323    5.342679    0.592553
     41          6           0       -2.190077    3.172735    0.038109
     42          6           0       -0.520203    6.469075    0.855656
     43          6           0       -4.114944    5.877175   -0.821875
     44          1           0       -0.417137    0.354093   -0.202513
     45          1           0        3.031682   -1.315643   -1.036232
     46          1           0        2.672552   -2.927587   -2.351931
     47          1           0        1.324882   -4.242879   -2.552479
     48          1           0       -5.774827   -2.413054    2.229555
     49          1           0        5.085319    0.172526   -1.407249
     50          1           0        5.862179    1.616833   -0.516314
     51          1           0       -2.720027    0.045558   -0.579857
     52          1           0        0.334117    1.647648   -0.477107
     53          1           0       -0.947225   -4.821690   -0.960336
     54          1           0       -2.590777   -3.804126   -1.478584
     55          1           0       -1.408600   -4.167010   -2.754672
     56          1           0       -2.384794   -3.491518    0.776939
     57          1           0        1.299791   -4.883278   -0.371879
     58          1           0        2.702883   -5.343418   -1.373249
     59          1           0        4.710413   -1.090350    0.902209
     60          1           0        5.471852    0.420314    1.570697
     61          1           0        4.435143    4.571665   -0.289740
     62          1           0        5.506053    3.405125    0.256752
     63          1           0        4.361860    4.250126    1.472893
     64          1           0        1.841720    4.956413    0.561221
     65          1           0       -7.928791   -2.249544    0.803421
     66          1           0       -7.335191   -4.143317    1.352231
     67          1           0       -7.025166   -3.357339   -0.441557
     68          1           0       -6.874800   -0.241018    0.261234
     69          1           0       -4.997025    1.355161   -0.819111
     70          1           0       -6.241469    0.729215   -1.966585
     71          1           0       -4.626352    0.065169   -2.062643
     72          1           0       -3.405088    6.324216    1.175115
     73          1           0       -4.484371    4.949764    1.080089
     74          1           0       -0.003882    6.538095    1.862638
     75          1           0       -1.279115    7.241185    1.034062
     76          1           0        0.027706    7.007616   -0.028000
     77          1           0       -3.683948    6.673274   -1.272784
     78          1           0       -5.228683    6.194898   -0.625107
     79          1           0       -4.345080    5.082972   -1.615483
     80          1           0        3.760156   -4.208466    2.029321
     81          1           0        7.904771   -1.754161    1.900059
 ---------------------------------------------------------------------

 SCF Done:  E(RB3LYP) =  -1949.09910987     A.U. after   17 cycles

 Excitation energies and oscillator strengths:

 Excited State   1:      Singlet-A      1.9611 eV  632.22 nm  f=0.4260  <S**2>=0.000
     156 ->157         0.70818
     156 <-157        -0.12016
 This state for optimization and/or second-order correction.
 Total Energy, E(TD-HF/TD-DFT) =  -1949.02704139
 Copying the excited state density for this state as the 1-particle RhoCI density.

 The electronic state is 1-A.
 Alpha  occ. eigenvalues --  -19.21498 -19.17747 -19.15019 -19.12398 -19.10596
 Alpha  occ. eigenvalues --  -19.10422 -14.38425 -14.38200 -14.35486 -14.29808
 Alpha  occ. eigenvalues --  -10.34371 -10.31872 -10.29335 -10.27187 -10.25278
 Alpha  occ. eigenvalues --  -10.24743 -10.24533 -10.23514 -10.23104 -10.22794
 Alpha  occ. eigenvalues --  -10.22502 -10.22334 -10.22217 -10.21803 -10.21791
 Alpha  occ. eigenvalues --  -10.21745 -10.21598 -10.20476 -10.20398 -10.20397
 Alpha  occ. eigenvalues --  -10.20210 -10.20092 -10.20054 -10.19950 -10.19927
 Alpha  occ. eigenvalues --  -10.19884 -10.19846 -10.19693 -10.19648 -10.18936
 Alpha  occ. eigenvalues --  -10.18442 -10.18150 -10.18091  -1.12940  -1.08864
 Alpha  occ. eigenvalues --   -1.02621  -1.02186  -1.00528  -0.99128  -0.97221
 Alpha  occ. eigenvalues --   -0.96044  -0.94798  -0.91827  -0.84065  -0.82138
 Alpha  occ. eigenvalues --   -0.81594  -0.81266  -0.79880  -0.79280  -0.78474
 Alpha  occ. eigenvalues --   -0.77496  -0.76366  -0.74408  -0.73224  -0.72600
 Alpha  occ. eigenvalues --   -0.71685  -0.69218  -0.68694  -0.68316  -0.67821
 Alpha  occ. eigenvalues --   -0.67035  -0.64930  -0.64107  -0.62238  -0.61902
 Alpha  occ. eigenvalues --   -0.61373  -0.60317  -0.58586  -0.57996  -0.57596
 Alpha  occ. eigenvalues --   -0.55935  -0.54914  -0.54405  -0.53422  -0.53109
 Alpha  occ. eigenvalues --   -0.52392  -0.51595  -0.51274  -0.51189  -0.50419
 Alpha  occ. eigenvalues --   -0.49679  -0.49152  -0.48685  -0.47567  -0.47134
 Alpha  occ. eigenvalues --   -0.46972  -0.46937  -0.46380  -0.46215  -0.45495
 Alpha  occ. eigenvalues --   -0.44629  -0.44420  -0.44166  -0.43800  -0.43585
 Alpha  occ. eigenvalues --   -0.43355  -0.43080  -0.42643  -0.42512  -0.42231
 Alpha  occ. eigenvalues --   -0.42023  -0.41770  -0.41376  -0.41001  -0.40704
 Alpha  occ. eigenvalues --   -0.40538  -0.39941  -0.39754  -0.39544  -0.39136
 Alpha  occ. eigenvalues --   -0.38847  -0.38681  -0.38373  -0.38289  -0.38007
 Alpha  occ. eigenvalues --   -0.37734  -0.37422  -0.36848  -0.36597  -0.36081
 Alpha  occ. eigenvalues --   -0.35887  -0.35779  -0.35447  -0.34971  -0.34594
 Alpha  occ. eigenvalues --   -0.34223  -0.33946  -0.33879  -0.33706  -0.33107
 Alpha  occ. eigenvalues --   -0.32696  -0.32484  -0.31881  -0.30716  -0.29884
 Alpha  occ. eigenvalues --   -0.27563  -0.27395  -0.26503  -0.25973  -0.25839
 Alpha  occ. eigenvalues --   -0.25067  -0.24549  -0.24110  -0.23033  -0.22059
 Alpha  occ. eigenvalues --   -0.18079
 Alpha virt. eigenvalues --   -0.10445  -0.06035  -0.04212  -0.02545  -0.00167
 Alpha virt. eigenvalues --    0.00439   0.01231   0.01603   0.02061   0.03389
 Alpha virt. eigenvalues --    0.03824   0.04516   0.05052   0.05200   0.05456

 Mulliken charges:
               1
     1  O   -0.225226
     2  O   -0.160139
     3  O   -0.187406
     4  O   -0.247099
     5  O   -0.225935
     6  O   -0.261084
     7  N   -0.132594
     8  N   -0.212790
     9  N   -0.165805
    10  N   -0.282859
    11  C   -0.029119
    12  C    0.021911
    13  C   -0.105041
    14  C    0.011127
    15  C   -0.110096
    16  C    0.167982
    17  C   -0.094309
    18  C   -0.135270
    19  C   -0.041036
    20  C    0.030075
    21  C    0.165465
    22  C    0.093229
    23  C    0.009841
    24  C    0.123452
    25  C   -0.112317
    26  C   -0.106608
    27  C    0.113712
    28  C    0.125891
    29  C   -0.005336
    30  C    0.173253
    31  C   -0.175850
    32  C   -0.080410
    33  C   -0.197638
    34  C    0.133869
    35  C   -0.100586
    36  C   -0.099888
    37  C    0.125267
    38  C    0.054927
    39  C    0.133091
    40  C    0.035616
    41  C    0.190266
    42  C    0.053319
    43  C   -0.029705
    44  H    0.099566
    45  H    0.041652
    46  H    0.060701
    47  H    0.015654
    48  H    0.020723
    49  H    0.023234
    50  H    0.012041
    51  H    0.073058
    52  H    0.215493
    53  H    0.031559
    54  H    0.059901
    55  H    0.055389
    56  H    0.175626
    57  H   -0.032942
    58  H    0.067822
    59  H    0.089708
    60  H   -0.012602
    61  H    0.003924
    62  H   -0.021196
    63  H    0.037165
    64  H   -0.013581
    65  H    0.049261
    66  H    0.063620
    67  H    0.029696
    68  H    0.033854
    69  H    0.055816
    70  H    0.012437
    71  H    0.027849
    72  H    0.000374
    73  H    0.023733
    74  H    0.036399
    75  H   -0.005803
    76  H    0.035979
    77  H   -0.003236
    78  H   -0.000085
    79  H    0.028164
    80  H    0.213900
    81  H    0.157000
 Sum of Mulliken charges =  -0.00000

 Dipole moment (field-independent basis, Debye):
    X=              3.5024    Y=              0.2050    Z=              0.9507  Tot=              3.6349
 Quadrupole moment (field-independent basis, Debye-Ang):
   XX=           -259.6161   YY=           -240.4918   ZZ=           -254.2483
   XY=            -20.0539   XZ=             21.7944   YZ=             12.1561

 Normal termination of Gaussian 16 at Thu Jun 27 13:48:26 2019.
