 Gaussian 16, Revision A.03,
 Gaussian 16:  ES64L-G16RevA.03 25-Dec-2016

 --------------------------
 # td=(NStates=1) B3LYP/SVP
 --------------------------

 --
 TD
 --
 Symbolic Z-matrix:
 Charge =  0 Multiplicity = 1

                         Standard orientation:
 ---------------------------------------------------------------------
 Center     Atomic      Atomic             Coordinates (Angstroms)
 Number     Number       Type             X           Y           Z
 ---------------------------------------------------------------------
      1          8           0       -4.453994   -4.807958    1.958544
      2          8           0        2.964070   -4.573748    1.485424
      3          8           0        7.190344   -1.532075    1.731467
      4          8           0        3.834943   -2.879969    0.180068
      5          8           0        7.505505   -0.861225   -0.456925
      6          8           0       -3.050342    2.479181   -0.413470
      7          7           0       -0.349634   -0.638225   -0.566482
      8          7           0        1.555976    1.889101   -0.347691
      9          7           0       -3.453728   -3.314720    0.595129
     10          7           0       -0.838619    2.893266   -0.114659
     11          6           0        0.680274   -2.413738   -1.329587
     12          6           0        0.921020   -1.081713   -0.946584
     13          6           0       -0.653594   -2.759110   -1.236318
     14          6           0       -1.271884   -1.568773   -0.777449
     15          6           0        3.886631    1.584137   -0.242215
     16          6           0        2.540857    0.895515   -0.551409
     17          6           0        2.185333   -0.412522   -0.806428
     18          6           0        3.476722    2.925514    0.002644
     19          6           0        1.837941   -3.344677   -1.879376
     20          6           0       -5.538690   -2.604017    1.316098
     21          6           0       -3.616548   -2.003878    0.117955
     22          6           0        2.089208    3.105077    0.082509
     23          6           0       -4.974977   -1.619165    0.281072
     24          6           0        5.174464    0.922685   -0.406935
     25          6           0       -2.673737   -1.148887   -0.503697
     26          6           0       -1.264771   -4.061259   -1.818231
     27          6           0       -4.487966   -3.799325    1.402147
     28          6           0        2.280863   -4.428452   -0.859664
     29          6           0        5.559481    0.011617    0.827269
     30          6           0        4.540200    3.921643    0.418341
     31          6           0        1.228649    4.163559    0.318086
     32          6           0       -6.958200   -3.305861    1.106812
     33          6           0       -5.796724   -0.729853   -0.266989
     34          6           0       -0.223146    4.066141    0.206745
     35          6           0       -1.134912    5.134222    0.494996
     36          6           0       -2.406717    4.691829    0.293585
     37          6           0        3.119585   -3.909715    0.345151
     38          6           0       -5.440187    0.246774   -1.452280
     39          6           0        6.885398   -0.828870    0.576085
     40          6           0       -3.622645    5.256132    0.474235
     41          6           0       -2.203626    3.320012   -0.143409
     42          6           0       -0.788197    6.553104    1.015918
     43          6           0       -4.493276    5.562187   -0.778448
     44          1           0       -0.583672    0.238527   -0.293685
     45          1           0        3.009075   -1.164601   -0.979199
     46          1           0        2.728786   -2.798411   -1.997038
     47          1           0        1.400107   -3.632944   -2.940990
     48          1           0       -5.430631   -2.052713    2.410101
     49          1           0        4.983304    0.294011   -1.345770
     50          1           0        5.974452    1.670720   -0.368057
     51          1           0       -2.845763   -0.087929   -0.539689
     52          1           0        0.549377    1.869845   -0.463737
     53          1           0       -1.688574   -4.607461   -0.887851
     54          1           0       -2.213340   -3.821097   -1.892849
     55          1           0       -0.784890   -4.473070   -2.642139
     56          1           0       -2.577534   -3.975681    0.399786
     57          1           0        1.291959   -4.875366   -0.410023
     58          1           0        2.941105   -5.007295   -1.509897
     59          1           0        4.783496   -0.851194    1.115763
     60          1           0        5.761971    0.607564    1.866590
     61          1           0        4.338867    4.934999    0.115707
     62          1           0        5.620176    3.625762   -0.250044
     63          1           0        4.988467    4.029271    1.540436
     64          1           0        1.830728    5.112960    0.562216
     65          1           0       -7.830650   -2.578006    1.121494
     66          1           0       -7.046281   -4.108528    1.720649
     67          1           0       -6.940519   -3.899557    0.331416
     68          1           0       -6.776911   -0.717410    0.198233
     69          1           0       -4.802946    1.149525   -1.064932
     70          1           0       -6.386618    0.479339   -1.966235
     71          1           0       -4.760141   -0.099313   -2.107276
     72          1           0       -3.703446    6.417793    0.818381
     73          1           0       -4.393760    4.665376    1.111932
     74          1           0       -0.296272    6.334153    1.910157
     75          1           0       -1.769405    7.103912    1.209721
     76          1           0       -0.023662    6.978828    0.258780
     77          1           0       -3.958144    6.416660   -1.313395
     78          1           0       -5.598562    6.015382   -0.635251
     79          1           0       -4.673847    4.709427   -1.365418
     80          1           0        3.433201   -4.243368    2.241026
     81          1           0        7.987347   -2.101709    1.512369
 ---------------------------------------------------------------------

 SCF Done:  E(RB3LYP) =  -1949.06425069     A.U. after   17 cycles

 Excitation energies and oscillator strengths:

 Excited State   1:      Singlet-A      1.8458 eV  671.71 nm  f=0.3477  <S**2>=0.000
     156 ->157         0.70907
     156 <-157        -0.12127
 This state for optimization and/or second-order correction.
 Total Energy, E(TD-HF/TD-DFT) =  -1948.99641878
 Copying the excited state density for this state as the 1-particle RhoCI density.

 The electronic state is 1-A.
 Alpha  occ. eigenvalues --  -19.21426 -19.18281 -19.14328 -19.13274 -19.12471
 Alpha  occ. eigenvalues --  -19.10131 -14.37540 -14.36952 -14.34669 -14.28805
 Alpha  occ. eigenvalues --  -10.34985 -10.32310 -10.29508 -10.26016 -10.24641
 Alpha  occ. eigenvalues --  -10.23477 -10.23306 -10.23290 -10.22904 -10.22835
 Alpha  occ. eigenvalues --  -10.22538 -10.22519 -10.21797 -10.21606 -10.21598
 Alpha  occ. eigenvalues --  -10.21323 -10.21211 -10.21176 -10.20316 -10.20081
 Alpha  occ. eigenvalues --  -10.19999 -10.19917 -10.19761 -10.19618 -10.19426
 Alpha  occ. eigenvalues --  -10.19325 -10.19311 -10.19297 -10.19168 -10.18556
 Alpha  occ. eigenvalues --  -10.18095 -10.17604 -10.17482  -1.11821  -1.08198
 Alpha  occ. eigenvalues --   -1.07486  -1.01354  -1.00953  -1.00573  -0.99399
 Alpha  occ. eigenvalues --   -0.95864  -0.94953  -0.91266  -0.82217  -0.81664
 Alpha  occ. eigenvalues --   -0.80965  -0.80894  -0.80371  -0.78458  -0.77500
 Alpha  occ. eigenvalues --   -0.75880  -0.75423  -0.74986  -0.73440  -0.73043
 Alpha  occ. eigenvalues --   -0.70668  -0.69889  -0.69765  -0.69090  -0.67979
 Alpha  occ. eigenvalues --   -0.66945  -0.65013  -0.64554  -0.63363  -0.62735
 Alpha  occ. eigenvalues --   -0.61293  -0.58740  -0.58430  -0.58067  -0.57199
 Alpha  occ. eigenvalues --   -0.55206  -0.55039  -0.54107  -0.53369  -0.53258
 Alpha  occ. eigenvalues --   -0.52291  -0.51077  -0.50555  -0.50169  -0.49381
 Alpha  occ. eigenvalues --   -0.49126  -0.49040  -0.48270  -0.47794  -0.47675
 Alpha  occ. eigenvalues --   -0.47252  -0.46933  -0.45812  -0.45720  -0.45563
 Alpha  occ. eigenvalues --   -0.45219  -0.44925  -0.44478  -0.44362  -0.43970
 Alpha  occ. eigenvalues --   -0.43658  -0.43027  -0.42877  -0.42545  -0.42319
 Alpha  occ. eigenvalues --   -0.42030  -0.41598  -0.41265  -0.40767  -0.40718
 Alpha  occ. eigenvalues --   -0.40118  -0.40040  -0.39822  -0.39464  -0.39257
 Alpha  occ. eigenvalues --   -0.39062  -0.38551  -0.38363  -0.38280  -0.37891
 Alpha  occ. eigenvalues --   -0.37814  -0.37428  -0.37287  -0.36898  -0.36875
 Alpha  occ. eigenvalues --   -0.36175  -0.35931  -0.35382  -0.34968  -0.34672
 Alpha  occ. eigenvalues --   -0.34206  -0.33818  -0.33544  -0.32987  -0.32820
 Alpha  occ. eigenvalues --   -0.32670  -0.32644  -0.32150  -0.29793  -0.29137
 Alpha  occ. eigenvalues --   -0.28333  -0.28074  -0.27078  -0.26184  -0.25531
 Alpha  occ. eigenvalues --   -0.24809  -0.24356  -0.24112  -0.22856  -0.21175
 Alpha  occ. eigenvalues --   -0.17476
 Alpha virt. eigenvalues --   -0.10212  -0.06033  -0.04017  -0.02821   0.00504
 Alpha virt. eigenvalues --    0.01005   0.01579   0.02158   0.03093   0.03563
 Alpha virt. eigenvalues --    0.04135   0.04444   0.04976   0.05310   0.05825

 Mulliken charges:
               1
     1  O   -0.131725
     2  O   -0.135408
     3  O   -0.232403
     4  O   -0.275534
     5  O   -0.211951
     6  O   -0.198174
     7  N    0.014951
     8  N   -0.131403
     9  N   -0.209861
    10  N   -0.316588
    11  C   -0.158618
    12  C    0.048093
    13  C   -0.223782
    14  C    0.023006
    15  C   -0.056428
    16  C    0.081270
    17  C   -0.058762
    18  C   -0.083237
    19  C    0.069594
    20  C   -0.189439
    21  C    0.129036
    22  C    0.096989
    23  C    0.020117
    24  C    0.148068
    25  C   -0.095224
    26  C    0.292117
    27  C    0.117800
    28  C    0.022503
    29  C   -0.141056
    30  C   -0.040676
    31  C   -0.138205
    32  C    0.159743
    33  C   -0.120918
    34  C    0.116133
    35  C   -0.158176
    36  C   -0.006604
    37  C    0.155207
    38  C    0.064467
    39  C    0.170452
    40  C   -0.075753
    41  C    0.133465
    42  C    0.134176
    43  C   -0.051979
    44  H    0.082947
    45  H    0.026812
    46  H   -0.009505
    47  H    0.042982
    48  H    0.063967
    49  H    0.056286
    50  H    0.007099
    51  H    0.010544
    52  H    0.119924
    53  H   -0.034248
    54  H   -0.062995
    55  H    0.027039
    56  H    0.162995
    57  H    0.056598
    58  H    0.049577
    59  H    0.082450
    60  H    0.057684
    61  H    0.013716
    62  H    0.028200
    63  H    0.053971
    64  H   -0.014923
    65  H    0.037735
    66  H   -0.012853
    67  H   -0.047668
    68  H   -0.015611
    69  H    0.087019
    70  H    0.015107
    71  H   -0.016358
    72  H    0.021239
    73  H    0.035963
    74  H    0.010893
    75  H    0.030554
    76  H    0.042286
    77  H    0.012865
    78  H    0.018969
    79  H    0.021991
    80  H    0.190358
    81  H    0.191111
 Sum of Mulliken charges =  -0.00000

 Dipole moment (field-independent basis, Debye):
    X=              2.2246    Y=             -1.2177    Z=              1.1455  Tot=              2.7827
 Quadrupole moment (field-independent basis, Debye-Ang):
   XX=           -249.3424   YY=           -234.7214   ZZ=           -254.7544
   XY=            -14.6345   XZ=             17.6949   YZ=             11.4432

 Normal termination of Gaussian 16 at Fri Jul  5 17:12:23 2019.
