 Gaussian 16, Revision A.03,
 Gaussian 16:  ES64L-G16RevA.03 25-Dec-2016

 --------------------------
 # td=(NStates=1) B3LYP/SVP
 --------------------------

 --
 TD
 --
 Symbolic Z-matrix:
 Charge =  0 Multiplicity = 1

                         Standard orientation:
 ---------------------------------------------------------------------
 Center     Atomic      Atomic             Coordinates (Angstroms)
 Number     Number       Type             X           Y           Z
 ---------------------------------------------------------------------
      1          8           0       -4.595508   -4.714667    1.729246
      2          8           0        3.078597   -4.951205    1.160737
      3          8           0        6.930477   -1.451805    1.982721
      4          8           0        3.989223   -3.365597   -0.190944
      5          8           0        7.759062   -0.343996    0.190157
      6          8           0       -2.996972    2.589431   -0.227567
      7          7           0       -0.358947   -0.611983   -0.532523
      8          7           0        1.506413    1.868917   -0.428131
      9          7           0       -3.360635   -2.988909    0.700461
     10          7           0       -0.713730    2.946221   -0.041012
     11          6           0        0.595860   -2.472258   -1.352881
     12          6           0        0.893651   -1.154937   -0.868273
     13          6           0       -0.765446   -2.624327   -1.265084
     14          6           0       -1.331508   -1.473098   -0.697182
     15          6           0        3.764377    1.352491   -0.321324
     16          6           0        2.459490    0.811271   -0.575428
     17          6           0        2.192203   -0.525379   -0.787359
     18          6           0        3.591538    2.714792   -0.043685
     19          6           0        1.455249   -3.597688   -1.893735
     20          6           0       -5.603695   -2.555279    1.439794
     21          6           0       -3.614439   -1.788732    0.133330
     22          6           0        2.123656    3.029672   -0.122995
     23          6           0       -5.077727   -1.546256    0.413357
     24          6           0        5.019168    0.630502   -0.401809
     25          6           0       -2.701986   -0.961962   -0.539860
     26          6           0       -1.589141   -3.819223   -1.771386
     27          6           0       -4.523133   -3.632376    1.339048
     28          6           0        1.988515   -4.582996   -0.974966
     29          6           0        5.228321   -0.408539    0.691298
     30          6           0        4.548707    3.759124    0.398234
     31          6           0        1.396633    4.109211    0.255471
     32          6           0       -7.005589   -3.065508    1.258896
     33          6           0       -5.816450   -0.534801   -0.113974
     34          6           0       -0.023444    4.102879    0.129059
     35          6           0       -0.882481    5.233414    0.433304
     36          6           0       -2.132385    4.840076    0.335241
     37          6           0        3.115829   -4.193923    0.015418
     38          6           0       -5.374018    0.364568   -1.173294
     39          6           0        6.798301   -0.620937    0.904523
     40          6           0       -3.483590    5.435668    0.450774
     41          6           0       -2.040434    3.283091   -0.032772
     42          6           0       -0.408632    6.599637    0.595708
     43          6           0       -4.246175    5.469469   -0.882412
     44          1           0       -0.544037    0.403084   -0.352370
     45          1           0        3.007228   -1.311791   -0.830907
     46          1           0        2.362123   -3.125222   -2.555119
     47          1           0        1.045825   -4.164850   -2.665900
     48          1           0       -5.375311   -2.018120    2.479415
     49          1           0        5.258530   -0.001600   -1.280167
     50          1           0        5.888447    1.284818   -0.590354
     51          1           0       -2.998898    0.005857   -0.633410
     52          1           0        0.532290    1.683787   -0.569284
     53          1           0       -1.580914   -4.643884   -1.143687
     54          1           0       -2.658308   -3.680477   -1.859371
     55          1           0       -1.158213   -4.081473   -2.780818
     56          1           0       -2.536232   -3.499420    0.720057
     57          1           0        1.269702   -5.154734   -0.505443
     58          1           0        2.545325   -5.218907   -1.470800
     59          1           0        4.684935   -1.448584    0.591264
     60          1           0        4.731760    0.031193    1.701460
     61          1           0        4.051800    4.710555   -0.069242
     62          1           0        5.544300    3.415981    0.233959
     63          1           0        4.590543    3.939635    1.419712
     64          1           0        1.818034    5.116124    0.468490
     65          1           0       -7.783778   -2.359761    1.634426
     66          1           0       -7.169464   -3.869016    2.157034
     67          1           0       -7.339905   -3.617903    0.412989
     68          1           0       -6.839837   -0.350376    0.282061
     69          1           0       -4.926284    1.286469   -0.781219
     70          1           0       -6.302950    0.558407   -1.778926
     71          1           0       -4.815751    0.073301   -1.835248
     72          1           0       -3.407456    6.458647    0.867060
     73          1           0       -3.808061    4.722864    1.275067
     74          1           0        0.261873    6.680994    1.393781
     75          1           0       -1.119507    7.228647    1.290880
     76          1           0        0.142001    7.103394   -0.294886
     77          1           0       -3.662266    6.170733   -1.567685
     78          1           0       -5.196787    5.815199   -0.667722
     79          1           0       -4.243464    4.507129   -1.305820
     80          1           0        3.757133   -4.525758    1.671975
     81          1           0        7.837478   -1.787835    2.042171
 ---------------------------------------------------------------------

 SCF Done:  E(RB3LYP) =  -1949.13306043     A.U. after   16 cycles

 Excitation energies and oscillator strengths:

 Excited State   1:      Singlet-A      1.9704 eV  629.22 nm  f=0.3737  <S**2>=0.000
     156 ->157         0.70545
     156 <-157        -0.10348
 This state for optimization and/or second-order correction.
 Total Energy, E(TD-HF/TD-DFT) =  -1949.06064787
 Copying the excited state density for this state as the 1-particle RhoCI density.

 The electronic state is 1-A.
 Alpha  occ. eigenvalues --  -19.19961 -19.17760 -19.15321 -19.13414 -19.13405
 Alpha  occ. eigenvalues --  -19.10458 -14.37779 -14.36598 -14.35734 -14.28323
 Alpha  occ. eigenvalues --  -10.34309 -10.32714 -10.30166 -10.25910 -10.24375
 Alpha  occ. eigenvalues --  -10.23901 -10.22830 -10.22697 -10.22535 -10.22456
 Alpha  occ. eigenvalues --  -10.22025 -10.21921 -10.21396 -10.21199 -10.20283
 Alpha  occ. eigenvalues --  -10.20142 -10.20021 -10.19949 -10.19739 -10.19503
 Alpha  occ. eigenvalues --  -10.19469 -10.19407 -10.19176 -10.19069 -10.18973
 Alpha  occ. eigenvalues --  -10.18692 -10.18540 -10.18200 -10.17901 -10.17786
 Alpha  occ. eigenvalues --  -10.17760 -10.16957 -10.15655  -1.11437  -1.08593
 Alpha  occ. eigenvalues --   -1.08022  -1.02512  -1.02443  -0.99806  -0.99200
 Alpha  occ. eigenvalues --   -0.97116  -0.95846  -0.91642  -0.83680  -0.82450
 Alpha  occ. eigenvalues --   -0.81631  -0.80509  -0.79941  -0.79173  -0.78365
 Alpha  occ. eigenvalues --   -0.76930  -0.76632  -0.75628  -0.74247  -0.72249
 Alpha  occ. eigenvalues --   -0.71231  -0.69931  -0.69359  -0.68743  -0.67719
 Alpha  occ. eigenvalues --   -0.67329  -0.65582  -0.65011  -0.62903  -0.62087
 Alpha  occ. eigenvalues --   -0.61187  -0.59251  -0.58698  -0.57432  -0.57173
 Alpha  occ. eigenvalues --   -0.56212  -0.55428  -0.55350  -0.54346  -0.53242
 Alpha  occ. eigenvalues --   -0.52310  -0.52254  -0.50880  -0.50509  -0.50489
 Alpha  occ. eigenvalues --   -0.49630  -0.49223  -0.48357  -0.48299  -0.47616
 Alpha  occ. eigenvalues --   -0.46983  -0.46424  -0.45949  -0.45787  -0.45603
 Alpha  occ. eigenvalues --   -0.45328  -0.44934  -0.44554  -0.44398  -0.44350
 Alpha  occ. eigenvalues --   -0.44078  -0.43673  -0.43401  -0.43231  -0.43184
 Alpha  occ. eigenvalues --   -0.42348  -0.42046  -0.41839  -0.41604  -0.41100
 Alpha  occ. eigenvalues --   -0.40754  -0.40468  -0.40397  -0.40132  -0.39874
 Alpha  occ. eigenvalues --   -0.39498  -0.39198  -0.39031  -0.38728  -0.38621
 Alpha  occ. eigenvalues --   -0.38280  -0.37613  -0.37312  -0.37089  -0.36919
 Alpha  occ. eigenvalues --   -0.36617  -0.36242  -0.35991  -0.35866  -0.34811
 Alpha  occ. eigenvalues --   -0.34530  -0.34361  -0.34019  -0.33217  -0.32875
 Alpha  occ. eigenvalues --   -0.32665  -0.32315  -0.31697  -0.30235  -0.29888
 Alpha  occ. eigenvalues --   -0.28517  -0.27814  -0.27716  -0.26074  -0.25578
 Alpha  occ. eigenvalues --   -0.24944  -0.24255  -0.23417  -0.22855  -0.21327
 Alpha  occ. eigenvalues --   -0.17361
 Alpha virt. eigenvalues --   -0.09494  -0.04826  -0.02988  -0.02050  -0.00703
 Alpha virt. eigenvalues --   -0.00544   0.02502   0.03752   0.04476   0.04911
 Alpha virt. eigenvalues --    0.05157   0.05538   0.05992   0.06126   0.06349

 Mulliken charges:
               1
     1  O   -0.113611
     2  O   -0.167979
     3  O   -0.199192
     4  O   -0.231459
     5  O   -0.235408
     6  O   -0.187508
     7  N   -0.055519
     8  N   -0.076707
     9  N   -0.136313
    10  N   -0.306384
    11  C   -0.051707
    12  C   -0.007457
    13  C   -0.177872
    14  C    0.041560
    15  C   -0.023201
    16  C    0.120944
    17  C   -0.085297
    18  C   -0.165700
    19  C    0.082825
    20  C   -0.058367
    21  C    0.082605
    22  C    0.165046
    23  C   -0.058591
    24  C    0.081308
    25  C   -0.036561
    26  C    0.122202
    27  C    0.113149
    28  C    0.182143
    29  C   -0.139005
    30  C    0.144273
    31  C   -0.149476
    32  C    0.047622
    33  C   -0.175291
    34  C    0.056944
    35  C   -0.098011
    36  C   -0.196848
    37  C    0.103883
    38  C    0.183422
    39  C    0.169729
    40  C    0.055976
    41  C    0.125724
    42  C    0.104679
    43  C    0.060532
    44  H    0.148999
    45  H    0.028646
    46  H    0.018419
    47  H   -0.026940
    48  H    0.071997
    49  H    0.013618
    50  H    0.016367
    51  H   -0.047309
    52  H    0.115139
    53  H   -0.008239
    54  H    0.010566
    55  H    0.025611
    56  H    0.103220
    57  H   -0.006636
    58  H   -0.018556
    59  H    0.097930
    60  H    0.048638
    61  H    0.039920
    62  H   -0.002183
    63  H    0.002484
    64  H   -0.022133
    65  H    0.018235
    66  H    0.022283
    67  H    0.022043
    68  H   -0.005052
    69  H    0.071075
    70  H   -0.003652
    71  H   -0.071842
    72  H   -0.014103
    73  H    0.029780
    74  H   -0.022582
    75  H    0.003730
    76  H    0.049721
    77  H    0.017031
    78  H   -0.000825
    79  H    0.020299
    80  H    0.168143
    81  H    0.175059
 Sum of Mulliken charges =  -0.00000

 Dipole moment (field-independent basis, Debye):
    X=              0.6993    Y=             -1.2146    Z=              1.0457  Tot=              1.7486
 Quadrupole moment (field-independent basis, Debye-Ang):
   XX=           -254.7419   YY=           -236.8460   ZZ=           -250.9220
   XY=            -12.7087   XZ=             11.3116   YZ=             10.6821

 Normal termination of Gaussian 16 at Sun Jun 30 01:33:19 2019.
