 Gaussian 16, Revision A.03,
 Gaussian 16:  ES64L-G16RevA.03 25-Dec-2016

 --------------------------
 # td=(NStates=1) B3LYP/SVP
 --------------------------

 --
 TD
 --
 Symbolic Z-matrix:
 Charge =  0 Multiplicity = 1

                         Standard orientation:
 ---------------------------------------------------------------------
 Center     Atomic      Atomic             Coordinates (Angstroms)
 Number     Number       Type             X           Y           Z
 ---------------------------------------------------------------------
      1          8           0       -4.598442   -4.722845    1.916533
      2          8           0        2.997427   -5.108796    1.239820
      3          8           0        7.210945   -1.283312    1.891085
      4          8           0        3.496377   -3.212770    0.219163
      5          8           0        7.607295   -0.675016   -0.333723
      6          8           0       -3.058334    2.611660   -0.462154
      7          7           0       -0.227587   -0.627765   -0.550724
      8          7           0        1.486479    1.734486   -0.218767
      9          7           0       -3.491944   -3.198765    0.540831
     10          7           0       -0.796810    3.014632   -0.176734
     11          6           0        0.680233   -2.474683   -1.275336
     12          6           0        1.002881   -1.268095   -0.804929
     13          6           0       -0.739365   -2.743088   -1.384673
     14          6           0       -1.304823   -1.482158   -0.845276
     15          6           0        3.734609    1.393381   -0.347611
     16          6           0        2.441614    0.799699   -0.495298
     17          6           0        2.267343   -0.545359   -0.773560
     18          6           0        3.549680    2.670671    0.056662
     19          6           0        1.608891   -3.497202   -1.760035
     20          6           0       -5.628831   -2.593357    1.355188
     21          6           0       -3.564977   -1.921032    0.132309
     22          6           0        2.140094    2.946799    0.023717
     23          6           0       -5.041977   -1.638453    0.395666
     24          6           0        5.080400    0.761315   -0.470598
     25          6           0       -2.685364   -1.185724   -0.490198
     26          6           0       -1.506247   -3.816711   -1.867867
     27          6           0       -4.550431   -3.705514    1.420853
     28          6           0        1.920871   -4.682020   -0.879203
     29          6           0        5.515986   -0.055391    0.708212
     30          6           0        4.578006    3.779478    0.459181
     31          6           0        1.393874    4.064228    0.221874
     32          6           0       -6.964209   -3.013961    1.167131
     33          6           0       -5.704442   -0.526772   -0.169881
     34          6           0        0.002331    4.094331    0.194664
     35          6           0       -0.993569    5.194721    0.514926
     36          6           0       -2.184315    4.836102    0.341617
     37          6           0        2.913009   -4.175215    0.191950
     38          6           0       -5.313843    0.487365   -1.247626
     39          6           0        6.890234   -0.643282    0.675456
     40          6           0       -3.537492    5.542406    0.481574
     41          6           0       -2.088644    3.327545   -0.093058
     42          6           0       -0.553699    6.661342    0.817071
     43          6           0       -4.164772    5.740764   -0.851832
     44          1           0       -0.570819    0.484198   -0.176800
     45          1           0        3.150321   -1.165897   -0.939442
     46          1           0        2.559133   -3.176459   -2.122259
     47          1           0        1.249409   -3.885350   -2.749135
     48          1           0       -5.674160   -1.924791    2.431354
     49          1           0        5.131759   -0.066319   -1.401696
     50          1           0        5.837164    1.470430   -0.712624
     51          1           0       -3.082559   -0.128924   -0.640321
     52          1           0        0.531199    1.839098   -0.323844
     53          1           0       -1.677132   -4.830498   -1.370628
     54          1           0       -2.508217   -3.404221   -2.077988
     55          1           0       -1.205037   -4.213542   -2.935444
     56          1           0       -2.676802   -3.651240    0.590278
     57          1           0        1.041366   -4.901677   -0.207851
     58          1           0        2.345060   -5.510196   -1.355683
     59          1           0        4.907188   -0.860686    0.839729
     60          1           0        5.198901    0.368984    1.911237
     61          1           0        4.699715    4.631718   -0.310864
     62          1           0        5.593082    3.432989    0.591264
     63          1           0        4.310182    4.036241    1.443669
     64          1           0        1.852796    4.965310    0.383893
     65          1           0       -7.521878   -2.203748    1.220956
     66          1           0       -7.286867   -3.603142    1.980673
     67          1           0       -7.228662   -3.694899    0.267994
     68          1           0       -6.815543   -0.545074    0.112887
     69          1           0       -4.524612    1.251702   -0.757083
     70          1           0       -6.196264    0.914586   -1.757310
     71          1           0       -4.864783   -0.016431   -2.064899
     72          1           0       -3.361141    6.460555    1.056980
     73          1           0       -3.950982    4.739488    1.221455
     74          1           0        0.170057    6.932163    1.793576
     75          1           0       -1.357573    7.307873    0.954424
     76          1           0       -0.099203    7.035984   -0.104925
     77          1           0       -3.623043    6.358421   -1.550543
     78          1           0       -5.160222    6.249761   -0.683802
     79          1           0       -4.202616    4.624597   -1.388532
     80          1           0        3.825662   -4.844420    1.882943
     81          1           0        7.993655   -1.798831    1.613923
 ---------------------------------------------------------------------

 SCF Done:  E(RB3LYP) =  -1949.06750209     A.U. after   16 cycles

 Excitation energies and oscillator strengths:

 Excited State   1:      Singlet-A      1.9518 eV  635.23 nm  f=0.3398  <S**2>=0.000
     156 ->157         0.70296
     156 <-157        -0.10199
 This state for optimization and/or second-order correction.
 Total Energy, E(TD-HF/TD-DFT) =  -1948.99577502
 Copying the excited state density for this state as the 1-particle RhoCI density.

 The electronic state is 1-A.
 Alpha  occ. eigenvalues --  -19.18837 -19.17451 -19.14960 -19.14163 -19.13521
 Alpha  occ. eigenvalues --  -19.09735 -14.38028 -14.36033 -14.35327 -14.29155
 Alpha  occ. eigenvalues --  -10.33409 -10.32170 -10.29957 -10.26218 -10.24303
 Alpha  occ. eigenvalues --  -10.23905 -10.23845 -10.23821 -10.23158 -10.22809
 Alpha  occ. eigenvalues --  -10.22068 -10.22055 -10.21929 -10.21136 -10.21088
 Alpha  occ. eigenvalues --  -10.21065 -10.20716 -10.20558 -10.20064 -10.19910
 Alpha  occ. eigenvalues --  -10.19678 -10.19628 -10.19449 -10.19332 -10.19258
 Alpha  occ. eigenvalues --  -10.19074 -10.18711 -10.18598 -10.18386 -10.17764
 Alpha  occ. eigenvalues --  -10.17610 -10.17487 -10.17289  -1.12421  -1.09172
 Alpha  occ. eigenvalues --   -1.08395  -1.00426  -1.00404  -0.99466  -0.98925
 Alpha  occ. eigenvalues --   -0.96412  -0.95560  -0.91411  -0.83758  -0.82435
 Alpha  occ. eigenvalues --   -0.82399  -0.81511  -0.79955  -0.79245  -0.78621
 Alpha  occ. eigenvalues --   -0.77479  -0.76797  -0.74733  -0.74079  -0.72876
 Alpha  occ. eigenvalues --   -0.71690  -0.70232  -0.69515  -0.68174  -0.67766
 Alpha  occ. eigenvalues --   -0.66472  -0.65854  -0.64070  -0.62454  -0.61189
 Alpha  occ. eigenvalues --   -0.60351  -0.59008  -0.58037  -0.57222  -0.56985
 Alpha  occ. eigenvalues --   -0.56903  -0.56072  -0.54384  -0.53161  -0.52500
 Alpha  occ. eigenvalues --   -0.52071  -0.51740  -0.51234  -0.50863  -0.49982
 Alpha  occ. eigenvalues --   -0.49848  -0.49574  -0.48866  -0.48622  -0.47907
 Alpha  occ. eigenvalues --   -0.47502  -0.46820  -0.46518  -0.46152  -0.45439
 Alpha  occ. eigenvalues --   -0.45191  -0.44700  -0.44504  -0.44196  -0.43784
 Alpha  occ. eigenvalues --   -0.43355  -0.43164  -0.42954  -0.42618  -0.42276
 Alpha  occ. eigenvalues --   -0.41838  -0.41609  -0.41573  -0.41317  -0.40963
 Alpha  occ. eigenvalues --   -0.40754  -0.40372  -0.40180  -0.40018  -0.39976
 Alpha  occ. eigenvalues --   -0.39597  -0.39526  -0.39440  -0.38810  -0.38671
 Alpha  occ. eigenvalues --   -0.38230  -0.37923  -0.37781  -0.37368  -0.37205
 Alpha  occ. eigenvalues --   -0.36926  -0.36769  -0.35708  -0.35478  -0.33961
 Alpha  occ. eigenvalues --   -0.33695  -0.33566  -0.33085  -0.33038  -0.32851
 Alpha  occ. eigenvalues --   -0.32763  -0.31413  -0.31291  -0.29799  -0.29531
 Alpha  occ. eigenvalues --   -0.29297  -0.27860  -0.27144  -0.26798  -0.26430
 Alpha  occ. eigenvalues --   -0.24608  -0.24133  -0.23744  -0.23351  -0.21825
 Alpha  occ. eigenvalues --   -0.18442
 Alpha virt. eigenvalues --   -0.10625  -0.04779  -0.03087  -0.02021  -0.00927
 Alpha virt. eigenvalues --    0.01113   0.02251   0.02462   0.03331   0.03643
 Alpha virt. eigenvalues --    0.04217   0.04505   0.04658   0.05056   0.05490

 Mulliken charges:
               1
     1  O   -0.088465
     2  O   -0.299447
     3  O   -0.221431
     4  O   -0.118902
     5  O   -0.243855
     6  O   -0.263207
     7  N   -0.230413
     8  N   -0.035480
     9  N   -0.105393
    10  N   -0.291470
    11  C   -0.100215
    12  C    0.120590
    13  C   -0.075043
    14  C    0.074472
    15  C   -0.063508
    16  C    0.152296
    17  C   -0.081351
    18  C   -0.133200
    19  C    0.093896
    20  C   -0.125670
    21  C    0.100659
    22  C    0.103089
    23  C   -0.070431
    24  C    0.084377
    25  C   -0.135518
    26  C   -0.009006
    27  C    0.140194
    28  C    0.053014
    29  C   -0.014321
    30  C    0.122565
    31  C   -0.073168
    32  C    0.154965
    33  C   -0.160571
    34  C    0.081698
    35  C   -0.062017
    36  C   -0.215684
    37  C    0.084632
    38  C    0.020997
    39  C    0.177995
    40  C    0.090180
    41  C    0.144672
    42  C    0.065853
    43  C   -0.026012
    44  H    0.231544
    45  H    0.002438
    46  H   -0.022698
    47  H   -0.006180
    48  H    0.060731
    49  H    0.043634
    50  H    0.010787
    51  H    0.009659
    52  H    0.075687
    53  H    0.031983
    54  H    0.030423
    55  H    0.016199
    56  H    0.077847
    57  H    0.045336
    58  H    0.026044
    59  H    0.009129
    60  H    0.050485
    61  H    0.050176
    62  H   -0.003436
    63  H    0.013972
    64  H   -0.067325
    65  H   -0.032365
    66  H   -0.008715
    67  H    0.020993
    68  H    0.000956
    69  H    0.139543
    70  H    0.005032
    71  H    0.012591
    72  H   -0.010360
    73  H    0.038636
    74  H    0.034895
    75  H   -0.019402
    76  H    0.019085
    77  H    0.007457
    78  H    0.019373
    79  H    0.064595
    80  H    0.219273
    81  H    0.179615
 Sum of Mulliken charges =  -0.00000

 Dipole moment (field-independent basis, Debye):
    X=              3.2769    Y=              0.0437    Z=              0.9767  Tot=              3.4196
 Quadrupole moment (field-independent basis, Debye-Ang):
   XX=           -248.2629   YY=           -238.2905   ZZ=           -255.0917
   XY=             -8.0758   XZ=              9.3804   YZ=             10.8453

 Normal termination of Gaussian 16 at Sun Jun 30 13:11:18 2019.
