 Gaussian 16, Revision A.03,
 Gaussian 16:  ES64L-G16RevA.03 25-Dec-2016

 --------------------------
 # td=(NStates=1) B3LYP/SVP
 --------------------------

 --
 TD
 --
 Symbolic Z-matrix:
 Charge =  0 Multiplicity = 1

                         Standard orientation:
 ---------------------------------------------------------------------
 Center     Atomic      Atomic             Coordinates (Angstroms)
 Number     Number       Type             X           Y           Z
 ---------------------------------------------------------------------
      1          8           0       -4.731058   -4.529199    1.985224
      2          8           0        2.985806   -4.693684    1.454799
      3          8           0        7.055383   -1.773296    1.602524
      4          8           0        3.714683   -3.086350    0.173114
      5          8           0        7.689226   -0.497684   -0.212053
      6          8           0       -2.982633    2.443847   -0.357487
      7          7           0       -0.264502   -0.635040   -0.704468
      8          7           0        1.645796    1.743259   -0.528064
      9          7           0       -3.537549   -3.112727    0.609124
     10          7           0       -0.676513    2.948955   -0.240135
     11          6           0        0.648133   -2.563712   -1.395755
     12          6           0        0.983756   -1.167489   -1.011632
     13          6           0       -0.804858   -2.756380   -1.205629
     14          6           0       -1.311935   -1.496554   -0.696132
     15          6           0        3.810582    1.430608   -0.437839
     16          6           0        2.509641    0.777492   -0.670608
     17          6           0        2.200550   -0.520678   -1.086668
     18          6           0        3.547771    2.667241    0.001516
     19          6           0        1.545534   -3.650064   -1.818888
     20          6           0       -5.691039   -2.490590    1.429313
     21          6           0       -3.644667   -1.829871    0.079831
     22          6           0        2.165511    2.914196   -0.157075
     23          6           0       -5.114267   -1.403460    0.325954
     24          6           0        5.133559    0.817613   -0.391454
     25          6           0       -2.692511   -1.090066   -0.491139
     26          6           0       -1.499778   -3.962502   -1.632060
     27          6           0       -4.596578   -3.536422    1.371599
     28          6           0        2.062370   -4.612934   -0.676854
     29          6           0        5.429618   -0.005413    0.907885
     30          6           0        4.482346    3.787715    0.611894
     31          6           0        1.374893    4.095042    0.251571
     32          6           0       -7.092334   -3.061797    0.963195
     33          6           0       -5.723552   -0.372052   -0.255434
     34          6           0       -0.027004    4.122319    0.103242
     35          6           0       -0.940632    5.172165    0.507690
     36          6           0       -2.240125    4.708986    0.345331
     37          6           0        3.009898   -4.105395    0.379912
     38          6           0       -5.288678    0.413044   -1.352786
     39          6           0        6.875571   -0.679185    0.662718
     40          6           0       -3.601575    5.326026    0.528882
     41          6           0       -2.091108    3.211775   -0.074713
     42          6           0       -0.531667    6.400880    1.055845
     43          6           0       -4.124493    5.682055   -0.790070
     44          1           0       -0.446882    0.259746   -0.190108
     45          1           0        2.901655   -1.303456   -1.108400
     46          1           0        2.339672   -3.186064   -2.106079
     47          1           0        1.112672   -4.284063   -2.576618
     48          1           0       -5.486773   -1.999035    2.335067
     49          1           0        5.301420    0.074401   -1.257389
     50          1           0        5.977916    1.696698   -0.685545
     51          1           0       -2.794370   -0.011545   -0.581157
     52          1           0        0.545646    1.861571   -0.714448
     53          1           0       -1.818300   -4.726197   -0.817724
     54          1           0       -2.613244   -3.860601   -2.087833
     55          1           0       -0.858044   -4.560825   -2.414190
     56          1           0       -2.820397   -3.680208    0.910701
     57          1           0        1.277389   -5.073965   -0.127464
     58          1           0        2.701090   -5.407811   -1.311458
     59          1           0        4.906882   -0.947001    1.013376
     60          1           0        5.724868    0.929772    1.694991
     61          1           0        4.341291    4.826241    0.196097
     62          1           0        5.573168    3.588675    0.497803
     63          1           0        4.491251    4.006788    1.768899
     64          1           0        2.062413    5.039720    0.630540
     65          1           0       -7.876414   -2.220443    0.968274
     66          1           0       -7.321293   -3.785576    1.748746
     67          1           0       -7.017051   -3.538980    0.074093
     68          1           0       -6.826360   -0.315623    0.109107
     69          1           0       -4.941560    1.404871   -1.191044
     70          1           0       -6.241632    0.674981   -2.127331
     71          1           0       -4.516372    0.105589   -2.016865
     72          1           0       -3.657182    6.369313    1.005357
     73          1           0       -4.336178    4.505549    1.130728
     74          1           0       -0.018332    6.120464    2.014103
     75          1           0       -1.283065    7.193943    1.209820
     76          1           0        0.222347    6.829532    0.298754
     77          1           0       -3.319072    6.216484   -1.391303
     78          1           0       -4.943748    6.361382   -0.617843
     79          1           0       -4.498343    4.783875   -1.285895
     80          1           0        3.651424   -4.443235    2.080557
     81          1           0        7.904022   -2.360702    1.507664
 ---------------------------------------------------------------------

 SCF Done:  E(RB3LYP) =  -1949.08182605     A.U. after   16 cycles

 Excitation energies and oscillator strengths:

 Excited State   1:      Singlet-A      1.9145 eV  647.61 nm  f=0.3913  <S**2>=0.000
     156 ->157         0.70490
     156 <-157        -0.13052
 This state for optimization and/or second-order correction.
 Total Energy, E(TD-HF/TD-DFT) =  -1949.01147023
 Copying the excited state density for this state as the 1-particle RhoCI density.

 The electronic state is 1-A.
 Alpha  occ. eigenvalues --  -19.22090 -19.16131 -19.13299 -19.12375 -19.11671
 Alpha  occ. eigenvalues --  -19.10322 -14.38190 -14.37405 -14.35490 -14.28370
 Alpha  occ. eigenvalues --  -10.33482 -10.32229 -10.28840 -10.26413 -10.25227
 Alpha  occ. eigenvalues --  -10.24127 -10.23738 -10.23003 -10.22996 -10.22943
 Alpha  occ. eigenvalues --  -10.22456 -10.22117 -10.21643 -10.21171 -10.20865
 Alpha  occ. eigenvalues --  -10.20813 -10.20704 -10.20652 -10.20227 -10.20116
 Alpha  occ. eigenvalues --  -10.20111 -10.19862 -10.19823 -10.19823 -10.19487
 Alpha  occ. eigenvalues --  -10.19304 -10.19164 -10.19062 -10.19051 -10.18840
 Alpha  occ. eigenvalues --  -10.18678 -10.17836 -10.16958  -1.16751  -1.06495
 Alpha  occ. eigenvalues --   -1.05931  -1.01319  -1.00080  -1.00030  -0.97972
 Alpha  occ. eigenvalues --   -0.97613  -0.96583  -0.89591  -0.82692  -0.81731
 Alpha  occ. eigenvalues --   -0.81450  -0.81056  -0.79631  -0.78762  -0.77734
 Alpha  occ. eigenvalues --   -0.76816  -0.76390  -0.75686  -0.74971  -0.73230
 Alpha  occ. eigenvalues --   -0.70933  -0.69669  -0.69199  -0.67995  -0.67630
 Alpha  occ. eigenvalues --   -0.66356  -0.65755  -0.65330  -0.65103  -0.62425
 Alpha  occ. eigenvalues --   -0.60438  -0.58845  -0.58088  -0.57382  -0.56431
 Alpha  occ. eigenvalues --   -0.56055  -0.55386  -0.53897  -0.53703  -0.52894
 Alpha  occ. eigenvalues --   -0.51900  -0.51340  -0.51235  -0.50860  -0.50190
 Alpha  occ. eigenvalues --   -0.49773  -0.48604  -0.48105  -0.47635  -0.47129
 Alpha  occ. eigenvalues --   -0.46478  -0.46089  -0.45971  -0.45734  -0.45214
 Alpha  occ. eigenvalues --   -0.44778  -0.44690  -0.44297  -0.44104  -0.43978
 Alpha  occ. eigenvalues --   -0.43362  -0.43249  -0.42875  -0.42695  -0.42398
 Alpha  occ. eigenvalues --   -0.41613  -0.41213  -0.41031  -0.40741  -0.40347
 Alpha  occ. eigenvalues --   -0.40078  -0.39889  -0.39696  -0.39504  -0.39278
 Alpha  occ. eigenvalues --   -0.39146  -0.38968  -0.38496  -0.38399  -0.38141
 Alpha  occ. eigenvalues --   -0.37819  -0.37643  -0.37315  -0.37139  -0.36800
 Alpha  occ. eigenvalues --   -0.36555  -0.36257  -0.35938  -0.35019  -0.34527
 Alpha  occ. eigenvalues --   -0.33514  -0.33383  -0.33099  -0.32806  -0.32666
 Alpha  occ. eigenvalues --   -0.31904  -0.31450  -0.31070  -0.30231  -0.28283
 Alpha  occ. eigenvalues --   -0.27799  -0.27507  -0.26961  -0.26060  -0.25385
 Alpha  occ. eigenvalues --   -0.24969  -0.24351  -0.23572  -0.22582  -0.21116
 Alpha  occ. eigenvalues --   -0.17636
 Alpha virt. eigenvalues --   -0.10273  -0.05294  -0.03303  -0.01102  -0.00175
 Alpha virt. eigenvalues --    0.01089   0.02145   0.02661   0.03363   0.03540
 Alpha virt. eigenvalues --    0.04061   0.04359   0.04784   0.05244   0.05395

 Mulliken charges:
               1
     1  O   -0.173407
     2  O   -0.025946
     3  O   -0.318549
     4  O   -0.290872
     5  O   -0.201463
     6  O   -0.203012
     7  N   -0.081199
     8  N   -0.040415
     9  N   -0.068950
    10  N   -0.394150
    11  C   -0.153629
    12  C    0.033699
    13  C   -0.088776
    14  C    0.022679
    15  C   -0.028106
    16  C    0.042698
    17  C    0.007726
    18  C   -0.077634
    19  C    0.247507
    20  C   -0.020732
    21  C    0.158971
    22  C    0.002316
    23  C   -0.076532
    24  C   -0.050634
    25  C   -0.113778
    26  C   -0.027781
    27  C    0.026552
    28  C   -0.021345
    29  C    0.003365
    30  C    0.022022
    31  C   -0.137279
    32  C    0.102220
    33  C   -0.108783
    34  C    0.133341
    35  C   -0.099259
    36  C   -0.166569
    37  C    0.068366
    38  C    0.059867
    39  C    0.161794
    40  C    0.003533
    41  C    0.175371
    42  C    0.082782
    43  C    0.020510
    44  H    0.158247
    45  H   -0.006295
    46  H   -0.056506
    47  H   -0.001120
    48  H    0.028475
    49  H    0.024540
    50  H    0.056020
    51  H    0.020917
    52  H    0.181651
    53  H    0.018746
    54  H    0.041349
    55  H    0.029185
    56  H    0.105685
    57  H    0.015307
    58  H    0.060957
    59  H    0.060848
    60  H    0.079945
    61  H    0.031052
    62  H    0.003382
    63  H    0.032457
    64  H    0.022453
    65  H    0.036665
    66  H    0.028962
    67  H   -0.003532
    68  H    0.007032
    69  H    0.036530
    70  H    0.008446
    71  H    0.014808
    72  H    0.000349
    73  H    0.040974
    74  H    0.037676
    75  H    0.013855
    76  H    0.025642
    77  H    0.019914
    78  H   -0.003707
    79  H    0.024973
    80  H    0.188883
    81  H    0.208713
 Sum of Mulliken charges =  -0.00000

 Dipole moment (field-independent basis, Debye):
    X=              2.0280    Y=             -2.1081    Z=              1.8020  Tot=              3.4357
 Quadrupole moment (field-independent basis, Debye-Ang):
   XX=           -258.5627   YY=           -228.7270   ZZ=           -255.1745
   XY=            -19.5252   XZ=             16.4840   YZ=              9.4628

 Normal termination of Gaussian 16 at Wed Jul  3 07:59:08 2019.
