 Gaussian 16, Revision A.03,
 Gaussian 16:  ES64L-G16RevA.03 25-Dec-2016

 --------------------------
 # td=(NStates=1) B3LYP/SVP
 --------------------------

 --
 TD
 --
 Symbolic Z-matrix:
 Charge =  0 Multiplicity = 1

                         Standard orientation:
 ---------------------------------------------------------------------
 Center     Atomic      Atomic             Coordinates (Angstroms)
 Number     Number       Type             X           Y           Z
 ---------------------------------------------------------------------
      1          8           0        4.301838   -4.819849   -1.937594
      2          8           0       -3.343971   -4.947845   -1.119629
      3          8           0       -7.140037   -1.248388   -1.758150
      4          8           0       -3.940577   -3.013786   -0.143560
      5          8           0       -7.581688   -0.448476    0.179464
      6          8           0        3.111813    2.387310    0.302389
      7          7           0        0.276815   -0.517456    0.548427
      8          7           0       -1.508214    1.813577    0.375739
      9          7           0        3.329632   -3.213661   -0.646030
     10          7           0        0.840782    2.950463    0.080362
     11          6           0       -0.713703   -2.389463    1.368552
     12          6           0       -0.899914   -1.095414    0.938541
     13          6           0        0.681322   -2.656711    1.310764
     14          6           0        1.260879   -1.476258    0.794376
     15          6           0       -3.667217    1.508887    0.266496
     16          6           0       -2.411574    0.887104    0.496225
     17          6           0       -2.141813   -0.333646    0.861198
     18          6           0       -3.476444    2.844707   -0.146083
     19          6           0       -1.718437   -3.454860    1.959065
     20          6           0        5.498320   -2.653526   -1.361600
     21          6           0        3.526524   -1.870377   -0.146970
     22          6           0       -2.066108    3.014592   -0.088607
     23          6           0        4.976403   -1.660448   -0.297021
     24          6           0       -5.038327    0.806211    0.450047
     25          6           0        2.594113   -1.121827    0.479579
     26          6           0        1.338085   -3.963208    1.781730
     27          6           0        4.349479   -3.770460   -1.414282
     28          6           0       -2.161815   -4.455546    0.887862
     29          6           0       -5.488408    0.082618   -0.805171
     30          6           0       -4.435900    3.918685   -0.492068
     31          6           0       -1.295108    4.110413   -0.321099
     32          6           0        6.919433   -3.352524   -1.255739
     33          6           0        5.817612   -0.748373    0.263127
     34          6           0        0.130788    4.019253   -0.204313
     35          6           0        1.152117    5.202415   -0.436397
     36          6           0        2.462775    4.639682   -0.328098
     37          6           0       -3.181982   -4.003903   -0.194824
     38          6           0        5.574724    0.226291    1.306489
     39          6           0       -6.859197   -0.503776   -0.750603
     40          6           0        3.699271    5.196832   -0.458494
     41          6           0        2.221472    3.127339   -0.012595
     42          6           0        0.796253    6.640239   -0.683236
     43          6           0        4.536813    5.459875    0.832012
     44          1           0        0.412232    0.545669    0.344626
     45          1           0       -2.940790   -1.080776    1.000385
     46          1           0       -2.613015   -2.901346    2.452775
     47          1           0       -1.130035   -4.032612    2.616967
     48          1           0        5.256750   -1.969820   -2.228814
     49          1           0       -5.007573    0.251099    1.352522
     50          1           0       -5.878112    1.350597    0.565269
     51          1           0        2.938546   -0.105454    0.753009
     52          1           0       -0.532187    1.918589    0.715844
     53          1           0        0.908053   -4.711665    0.943054
     54          1           0        2.492226   -3.746103    1.846504
     55          1           0        0.795709   -4.208207    2.857580
     56          1           0        2.364777   -3.523369   -0.488875
     57          1           0       -1.053610   -4.829877    0.430887
     58          1           0       -2.517008   -5.542780    1.179330
     59          1           0       -4.831126   -0.736203   -0.789585
     60          1           0       -5.505832    0.656629   -1.757974
     61          1           0       -4.167144    5.035722   -0.018872
     62          1           0       -5.333101    3.542805    0.027078
     63          1           0       -4.374170    3.937344   -1.527995
     64          1           0       -1.760958    5.240581   -0.743745
     65          1           0        7.777019   -2.713808   -1.877539
     66          1           0        6.934952   -4.097611   -2.306368
     67          1           0        7.122831   -3.667164   -0.243212
     68          1           0        6.977050   -0.886167   -0.239963
     69          1           0        4.903262    1.298248    0.870414
     70          1           0        6.242829    0.656591    1.959032
     71          1           0        4.869891   -0.406740    1.910483
     72          1           0        3.700244    6.121039   -0.978043
     73          1           0        4.216696    4.383265   -1.066912
     74          1           0        0.278808    6.800478   -1.744864
     75          1           0        1.708369    7.207248   -0.559847
     76          1           0        0.279212    6.702128    0.230251
     77          1           0        3.962102    6.012484    1.615042
     78          1           0        5.724135    5.618574    0.656950
     79          1           0        4.425017    4.425970    1.287264
     80          1           0       -4.118640   -4.685322   -1.696993
     81          1           0       -8.242165   -1.411145   -1.631686
 ---------------------------------------------------------------------

 SCF Done:  E(RB3LYP) =  -1949.00626705     A.U. after   16 cycles

 Excitation energies and oscillator strengths:

 Excited State   1:      Singlet-A      1.9167 eV  646.85 nm  f=0.3081  <S**2>=0.000
     156 ->157         0.70295
 This state for optimization and/or second-order correction.
 Total Energy, E(TD-HF/TD-DFT) =  -1948.93582829
 Copying the excited state density for this state as the 1-particle RhoCI density.

 The electronic state is 1-A.
 Alpha  occ. eigenvalues --  -19.20220 -19.18867 -19.14237 -19.11998 -19.11449
 Alpha  occ. eigenvalues --  -19.10970 -14.37369 -14.35631 -14.35480 -14.29763
 Alpha  occ. eigenvalues --  -10.34253 -10.30483 -10.28778 -10.27692 -10.24336
 Alpha  occ. eigenvalues --  -10.24324 -10.23827 -10.23421 -10.23288 -10.22830
 Alpha  occ. eigenvalues --  -10.22561 -10.22281 -10.22085 -10.21597 -10.21153
 Alpha  occ. eigenvalues --  -10.20952 -10.20846 -10.20736 -10.20370 -10.20311
 Alpha  occ. eigenvalues --  -10.20284 -10.20074 -10.19726 -10.19645 -10.19613
 Alpha  occ. eigenvalues --  -10.19429 -10.19400 -10.19137 -10.18835 -10.18532
 Alpha  occ. eigenvalues --  -10.18317 -10.18122 -10.18051  -1.11592  -1.11009
 Alpha  occ. eigenvalues --   -1.04803  -1.03644  -1.00629  -1.00451  -0.99974
 Alpha  occ. eigenvalues --   -0.97508  -0.93408  -0.92078  -0.82546  -0.82331
 Alpha  occ. eigenvalues --   -0.81778  -0.80679  -0.80178  -0.79165  -0.78158
 Alpha  occ. eigenvalues --   -0.76993  -0.76107  -0.75220  -0.73975  -0.72316
 Alpha  occ. eigenvalues --   -0.71472  -0.68857  -0.68820  -0.68391  -0.67528
 Alpha  occ. eigenvalues --   -0.67103  -0.65161  -0.63298  -0.61742  -0.61487
 Alpha  occ. eigenvalues --   -0.60474  -0.58920  -0.58228  -0.57294  -0.56545
 Alpha  occ. eigenvalues --   -0.56398  -0.55275  -0.54796  -0.53041  -0.52836
 Alpha  occ. eigenvalues --   -0.51656  -0.51228  -0.50731  -0.50463  -0.49766
 Alpha  occ. eigenvalues --   -0.49372  -0.48644  -0.48199  -0.47971  -0.47802
 Alpha  occ. eigenvalues --   -0.47064  -0.46911  -0.46379  -0.46129  -0.45703
 Alpha  occ. eigenvalues --   -0.45547  -0.45141  -0.44667  -0.44067  -0.43876
 Alpha  occ. eigenvalues --   -0.43560  -0.43001  -0.42913  -0.42579  -0.42346
 Alpha  occ. eigenvalues --   -0.42025  -0.41865  -0.41696  -0.41209  -0.41094
 Alpha  occ. eigenvalues --   -0.40867  -0.40480  -0.40418  -0.39987  -0.39781
 Alpha  occ. eigenvalues --   -0.39027  -0.39020  -0.38543  -0.38097  -0.37701
 Alpha  occ. eigenvalues --   -0.37556  -0.37524  -0.37152  -0.37113  -0.36765
 Alpha  occ. eigenvalues --   -0.36345  -0.35592  -0.35059  -0.34699  -0.34397
 Alpha  occ. eigenvalues --   -0.34173  -0.33582  -0.33427  -0.33006  -0.32252
 Alpha  occ. eigenvalues --   -0.32202  -0.31135  -0.30561  -0.30192  -0.29459
 Alpha  occ. eigenvalues --   -0.27938  -0.27572  -0.26334  -0.25980  -0.25312
 Alpha  occ. eigenvalues --   -0.25203  -0.24102  -0.23939  -0.22170  -0.21516
 Alpha  occ. eigenvalues --   -0.18105
 Alpha virt. eigenvalues --   -0.10317  -0.05504  -0.03396  -0.02682   0.00556
 Alpha virt. eigenvalues --    0.01550   0.01587   0.02660   0.02933   0.03195
 Alpha virt. eigenvalues --    0.03589   0.03731   0.04839   0.05408   0.05558

 Mulliken charges:
               1
     1  O   -0.155463
     2  O   -0.173555
     3  O   -0.204347
     4  O   -0.258627
     5  O   -0.220582
     6  O   -0.178233
     7  N   -0.117047
     8  N   -0.081946
     9  N   -0.170011
    10  N   -0.300877
    11  C   -0.133896
    12  C   -0.005247
    13  C   -0.160071
    14  C    0.085255
    15  C   -0.109032
    16  C    0.177555
    17  C   -0.115469
    18  C   -0.132800
    19  C    0.210960
    20  C   -0.130324
    21  C    0.077854
    22  C    0.129070
    23  C   -0.040607
    24  C    0.172608
    25  C   -0.128519
    26  C   -0.034224
    27  C    0.149229
    28  C   -0.126080
    29  C    0.026535
    30  C    0.087934
    31  C   -0.196731
    32  C   -0.001295
    33  C   -0.130193
    34  C    0.051602
    35  C   -0.169413
    36  C   -0.161705
    37  C    0.184275
    38  C   -0.015943
    39  C    0.074370
    40  C    0.048868
    41  C    0.175455
    42  C    0.120016
    43  C   -0.038667
    44  H    0.169264
    45  H   -0.000995
    46  H    0.040624
    47  H   -0.029618
    48  H    0.055971
    49  H    0.004550
    50  H   -0.043639
    51  H    0.020374
    52  H    0.147152
    53  H    0.064287
    54  H    0.078191
    55  H    0.066718
    56  H    0.120247
    57  H    0.051955
    58  H    0.067505
    59  H    0.031184
    60  H    0.032557
    61  H    0.048077
    62  H    0.036705
    63  H    0.026524
    64  H    0.042424
    65  H    0.032727
    66  H    0.052295
    67  H    0.045162
    68  H    0.014545
    69  H    0.109673
    70  H   -0.001099
    71  H    0.030461
    72  H   -0.014472
    73  H    0.024675
    74  H    0.060766
    75  H    0.002457
    76  H    0.020023
    77  H    0.012969
    78  H    0.046466
    79  H    0.014567
    80  H    0.203822
    81  H    0.234226
 Sum of Mulliken charges =  -0.00000

 Dipole moment (field-independent basis, Debye):
    X=             -3.9613    Y=              1.2242    Z=             -0.3565  Tot=              4.1614
 Quadrupole moment (field-independent basis, Debye-Ang):
   XX=           -250.5448   YY=           -243.0821   ZZ=           -253.1626
   XY=             16.2130   XZ=             19.1417   YZ=            -12.8679

 Normal termination of Gaussian 16 at Thu Jul  4 02:18:02 2019.
