 Gaussian 16, Revision A.03,
 Gaussian 16:  ES64L-G16RevA.03 25-Dec-2016

 --------------------------
 # td=(NStates=1) B3LYP/SVP
 --------------------------

 --
 TD
 --
 Symbolic Z-matrix:
 Charge =  0 Multiplicity = 1

                         Standard orientation:
 ---------------------------------------------------------------------
 Center     Atomic      Atomic             Coordinates (Angstroms)
 Number     Number       Type             X           Y           Z
 ---------------------------------------------------------------------
      1          8           0        4.534558   -4.840471   -1.834102
      2          8           0       -2.858617   -4.860755   -1.295687
      3          8           0       -7.027592   -1.461498   -1.925576
      4          8           0       -3.630365   -2.986412   -0.182116
      5          8           0       -7.496045   -0.707282    0.136291
      6          8           0        3.044162    2.540069    0.225542
      7          7           0        0.196412   -0.584814    0.509092
      8          7           0       -1.552146    1.784991    0.327168
      9          7           0        3.316007   -3.209482   -0.601895
     10          7           0        0.827216    2.959533    0.263379
     11          6           0       -0.702588   -2.418041    1.491731
     12          6           0       -0.986190   -1.054368    0.980494
     13          6           0        0.692801   -2.621510    1.316076
     14          6           0        1.271951   -1.555524    0.708122
     15          6           0       -3.742353    1.525715    0.318446
     16          6           0       -2.464263    0.821408    0.566700
     17          6           0       -2.179831   -0.493896    0.771954
     18          6           0       -3.526400    2.777276    0.012555
     19          6           0       -1.709514   -3.430900    1.960407
     20          6           0        5.528604   -2.726663   -1.316642
     21          6           0        3.521746   -1.918953   -0.135809
     22          6           0       -2.115985    2.977624   -0.013656
     23          6           0        4.914490   -1.660138   -0.468399
     24          6           0       -5.092772    0.829528    0.413608
     25          6           0        2.604751   -1.183040    0.344339
     26          6           0        1.345833   -3.822523    1.881470
     27          6           0        4.396771   -3.735140   -1.290236
     28          6           0       -2.085899   -4.408178    0.946057
     29          6           0       -5.299791   -0.175089   -0.695168
     30          6           0       -4.538692    3.828057   -0.430792
     31          6           0       -1.349594    4.161012   -0.144195
     32          6           0        6.841172   -3.188521   -1.014155
     33          6           0        5.746190   -0.627020    0.076554
     34          6           0        0.092891    4.058311   -0.126018
     35          6           0        1.033173    5.258088   -0.443726
     36          6           0        2.276309    4.743063   -0.385901
     37          6           0       -3.013367   -3.990528   -0.181616
     38          6           0        5.258482    0.389488    1.121559
     39          6           0       -6.761067   -0.828721   -0.755619
     40          6           0        3.596352    5.389630   -0.488288
     41          6           0        2.142022    3.251868    0.084043
     42          6           0        0.670613    6.623102   -0.954756
     43          6           0        4.328767    5.559148    0.965114
     44          1           0        0.511113    0.145204   -0.110427
     45          1           0       -3.116045   -0.947628    0.965065
     46          1           0       -2.594137   -2.827752    2.248554
     47          1           0       -1.091100   -4.063525    2.668555
     48          1           0        5.452012   -2.424296   -2.434481
     49          1           0       -5.115228    0.311419    1.377736
     50          1           0       -5.911987    1.557367    0.469810
     51          1           0        2.866579   -0.058243    0.197326
     52          1           0       -0.470463    1.758656    0.458030
     53          1           0        1.420446   -4.672500    1.035907
     54          1           0        2.466097   -3.712766    2.111249
     55          1           0        0.761940   -4.100771    2.697581
     56          1           0        2.338336   -3.541213   -0.339341
     57          1           0       -1.273762   -4.548236    0.428234
     58          1           0       -2.423264   -5.402034    1.402964
     59          1           0       -4.731789   -1.238917   -0.915428
     60          1           0       -5.185713    0.262300   -1.823409
     61          1           0       -4.220975    4.734831    0.036425
     62          1           0       -5.689093    3.467863    0.112107
     63          1           0       -4.595150    3.999805   -1.525718
     64          1           0       -1.815912    5.063102   -0.379417
     65          1           0        7.641241   -2.452318   -1.004640
     66          1           0        7.219201   -3.959526   -1.789837
     67          1           0        7.328035   -3.420120   -0.035684
     68          1           0        6.666466   -0.380261   -0.409858
     69          1           0        4.955252    1.263434    0.702396
     70          1           0        6.128269    0.617152    1.794558
     71          1           0        4.556082   -0.039859    1.930939
     72          1           0        3.417687    6.450204   -0.868565
     73          1           0        4.316138    4.837953   -1.381173
     74          1           0       -0.115656    6.630857   -1.892460
     75          1           0        1.430214    7.045283   -1.165714
     76          1           0        0.097257    7.144626   -0.242178
     77          1           0        3.705660    5.884340    1.803972
     78          1           0        5.221477    6.241139    0.931104
     79          1           0        4.916828    4.429084    1.371328
     80          1           0       -3.460733   -4.463846   -1.859848
     81          1           0       -7.814223   -1.839020   -1.730215
 ---------------------------------------------------------------------

 SCF Done:  E(RB3LYP) =  -1949.02471686     A.U. after   16 cycles

 Excitation energies and oscillator strengths:

 Excited State   1:      Singlet-A      1.9677 eV  630.09 nm  f=0.4419  <S**2>=0.000
     156 ->157         0.70883
     156 <-157        -0.12091
 This state for optimization and/or second-order correction.
 Total Energy, E(TD-HF/TD-DFT) =  -1948.95240455
 Copying the excited state density for this state as the 1-particle RhoCI density.

 The electronic state is 1-A.
 Alpha  occ. eigenvalues --  -19.19096 -19.18170 -19.16359 -19.13074 -19.10294
 Alpha  occ. eigenvalues --  -19.10077 -14.37520 -14.37382 -14.35646 -14.29160
 Alpha  occ. eigenvalues --  -10.34163 -10.31727 -10.29047 -10.25859 -10.24139
 Alpha  occ. eigenvalues --  -10.23960 -10.23505 -10.23396 -10.23050 -10.22772
 Alpha  occ. eigenvalues --  -10.21928 -10.21721 -10.21537 -10.21315 -10.21194
 Alpha  occ. eigenvalues --  -10.20644 -10.20640 -10.20637 -10.20532 -10.20412
 Alpha  occ. eigenvalues --  -10.20297 -10.20156 -10.20064 -10.19731 -10.19686
 Alpha  occ. eigenvalues --  -10.19636 -10.19357 -10.19050 -10.18600 -10.18472
 Alpha  occ. eigenvalues --  -10.18370 -10.18239 -10.17382  -1.12052  -1.11932
 Alpha  occ. eigenvalues --   -1.04744  -1.04308  -1.03597  -1.01814  -0.99021
 Alpha  occ. eigenvalues --   -0.97270  -0.95579  -0.91045  -0.84261  -0.82936
 Alpha  occ. eigenvalues --   -0.82223  -0.81769  -0.80236  -0.79717  -0.79232
 Alpha  occ. eigenvalues --   -0.77156  -0.76260  -0.74594  -0.73881  -0.72431
 Alpha  occ. eigenvalues --   -0.70789  -0.70154  -0.69523  -0.68817  -0.68486
 Alpha  occ. eigenvalues --   -0.67754  -0.65829  -0.64250  -0.62268  -0.61118
 Alpha  occ. eigenvalues --   -0.60767  -0.59782  -0.59598  -0.58963  -0.57115
 Alpha  occ. eigenvalues --   -0.56642  -0.55460  -0.54966  -0.53435  -0.53107
 Alpha  occ. eigenvalues --   -0.52780  -0.52663  -0.51723  -0.51398  -0.50382
 Alpha  occ. eigenvalues --   -0.49732  -0.49291  -0.48845  -0.48578  -0.48062
 Alpha  occ. eigenvalues --   -0.47323  -0.46787  -0.46570  -0.46039  -0.45574
 Alpha  occ. eigenvalues --   -0.45366  -0.45283  -0.45161  -0.44574  -0.44146
 Alpha  occ. eigenvalues --   -0.43961  -0.43442  -0.43333  -0.42895  -0.42320
 Alpha  occ. eigenvalues --   -0.41828  -0.41731  -0.41581  -0.41396  -0.41287
 Alpha  occ. eigenvalues --   -0.41012  -0.40796  -0.40626  -0.40323  -0.39927
 Alpha  occ. eigenvalues --   -0.39874  -0.39583  -0.39319  -0.38918  -0.38631
 Alpha  occ. eigenvalues --   -0.38437  -0.38293  -0.37644  -0.37429  -0.37130
 Alpha  occ. eigenvalues --   -0.36241  -0.35915  -0.35409  -0.35325  -0.34945
 Alpha  occ. eigenvalues --   -0.34246  -0.33830  -0.33751  -0.33606  -0.33235
 Alpha  occ. eigenvalues --   -0.32938  -0.31978  -0.31703  -0.30805  -0.30442
 Alpha  occ. eigenvalues --   -0.27959  -0.27932  -0.26727  -0.26166  -0.25460
 Alpha  occ. eigenvalues --   -0.24970  -0.24306  -0.23774  -0.23374  -0.21949
 Alpha  occ. eigenvalues --   -0.17870
 Alpha virt. eigenvalues --   -0.10285  -0.05409  -0.03841  -0.01947   0.00074
 Alpha virt. eigenvalues --    0.01654   0.02349   0.02612   0.03228   0.04400
 Alpha virt. eigenvalues --    0.04836   0.04879   0.04999   0.06076   0.06335

 Mulliken charges:
               1
     1  O   -0.235841
     2  O   -0.188381
     3  O   -0.136645
     4  O   -0.165649
     5  O   -0.178795
     6  O   -0.130018
     7  N   -0.120444
     8  N   -0.106743
     9  N   -0.136262
    10  N   -0.293018
    11  C   -0.196477
    12  C    0.177428
    13  C   -0.148014
    14  C    0.063604
    15  C   -0.069271
    16  C   -0.002023
    17  C   -0.032183
    18  C   -0.119142
    19  C    0.169941
    20  C    0.033580
    21  C    0.098247
    22  C    0.076867
    23  C   -0.069914
    24  C    0.197554
    25  C   -0.152166
    26  C    0.044553
    27  C    0.126657
    28  C    0.096256
    29  C   -0.158114
    30  C    0.044888
    31  C   -0.071250
    32  C    0.039096
    33  C   -0.119357
    34  C    0.075801
    35  C   -0.117263
    36  C   -0.188684
    37  C    0.115302
    38  C    0.061844
    39  C    0.098857
    40  C    0.007547
    41  C    0.117090
    42  C    0.258644
    43  C   -0.078758
    44  H    0.134107
    45  H   -0.025088
    46  H    0.017268
    47  H   -0.000779
    48  H    0.052823
    49  H    0.017010
    50  H   -0.002195
    51  H    0.057562
    52  H    0.164326
    53  H    0.040624
    54  H    0.044032
    55  H    0.014075
    56  H    0.142086
    57  H   -0.031426
    58  H    0.055560
    59  H    0.088097
    60  H    0.038024
    61  H    0.019526
    62  H    0.043576
    63  H    0.048870
    64  H   -0.055580
    65  H   -0.013723
    66  H    0.035439
    67  H    0.002705
    68  H    0.001005
    69  H    0.041338
    70  H   -0.003797
    71  H    0.037379
    72  H    0.011881
    73  H    0.047230
    74  H    0.028262
    75  H   -0.108966
    76  H   -0.000363
    77  H    0.031431
    78  H    0.024232
    79  H    0.046276
    80  H    0.143270
    81  H    0.124557
 Sum of Mulliken charges =  -0.00000

 Dipole moment (field-independent basis, Debye):
    X=             -3.0202    Y=              1.3675    Z=             -0.1142  Tot=              3.3173
 Quadrupole moment (field-independent basis, Debye-Ang):
   XX=           -251.8663   YY=           -245.8563   ZZ=           -255.7906
   XY=             19.3434   XZ=             13.6292   YZ=            -16.5223

 Normal termination of Gaussian 16 at Mon Jul  1 04:13:26 2019.
