 Gaussian 16, Revision A.03,
 Gaussian 16:  ES64L-G16RevA.03 25-Dec-2016

 --------------------------
 # td=(NStates=1) B3LYP/SVP
 --------------------------

 --
 TD
 --
 Symbolic Z-matrix:
 Charge =  0 Multiplicity = 1

                         Standard orientation:
 ---------------------------------------------------------------------
 Center     Atomic      Atomic             Coordinates (Angstroms)
 Number     Number       Type             X           Y           Z
 ---------------------------------------------------------------------
      1          8           0        4.298786   -4.933846   -1.810692
      2          8           0       -3.322389   -4.916458   -1.197798
      3          8           0       -7.037372   -1.410284   -1.950689
      4          8           0       -3.721902   -2.959206   -0.131252
      5          8           0       -7.498896   -0.530926    0.255407
      6          8           0        3.161824    2.425478    0.160674
      7          7           0        0.346581   -0.490580    0.735024
      8          7           0       -1.485179    1.910754    0.312180
      9          7           0        3.331066   -3.259175   -0.680345
     10          7           0        0.848812    2.961136   -0.047234
     11          6           0       -0.701821   -2.371292    1.399570
     12          6           0       -0.975285   -1.073709    1.075279
     13          6           0        0.675154   -2.597841    1.326005
     14          6           0        1.305483   -1.548865    0.803323
     15          6           0       -3.800972    1.501761    0.305598
     16          6           0       -2.446245    0.914643    0.505696
     17          6           0       -2.190533   -0.334350    0.899784
     18          6           0       -3.601316    2.920531   -0.005383
     19          6           0       -1.764535   -3.390404    1.824890
     20          6           0        5.524059   -2.785203   -1.336281
     21          6           0        3.574184   -1.950478   -0.152002
     22          6           0       -2.072681    3.123994   -0.036500
     23          6           0        5.029612   -1.728020   -0.352702
     24          6           0       -5.112499    0.818177    0.355902
     25          6           0        2.585605   -1.212985    0.440255
     26          6           0        1.315223   -3.896307    1.752430
     27          6           0        4.323759   -3.834171   -1.243567
     28          6           0       -2.152364   -4.485288    0.907315
     29          6           0       -5.366708   -0.153672   -0.824485
     30          6           0       -4.565681    3.940611   -0.333431
     31          6           0       -1.168852    4.205510   -0.307464
     32          6           0        6.827186   -3.357740   -1.093608
     33          6           0        5.860760   -0.730549    0.154725
     34          6           0        0.219862    4.063249   -0.202968
     35          6           0        1.071587    5.225477   -0.347276
     36          6           0        2.373919    4.723301   -0.338168
     37          6           0       -3.079140   -3.971366   -0.153172
     38          6           0        5.445116    0.278315    1.112341
     39          6           0       -6.836522   -0.628718   -0.785725
     40          6           0        3.722869    5.333367   -0.457816
     41          6           0        2.215720    3.170457   -0.107680
     42          6           0        0.652088    6.571867   -0.701660
     43          6           0        4.611693    5.594000    0.885778
     44          1           0        0.435354    0.319345    0.263675
     45          1           0       -3.164429   -0.967605    1.125845
     46          1           0       -2.807158   -2.757911    2.117611
     47          1           0       -1.574481   -4.124477    2.670411
     48          1           0        5.257069   -2.359421   -2.357982
     49          1           0       -5.079963    0.222902    1.253523
     50          1           0       -5.906165    1.677585    0.290706
     51          1           0        2.856397   -0.130978    0.689102
     52          1           0       -0.437826    1.871461    0.415012
     53          1           0        1.217493   -4.598242    1.071631
     54          1           0        2.409135   -3.854542    2.020226
     55          1           0        0.941442   -4.335491    2.642458
     56          1           0        2.468181   -3.597350   -0.709790
     57          1           0       -1.376675   -5.059753    0.497772
     58          1           0       -2.806046   -5.046799    1.591414
     59          1           0       -4.717877   -0.988835   -0.953306
     60          1           0       -5.325187    0.387137   -1.713404
     61          1           0       -4.566734    4.757325    0.598306
     62          1           0       -5.675043    3.347367   -0.267031
     63          1           0       -4.282429    4.386144   -1.117584
     64          1           0       -1.560541    5.138090   -0.553728
     65          1           0        7.654016   -2.689935   -1.193851
     66          1           0        7.099037   -4.298347   -1.662812
     67          1           0        7.045475   -3.760117   -0.068454
     68          1           0        6.908738   -0.798499   -0.192613
     69          1           0        4.883396    0.940928    0.511438
     70          1           0        6.131148    0.960046    1.688107
     71          1           0        4.624527    0.098741    1.809038
     72          1           0        3.736568    6.272970   -1.105962
     73          1           0        4.359271    4.640417   -1.076869
     74          1           0       -0.204377    6.384988   -1.512635
     75          1           0        1.593144    7.168187   -1.350675
     76          1           0        0.144092    7.083069    0.125294
     77          1           0        4.105766    6.176778    1.752354
     78          1           0        5.540862    5.970961    0.394093
     79          1           0        4.725862    4.482848    1.106052
     80          1           0       -4.033556   -4.362547   -1.674298
     81          1           0       -7.940211   -1.815256   -1.779655
 ---------------------------------------------------------------------

 SCF Done:  E(RB3LYP) =  -1949.09206240     A.U. after   16 cycles

 Excitation energies and oscillator strengths:

 Excited State   1:      Singlet-A      1.9143 eV  647.67 nm  f=0.3229  <S**2>=0.000
     156 ->157         0.70469
 This state for optimization and/or second-order correction.
 Total Energy, E(TD-HF/TD-DFT) =  -1949.02171251
 Copying the excited state density for this state as the 1-particle RhoCI density.

 The electronic state is 1-A.
 Alpha  occ. eigenvalues --  -19.19958 -19.18669 -19.15755 -19.14799 -19.11608
 Alpha  occ. eigenvalues --  -19.08912 -14.36568 -14.36260 -14.35941 -14.29135
 Alpha  occ. eigenvalues --  -10.33755 -10.33529 -10.27551 -10.27522 -10.25824
 Alpha  occ. eigenvalues --  -10.24780 -10.23901 -10.23484 -10.22719 -10.22674
 Alpha  occ. eigenvalues --  -10.22546 -10.22179 -10.22084 -10.22043 -10.21880
 Alpha  occ. eigenvalues --  -10.21493 -10.21483 -10.21331 -10.20551 -10.20313
 Alpha  occ. eigenvalues --  -10.20044 -10.20038 -10.19998 -10.19598 -10.19466
 Alpha  occ. eigenvalues --  -10.19203 -10.19192 -10.19121 -10.18987 -10.18756
 Alpha  occ. eigenvalues --  -10.18528 -10.17882 -10.17178  -1.10321  -1.07976
 Alpha  occ. eigenvalues --   -1.02963  -1.01539  -1.01248  -1.00996  -0.96994
 Alpha  occ. eigenvalues --   -0.96008  -0.95038  -0.93740  -0.83662  -0.82570
 Alpha  occ. eigenvalues --   -0.82001  -0.81642  -0.80016  -0.79424  -0.79206
 Alpha  occ. eigenvalues --   -0.77909  -0.76754  -0.75799  -0.74401  -0.73061
 Alpha  occ. eigenvalues --   -0.72287  -0.70863  -0.69237  -0.68305  -0.67451
 Alpha  occ. eigenvalues --   -0.67080  -0.65933  -0.64950  -0.63051  -0.61192
 Alpha  occ. eigenvalues --   -0.60381  -0.59323  -0.58964  -0.58499  -0.57148
 Alpha  occ. eigenvalues --   -0.56541  -0.55166  -0.54389  -0.53941  -0.53496
 Alpha  occ. eigenvalues --   -0.52423  -0.52217  -0.51602  -0.50885  -0.50209
 Alpha  occ. eigenvalues --   -0.49815  -0.49704  -0.48851  -0.48288  -0.48042
 Alpha  occ. eigenvalues --   -0.47566  -0.46996  -0.46917  -0.46509  -0.45588
 Alpha  occ. eigenvalues --   -0.45054  -0.44557  -0.44430  -0.44156  -0.43884
 Alpha  occ. eigenvalues --   -0.43424  -0.43273  -0.43120  -0.42961  -0.42481
 Alpha  occ. eigenvalues --   -0.42429  -0.42041  -0.41462  -0.41129  -0.40932
 Alpha  occ. eigenvalues --   -0.40925  -0.40776  -0.40312  -0.40045  -0.39887
 Alpha  occ. eigenvalues --   -0.39755  -0.39430  -0.39083  -0.38834  -0.38368
 Alpha  occ. eigenvalues --   -0.38198  -0.37755  -0.37468  -0.37132  -0.36616
 Alpha  occ. eigenvalues --   -0.36423  -0.35877  -0.35664  -0.35502  -0.35181
 Alpha  occ. eigenvalues --   -0.34731  -0.34417  -0.33974  -0.33712  -0.33592
 Alpha  occ. eigenvalues --   -0.33491  -0.32318  -0.32206  -0.30922  -0.30277
 Alpha  occ. eigenvalues --   -0.29145  -0.28375  -0.26394  -0.25558  -0.25170
 Alpha  occ. eigenvalues --   -0.24664  -0.24070  -0.23598  -0.22924  -0.21848
 Alpha  occ. eigenvalues --   -0.18521
 Alpha virt. eigenvalues --   -0.10665  -0.06287  -0.04403  -0.02673  -0.02228
 Alpha virt. eigenvalues --    0.01042   0.01922   0.02586   0.02715   0.03296
 Alpha virt. eigenvalues --    0.03869   0.04265   0.04855   0.05191   0.05442

 Mulliken charges:
               1
     1  O   -0.256665
     2  O   -0.254397
     3  O   -0.236875
     4  O   -0.206841
     5  O   -0.235676
     6  O   -0.216322
     7  N   -0.152724
     8  N   -0.136758
     9  N    0.044566
    10  N   -0.243093
    11  C   -0.011889
    12  C    0.067741
    13  C   -0.160669
    14  C    0.145782
    15  C   -0.103642
    16  C    0.134066
    17  C   -0.089129
    18  C   -0.127701
    19  C   -0.026613
    20  C   -0.045975
    21  C    0.085298
    22  C    0.110758
    23  C   -0.061892
    24  C    0.113866
    25  C   -0.164514
    26  C    0.149790
    27  C    0.038856
    28  C    0.093907
    29  C    0.031249
    30  C    0.096317
    31  C   -0.131888
    32  C    0.061492
    33  C   -0.075799
    34  C    0.102191
    35  C   -0.096712
    36  C   -0.167544
    37  C    0.130762
    38  C    0.065038
    39  C    0.179957
    40  C   -0.002876
    41  C    0.175133
    42  C    0.020971
    43  C   -0.041613
    44  H    0.080309
    45  H    0.034278
    46  H    0.042243
    47  H    0.011546
    48  H    0.054883
    49  H    0.019236
    50  H    0.028842
    51  H    0.039431
    52  H    0.154360
    53  H   -0.023339
    54  H    0.025395
    55  H   -0.007964
    56  H    0.070036
    57  H    0.025733
    58  H    0.048234
    59  H    0.047097
    60  H   -0.003320
    61  H    0.047848
    62  H    0.042725
    63  H   -0.017717
    64  H   -0.067268
    65  H    0.000639
    66  H    0.029584
    67  H    0.002627
    68  H   -0.006429
    69  H    0.041759
    70  H    0.016844
    71  H    0.016776
    72  H   -0.003304
    73  H    0.012858
    74  H    0.038682
    75  H    0.057575
    76  H    0.030905
    77  H    0.048691
    78  H    0.029478
    79  H    0.044997
    80  H    0.193935
    81  H    0.191863
 Sum of Mulliken charges =  -0.00000

 Dipole moment (field-independent basis, Debye):
    X=             -4.4418    Y=              1.6516    Z=              0.3538  Tot=              4.7521
 Quadrupole moment (field-independent basis, Debye-Ang):
   XX=           -245.5767   YY=           -250.5093   ZZ=           -257.9728
   XY=             18.4680   XZ=             15.6681   YZ=            -18.2682

 Normal termination of Gaussian 16 at Tue Jul  2 01:45:01 2019.
