 Gaussian 16, Revision A.03,
 Gaussian 16:  ES64L-G16RevA.03 25-Dec-2016

 --------------------------
 # td=(NStates=1) B3LYP/SVP
 --------------------------

 --
 TD
 --
 Symbolic Z-matrix:
 Charge =  0 Multiplicity = 1

                         Standard orientation:
 ---------------------------------------------------------------------
 Center     Atomic      Atomic             Coordinates (Angstroms)
 Number     Number       Type             X           Y           Z
 ---------------------------------------------------------------------
      1          8           0       -4.597999   -4.724241    1.859608
      2          8           0        3.048772   -5.075885    1.222367
      3          8           0        7.063109   -1.506631    1.891587
      4          8           0        3.767440   -3.165228    0.182245
      5          8           0        7.767285   -0.375821   -0.058412
      6          8           0       -2.952886    2.348008   -0.036614
      7          7           0       -0.290393   -0.510788   -0.640316
      8          7           0        1.567042    1.817362   -0.515061
      9          7           0       -3.529359   -3.150105    0.545465
     10          7           0       -0.699489    2.856265    0.033377
     11          6           0        0.635424   -2.370195   -1.274135
     12          6           0        0.987667   -1.085596   -0.938311
     13          6           0       -0.727932   -2.640461   -1.238891
     14          6           0       -1.323183   -1.496440   -0.782039
     15          6           0        3.802175    1.442201   -0.279618
     16          6           0        2.541348    0.787728   -0.579452
     17          6           0        2.230744   -0.487665   -0.880769
     18          6           0        3.561847    2.852784   -0.012954
     19          6           0        1.726909   -3.427566   -1.908776
     20          6           0       -5.634462   -2.550695    1.322407
     21          6           0       -3.706336   -1.815133    0.088253
     22          6           0        2.081346    3.007892   -0.122237
     23          6           0       -5.072278   -1.533361    0.322348
     24          6           0        5.083660    0.676153   -0.385253
     25          6           0       -2.675380   -1.103582   -0.489471
     26          6           0       -1.333673   -3.856741   -1.656449
     27          6           0       -4.575951   -3.658552    1.265503
     28          6           0        2.137552   -4.539689   -0.946230
     29          6           0        5.407665   -0.141938    0.790334
     30          6           0        4.456953    3.902518    0.235911
     31          6           0        1.274935    4.188475    0.148661
     32          6           0       -7.075189   -3.073605    1.043837
     33          6           0       -5.764004   -0.534818   -0.226809
     34          6           0       -0.074231    4.051896    0.177390
     35          6           0       -1.062539    5.170627    0.446589
     36          6           0       -2.384839    4.685298    0.441219
     37          6           0        3.091314   -4.146905    0.256868
     38          6           0       -5.321061    0.472248   -1.275741
     39          6           0        6.855081   -0.573297    0.780289
     40          6           0       -3.699546    5.325565    0.378069
     41          6           0       -2.119468    3.204506    0.104306
     42          6           0       -0.535251    6.476311    0.968873
     43          6           0       -4.289082    5.395871   -0.973166
     44          1           0       -0.377488    0.316745   -0.081281
     45          1           0        2.920674   -1.132681   -1.052829
     46          1           0        2.672214   -3.027985   -2.272102
     47          1           0        1.146126   -4.162009   -2.589911
     48          1           0       -5.577631   -2.299787    2.440957
     49          1           0        4.879812   -0.014838   -1.288731
     50          1           0        5.805928    1.398444   -0.617515
     51          1           0       -2.911017    0.178845   -0.515326
     52          1           0        0.655396    1.749410   -0.665167
     53          1           0       -1.369168   -4.577989   -0.806880
     54          1           0       -2.334749   -3.812676   -1.721021
     55          1           0       -0.862845   -4.521530   -2.515136
     56          1           0       -2.444159   -3.474321    0.716036
     57          1           0        1.288671   -5.109424   -0.630604
     58          1           0        2.829630   -5.311290   -1.493514
     59          1           0        4.700860   -0.921456    0.889126
     60          1           0        5.440700    0.512006    1.699769
     61          1           0        4.439203    4.663728   -0.658597
     62          1           0        5.480024    3.571036    0.099567
     63          1           0        4.434270    4.288038    1.336889
     64          1           0        1.814465    4.961355    0.528831
     65          1           0       -7.866147   -2.304153    1.309074
     66          1           0       -7.166478   -4.073386    1.664664
     67          1           0       -7.333688   -3.320976   -0.043587
     68          1           0       -6.766216   -0.434014    0.124959
     69          1           0       -4.874610    1.502191   -0.676751
     70          1           0       -6.195901    0.884442   -1.858608
     71          1           0       -4.561144    0.004783   -1.958108
     72          1           0       -3.517013    6.365823    0.869687
     73          1           0       -4.288571    4.884515    1.245276
     74          1           0       -0.031243    6.381202    1.884990
     75          1           0       -1.382097    7.250643    1.107445
     76          1           0        0.010088    7.072236    0.231133
     77          1           0       -3.671986    5.962282   -1.576875
     78          1           0       -5.235916    5.746056   -0.779967
     79          1           0       -4.361694    4.372325   -1.304388
     80          1           0        3.601541   -4.711795    2.005286
     81          1           0        7.908493   -1.569534    1.699375
 ---------------------------------------------------------------------

 SCF Done:  E(RB3LYP) =  -1949.11299319     A.U. after   16 cycles

 Excitation energies and oscillator strengths:

 Excited State   1:      Singlet-A      1.8910 eV  655.64 nm  f=0.3508  <S**2>=0.000
     156 ->157         0.70465
     156 <-157        -0.10838
 This state for optimization and/or second-order correction.
 Total Energy, E(TD-HF/TD-DFT) =  -1949.04349860
 Copying the excited state density for this state as the 1-particle RhoCI density.

 The electronic state is 1-A.
 Alpha  occ. eigenvalues --  -19.20596 -19.16869 -19.15104 -19.14574 -19.10703
 Alpha  occ. eigenvalues --  -19.10639 -14.37462 -14.36462 -14.35681 -14.28234
 Alpha  occ. eigenvalues --  -10.33680 -10.33388 -10.28799 -10.26521 -10.24522
 Alpha  occ. eigenvalues --  -10.24033 -10.23845 -10.23374 -10.22608 -10.21871
 Alpha  occ. eigenvalues --  -10.21668 -10.21474 -10.21352 -10.21297 -10.21138
 Alpha  occ. eigenvalues --  -10.20857 -10.20763 -10.20569 -10.20192 -10.20108
 Alpha  occ. eigenvalues --  -10.20105 -10.20078 -10.20075 -10.19633 -10.19594
 Alpha  occ. eigenvalues --  -10.19532 -10.19487 -10.19436 -10.19370 -10.19197
 Alpha  occ. eigenvalues --  -10.19148 -10.17693 -10.16730  -1.11045  -1.08621
 Alpha  occ. eigenvalues --   -1.03156  -1.02856  -1.02305  -1.00447  -0.98035
 Alpha  occ. eigenvalues --   -0.96279  -0.94732  -0.89674  -0.83700  -0.82490
 Alpha  occ. eigenvalues --   -0.81730  -0.81159  -0.80446  -0.79767  -0.78525
 Alpha  occ. eigenvalues --   -0.77347  -0.76318  -0.75811  -0.74204  -0.73058
 Alpha  occ. eigenvalues --   -0.72497  -0.69851  -0.69535  -0.68297  -0.67833
 Alpha  occ. eigenvalues --   -0.66985  -0.65441  -0.63749  -0.62846  -0.61432
 Alpha  occ. eigenvalues --   -0.59854  -0.58900  -0.58071  -0.57260  -0.57202
 Alpha  occ. eigenvalues --   -0.56432  -0.55700  -0.54297  -0.54125  -0.52660
 Alpha  occ. eigenvalues --   -0.51945  -0.51654  -0.51475  -0.50994  -0.50120
 Alpha  occ. eigenvalues --   -0.49583  -0.49261  -0.48473  -0.48394  -0.47874
 Alpha  occ. eigenvalues --   -0.47236  -0.47079  -0.46384  -0.46192  -0.45428
 Alpha  occ. eigenvalues --   -0.45028  -0.44624  -0.44505  -0.44204  -0.44043
 Alpha  occ. eigenvalues --   -0.43459  -0.43367  -0.43088  -0.42629  -0.42437
 Alpha  occ. eigenvalues --   -0.42257  -0.41936  -0.41617  -0.41457  -0.41312
 Alpha  occ. eigenvalues --   -0.41036  -0.40704  -0.40309  -0.40086  -0.39958
 Alpha  occ. eigenvalues --   -0.39326  -0.39262  -0.39140  -0.38874  -0.38115
 Alpha  occ. eigenvalues --   -0.37813  -0.37395  -0.37240  -0.37063  -0.36964
 Alpha  occ. eigenvalues --   -0.36821  -0.36606  -0.35796  -0.35151  -0.34968
 Alpha  occ. eigenvalues --   -0.34580  -0.34300  -0.33857  -0.33633  -0.33613
 Alpha  occ. eigenvalues --   -0.32934  -0.32582  -0.32476  -0.30484  -0.29567
 Alpha  occ. eigenvalues --   -0.29164  -0.27462  -0.26716  -0.25927  -0.25234
 Alpha  occ. eigenvalues --   -0.25047  -0.24707  -0.23732  -0.23346  -0.21182
 Alpha  occ. eigenvalues --   -0.17979
 Alpha virt. eigenvalues --   -0.10375  -0.06017  -0.04053  -0.02779  -0.00301
 Alpha virt. eigenvalues --   -0.00135   0.01849   0.02290   0.02970   0.03363
 Alpha virt. eigenvalues --    0.04018   0.04927   0.05327   0.05692   0.06594

 Mulliken charges:
               1
     1  O   -0.220524
     2  O   -0.191471
     3  O   -0.182607
     4  O   -0.205868
     5  O   -0.247562
     6  O   -0.189842
     7  N   -0.157140
     8  N   -0.007819
     9  N   -0.187543
    10  N   -0.347050
    11  C   -0.083499
    12  C    0.061166
    13  C   -0.124472
    14  C    0.084244
    15  C   -0.099483
    16  C    0.127321
    17  C    0.071250
    18  C   -0.133647
    19  C    0.115681
    20  C   -0.065062
    21  C    0.088040
    22  C    0.035249
    23  C    0.027182
    24  C    0.118231
    25  C   -0.198305
    26  C    0.133757
    27  C    0.117302
    28  C   -0.058722
    29  C    0.070820
    30  C    0.060930
    31  C   -0.078866
    32  C   -0.024114
    33  C   -0.120572
    34  C    0.151454
    35  C   -0.112571
    36  C   -0.182220
    37  C    0.133248
    38  C   -0.026003
    39  C    0.163385
    40  C    0.019785
    41  C    0.145192
    42  C    0.101184
    43  C    0.147995
    44  H    0.132775
    45  H   -0.141847
    46  H    0.022576
    47  H    0.016525
    48  H    0.060224
    49  H    0.034811
    50  H   -0.011592
    51  H    0.120303
    52  H    0.054813
    53  H    0.001977
    54  H   -0.029809
    55  H    0.040184
    56  H    0.180775
    57  H    0.014758
    58  H    0.048149
    59  H    0.046957
    60  H    0.035861
    61  H    0.045866
    62  H   -0.011752
    63  H    0.051419
    64  H   -0.066350
    65  H    0.029998
    66  H    0.054999
    67  H    0.025060
    68  H   -0.028366
    69  H    0.111265
    70  H    0.015371
    71  H    0.048854
    72  H   -0.010738
    73  H    0.011956
    74  H    0.028602
    75  H    0.003677
    76  H    0.010862
    77  H    0.000361
    78  H   -0.006568
    79  H    0.017202
    80  H    0.208439
    81  H    0.103947
 Sum of Mulliken charges =  -0.00000

 Dipole moment (field-independent basis, Debye):
    X=              1.9154    Y=              1.9538    Z=              0.5294  Tot=              2.7868
 Quadrupole moment (field-independent basis, Debye-Ang):
   XX=           -257.9941   YY=           -240.7685   ZZ=           -254.0841
   XY=            -16.2400   XZ=             13.7359   YZ=             11.9570

 Normal termination of Gaussian 16 at Sat Jun 29 17:39:01 2019.
