 Gaussian 16, Revision A.03,
 Gaussian 16:  ES64L-G16RevA.03 25-Dec-2016

 --------------------------
 # td=(NStates=1) B3LYP/SVP
 --------------------------

 --
 TD
 --
 Symbolic Z-matrix:
 Charge =  0 Multiplicity = 1

                         Standard orientation:
 ---------------------------------------------------------------------
 Center     Atomic      Atomic             Coordinates (Angstroms)
 Number     Number       Type             X           Y           Z
 ---------------------------------------------------------------------
      1          8           0       -4.241769   -4.736243    2.205935
      2          8           0        3.260899   -4.691589    1.354751
      3          8           0        7.016124   -1.323597    1.821579
      4          8           0        4.027066   -3.019205    0.043916
      5          8           0        7.628748   -0.307471   -0.214705
      6          8           0       -3.086164    2.305862   -0.448117
      7          7           0       -0.261007   -0.569252   -0.693039
      8          7           0        1.478936    1.902514   -0.491043
      9          7           0       -3.278923   -3.181496    0.745236
     10          7           0       -0.888229    2.948778   -0.138964
     11          6           0        0.755459   -2.470140   -1.401473
     12          6           0        1.012517   -1.045187   -0.988817
     13          6           0       -0.631971   -2.754031   -1.214078
     14          6           0       -1.191880   -1.600284   -0.779626
     15          6           0        3.741879    1.663197   -0.295539
     16          6           0        2.419531    0.940930   -0.591745
     17          6           0        2.201864   -0.376660   -0.920282
     18          6           0        3.420131    2.942968    0.100127
     19          6           0        1.815101   -3.549073   -1.860699
     20          6           0       -5.417899   -2.747616    1.292859
     21          6           0       -3.518987   -1.967133    0.046634
     22          6           0        1.974917    3.067801   -0.008708
     23          6           0       -4.962814   -1.676607    0.377716
     24          6           0        5.147378    0.972421   -0.495143
     25          6           0       -2.577722   -1.220065   -0.592961
     26          6           0       -1.357472   -3.904812   -1.756437
     27          6           0       -4.312361   -3.712200    1.547942
     28          6           0        2.280244   -4.493999   -0.741442
     29          6           0        5.503159    0.028570    0.679798
     30          6           0        4.325027    3.940685    0.575330
     31          6           0        1.124816    4.188858    0.236550
     32          6           0       -6.792019   -3.467590    0.931353
     33          6           0       -5.788482   -0.796126   -0.264088
     34          6           0       -0.246623    4.037177    0.220609
     35          6           0       -1.313739    5.129709    0.537783
     36          6           0       -2.471707    4.540065    0.275245
     37          6           0        3.215857   -3.922828    0.239058
     38          6           0       -5.467435    0.178534   -1.271162
     39          6           0        6.870570   -0.496747    0.645033
     40          6           0       -3.854535    5.096235    0.504113
     41          6           0       -2.225619    3.172018   -0.184773
     42          6           0       -0.894353    6.490120    0.973596
     43          6           0       -4.625611    5.386543   -0.710157
     44          1           0       -0.494055    0.277816   -0.200237
     45          1           0        3.147767   -0.959658   -1.256008
     46          1           0        2.705437   -2.903073   -2.185864
     47          1           0        1.406344   -3.960461   -2.859146
     48          1           0       -5.494576   -2.298780    2.425875
     49          1           0        4.952722    0.318537   -1.321073
     50          1           0        5.949670    1.760218   -0.593612
     51          1           0       -2.886236   -0.356725   -1.005207
     52          1           0        0.429958    2.236001   -0.703025
     53          1           0       -1.267966   -4.694014   -0.936838
     54          1           0       -2.538165   -3.668529   -1.872360
     55          1           0       -0.978291   -4.293742   -2.719243
     56          1           0       -2.377901   -3.537139    0.827127
     57          1           0        1.312288   -4.895156   -0.140185
     58          1           0        2.787909   -5.277267   -1.368053
     59          1           0        4.776761   -0.817987    0.846285
     60          1           0        5.402706    0.484622    1.516588
     61          1           0        4.457640    4.776959   -0.218648
     62          1           0        5.446291    3.669855    0.978832
     63          1           0        3.881506    4.694658    1.455978
     64          1           0        1.614518    5.074703    0.474426
     65          1           0       -7.692752   -2.857927    1.147302
     66          1           0       -6.856382   -4.435156    1.607537
     67          1           0       -6.754000   -3.748452   -0.108638
     68          1           0       -6.891585   -0.801021    0.058046
     69          1           0       -4.814312    0.991502   -0.904074
     70          1           0       -6.425093    0.617786   -1.656274
     71          1           0       -4.897644   -0.245588   -2.128497
     72          1           0       -3.571880    5.955548    1.005873
     73          1           0       -4.267632    4.464543    1.239310
     74          1           0       -0.072530    6.530705    1.659578
     75          1           0       -1.801066    7.126154    1.410856
     76          1           0       -0.812679    7.346401    0.000410
     77          1           0       -4.394274    6.404253   -1.334898
     78          1           0       -5.589284    5.761915   -0.432547
     79          1           0       -4.379927    4.411495   -1.277917
     80          1           0        3.881606   -4.412704    1.893189
     81          1           0        7.967102   -1.714549    1.973244
 ---------------------------------------------------------------------

 SCF Done:  E(RB3LYP) =  -1949.12891919     A.U. after   16 cycles

 Excitation energies and oscillator strengths:

 Excited State   1:      Singlet-A      1.9815 eV  625.71 nm  f=0.4207  <S**2>=0.000
     156 ->157         0.70594
     156 <-157        -0.11857
 This state for optimization and/or second-order correction.
 Total Energy, E(TD-HF/TD-DFT) =  -1949.05610018
 Copying the excited state density for this state as the 1-particle RhoCI density.

 The electronic state is 1-A.
 Alpha  occ. eigenvalues --  -19.19050 -19.16668 -19.14576 -19.13699 -19.11403
 Alpha  occ. eigenvalues --  -19.09824 -14.37484 -14.36241 -14.35341 -14.28932
 Alpha  occ. eigenvalues --  -10.34163 -10.31537 -10.29428 -10.26090 -10.24561
 Alpha  occ. eigenvalues --  -10.23769 -10.23697 -10.23608 -10.23391 -10.23118
 Alpha  occ. eigenvalues --  -10.22664 -10.22495 -10.22126 -10.21711 -10.21606
 Alpha  occ. eigenvalues --  -10.21396 -10.21229 -10.21170 -10.20956 -10.20811
 Alpha  occ. eigenvalues --  -10.20087 -10.19977 -10.19872 -10.19830 -10.19742
 Alpha  occ. eigenvalues --  -10.19199 -10.18422 -10.18280 -10.18237 -10.18117
 Alpha  occ. eigenvalues --  -10.17687 -10.17542 -10.16868  -1.12297  -1.08489
 Alpha  occ. eigenvalues --   -1.03164  -1.02304  -1.00306  -0.99471  -0.98387
 Alpha  occ. eigenvalues --   -0.97449  -0.94642  -0.92813  -0.82344  -0.81958
 Alpha  occ. eigenvalues --   -0.81505  -0.81358  -0.80622  -0.79673  -0.78424
 Alpha  occ. eigenvalues --   -0.77927  -0.76815  -0.75358  -0.74863  -0.72415
 Alpha  occ. eigenvalues --   -0.70880  -0.69508  -0.69459  -0.68870  -0.67731
 Alpha  occ. eigenvalues --   -0.66890  -0.65858  -0.64575  -0.62430  -0.62093
 Alpha  occ. eigenvalues --   -0.61624  -0.59795  -0.57826  -0.57364  -0.56490
 Alpha  occ. eigenvalues --   -0.55798  -0.55576  -0.55109  -0.53676  -0.53229
 Alpha  occ. eigenvalues --   -0.52665  -0.51690  -0.51199  -0.50438  -0.50058
 Alpha  occ. eigenvalues --   -0.49537  -0.49257  -0.48668  -0.47488  -0.47114
 Alpha  occ. eigenvalues --   -0.46969  -0.46852  -0.46456  -0.45911  -0.45457
 Alpha  occ. eigenvalues --   -0.44852  -0.44389  -0.44377  -0.43923  -0.43272
 Alpha  occ. eigenvalues --   -0.43118  -0.43098  -0.42684  -0.42525  -0.42216
 Alpha  occ. eigenvalues --   -0.42171  -0.42007  -0.41131  -0.41072  -0.40849
 Alpha  occ. eigenvalues --   -0.40771  -0.40680  -0.40325  -0.39733  -0.39526
 Alpha  occ. eigenvalues --   -0.39489  -0.38968  -0.38746  -0.38510  -0.38217
 Alpha  occ. eigenvalues --   -0.37811  -0.37340  -0.37237  -0.36575  -0.36084
 Alpha  occ. eigenvalues --   -0.35947  -0.35887  -0.35377  -0.35255  -0.34872
 Alpha  occ. eigenvalues --   -0.34426  -0.34216  -0.33973  -0.33244  -0.33009
 Alpha  occ. eigenvalues --   -0.32489  -0.32203  -0.30747  -0.30123  -0.29772
 Alpha  occ. eigenvalues --   -0.28747  -0.27054  -0.26711  -0.25981  -0.25366
 Alpha  occ. eigenvalues --   -0.25052  -0.24866  -0.24171  -0.23777  -0.21916
 Alpha  occ. eigenvalues --   -0.18034
 Alpha virt. eigenvalues --   -0.10310  -0.05506  -0.03711  -0.02970  -0.00068
 Alpha virt. eigenvalues --    0.01241   0.01627   0.02683   0.02795   0.03756
 Alpha virt. eigenvalues --    0.04390   0.04633   0.04953   0.05629   0.06007

 Mulliken charges:
               1
     1  O   -0.207110
     2  O   -0.109564
     3  O   -0.317869
     4  O   -0.233346
     5  O   -0.152644
     6  O   -0.244667
     7  N   -0.083880
     8  N   -0.095257
     9  N   -0.149405
    10  N   -0.261445
    11  C   -0.167722
    12  C    0.095678
    13  C   -0.115019
    14  C    0.077066
    15  C   -0.129299
    16  C    0.059186
    17  C   -0.089442
    18  C   -0.040925
    19  C    0.044556
    20  C   -0.100606
    21  C    0.085214
    22  C    0.016584
    23  C    0.014110
    24  C    0.168926
    25  C   -0.042500
    26  C    0.033058
    27  C    0.139112
    28  C    0.013687
    29  C    0.043320
    30  C   -0.058362
    31  C   -0.069867
    32  C    0.028925
    33  C   -0.171899
    34  C    0.071114
    35  C   -0.037128
    36  C   -0.246303
    37  C    0.135308
    38  C    0.058602
    39  C    0.162587
    40  C    0.214045
    41  C    0.144708
    42  C    0.000920
    43  C   -0.020320
    44  H    0.138577
    45  H    0.040253
    46  H    0.019990
    47  H    0.033599
    48  H    0.062169
    49  H    0.005858
    50  H    0.026673
    51  H   -0.051561
    52  H    0.189223
    53  H    0.025001
    54  H    0.055660
    55  H    0.030549
    56  H    0.096820
    57  H    0.067262
    58  H    0.070452
    59  H    0.054743
    60  H   -0.044271
    61  H    0.034109
    62  H    0.052612
    63  H    0.032303
    64  H   -0.062135
    65  H    0.028795
    66  H    0.047409
    67  H    0.020632
    68  H    0.007704
    69  H    0.083160
    70  H    0.010519
    71  H    0.025959
    72  H   -0.066207
    73  H   -0.000765
    74  H    0.035677
    75  H    0.023791
    76  H    0.047327
    77  H    0.006705
    78  H    0.000956
    79  H    0.058127
    80  H    0.126050
    81  H    0.204148
 Sum of Mulliken charges =  -0.00000

 Dipole moment (field-independent basis, Debye):
    X=              2.6548    Y=              0.4032    Z=              0.3740  Tot=              2.7111
 Quadrupole moment (field-independent basis, Debye-Ang):
   XX=           -248.9386   YY=           -238.2442   ZZ=           -255.2370
   XY=            -15.9117   XZ=             17.4556   YZ=             17.1776

 Normal termination of Gaussian 16 at Wed Jul  3 16:41:49 2019.
