 Gaussian 16, Revision A.03,
 Gaussian 16:  ES64L-G16RevA.03 25-Dec-2016

 --------------------------
 # td=(NStates=1) B3LYP/SVP
 --------------------------

 --
 TD
 --
 Symbolic Z-matrix:
 Charge =  0 Multiplicity = 1

                         Standard orientation:
 ---------------------------------------------------------------------
 Center     Atomic      Atomic             Coordinates (Angstroms)
 Number     Number       Type             X           Y           Z
 ---------------------------------------------------------------------
      1          8           0        4.485850   -4.665736   -1.983078
      2          8           0       -2.659279   -4.800490   -1.420674
      3          8           0       -7.169339   -1.341644   -1.790836
      4          8           0       -3.700075   -3.197824   -0.311371
      5          8           0       -7.720256   -0.508100    0.245575
      6          8           0        3.041379    2.464020    0.397144
      7          7           0        0.313097   -0.525918    0.708442
      8          7           0       -1.599653    1.707718    0.353139
      9          7           0        3.436361   -3.032634   -0.739412
     10          7           0        0.703081    2.819062    0.137786
     11          6           0       -0.650313   -2.416846    1.356642
     12          6           0       -0.897305   -1.133775    0.848173
     13          6           0        0.722408   -2.628750    1.292918
     14          6           0        1.313327   -1.378112    0.847149
     15          6           0       -3.802911    1.398243    0.388878
     16          6           0       -2.521244    0.791700    0.609823
     17          6           0       -2.196422   -0.571259    1.060497
     18          6           0       -3.578930    2.662146   -0.050113
     19          6           0       -1.556531   -3.528345    1.812839
     20          6           0        5.569027   -2.414856   -1.377870
     21          6           0        3.592536   -1.779396   -0.112307
     22          6           0       -2.196577    2.912435   -0.014508
     23          6           0        5.043288   -1.403167   -0.325534
     24          6           0       -5.200745    0.694725    0.484361
     25          6           0        2.648933   -1.044450    0.468721
     26          6           0        1.499461   -3.855937    1.852144
     27          6           0        4.524449   -3.556741   -1.434556
     28          6           0       -2.062320   -4.627206    0.833333
     29          6           0       -5.467336   -0.286289   -0.567841
     30          6           0       -4.622537    3.677071   -0.534471
     31          6           0       -1.354254    3.980588   -0.309938
     32          6           0        7.007917   -3.093976   -1.053837
     33          6           0        5.802441   -0.459474    0.131057
     34          6           0       -0.009989    3.946358   -0.319157
     35          6           0        0.942040    5.113515   -0.573595
     36          6           0        2.185453    4.573823   -0.385401
     37          6           0       -2.849878   -4.071384   -0.275605
     38          6           0        5.609118    0.547612    1.314392
     39          6           0       -6.933366   -0.708921   -0.719112
     40          6           0        3.531494    5.334883   -0.426741
     41          6           0        2.068007    3.266890    0.141828
     42          6           0        0.556266    6.436891   -1.019628
     43          6           0        4.161177    5.593334    0.952717
     44          1           0        0.692411    0.285395    0.202088
     45          1           0       -3.039062   -1.236443    1.215361
     46          1           0       -2.448657   -2.969875    2.078880
     47          1           0       -1.341032   -3.952607    2.855721
     48          1           0        5.570515   -2.104669   -2.508713
     49          1           0       -5.243170    0.251930    1.492650
     50          1           0       -5.855859    1.409941    0.724323
     51          1           0        2.794878    0.060203    0.734775
     52          1           0       -0.380033    1.727858    0.481919
     53          1           0        1.579326   -4.597977    0.987102
     54          1           0        2.663364   -3.564354    2.093683
     55          1           0        1.101683   -4.203937    2.953967
     56          1           0        2.429952   -3.508407   -0.659627
     57          1           0       -1.260126   -5.100686    0.411298
     58          1           0       -2.486409   -5.312928    1.599108
     59          1           0       -4.737818   -1.116241   -0.533267
     60          1           0       -5.145965    0.362946   -1.411803
     61          1           0       -4.575853    4.602019   -0.036925
     62          1           0       -5.488788    3.156311   -0.208470
     63          1           0       -4.467982    4.038990   -1.596721
     64          1           0       -1.942876    4.918311   -0.538484
     65          1           0        7.940613   -2.404698   -1.153482
     66          1           0        7.159445   -3.992374   -1.790602
     67          1           0        7.084057   -3.321333    0.008533
     68          1           0        6.976023   -0.638462   -0.132540
     69          1           0        4.795909    1.332030    1.064865
     70          1           0        6.649124    0.860294    1.466385
     71          1           0        5.141393    0.029123    2.364684
     72          1           0        3.472694    6.294395   -0.859214
     73          1           0        4.240694    4.848949   -1.194817
     74          1           0        0.057681    6.370258   -1.887291
     75          1           0        1.323083    7.166149   -1.273559
     76          1           0        0.039328    7.192579   -0.264249
     77          1           0        3.482309    6.450804    1.589074
     78          1           0        5.053111    5.986704    0.591156
     79          1           0        4.203266    4.644418    1.484612
     80          1           0       -3.241665   -4.574522   -2.257090
     81          1           0       -8.252093   -1.597488   -1.778623
 ---------------------------------------------------------------------

 SCF Done:  E(RB3LYP) =  -1949.07953711     A.U. after   19 cycles

 Excitation energies and oscillator strengths:

 Excited State   1:      Singlet-A      1.8631 eV  665.47 nm  f=0.3754  <S**2>=0.000
     156 ->157         0.71055
     156 <-157        -0.13968
 This state for optimization and/or second-order correction.
 Total Energy, E(TD-HF/TD-DFT) =  -1949.01106905
 Copying the excited state density for this state as the 1-particle RhoCI density.

 The electronic state is 1-A.
 Alpha  occ. eigenvalues --  -19.21123 -19.18836 -19.14303 -19.11473 -19.11346
 Alpha  occ. eigenvalues --  -19.09095 -14.38925 -14.38101 -14.34179 -14.29515
 Alpha  occ. eigenvalues --  -10.34034 -10.31883 -10.29981 -10.25795 -10.25256
 Alpha  occ. eigenvalues --  -10.24075 -10.23999 -10.22935 -10.22514 -10.22436
 Alpha  occ. eigenvalues --  -10.22436 -10.22248 -10.22174 -10.22146 -10.21856
 Alpha  occ. eigenvalues --  -10.20547 -10.20464 -10.20379 -10.20322 -10.20228
 Alpha  occ. eigenvalues --  -10.19943 -10.19724 -10.19467 -10.19389 -10.19299
 Alpha  occ. eigenvalues --  -10.18930 -10.18913 -10.18847 -10.18653 -10.18434
 Alpha  occ. eigenvalues --  -10.18217 -10.18157 -10.17981  -1.11407  -1.09509
 Alpha  occ. eigenvalues --   -1.02499  -1.01384  -1.00230  -0.98203  -0.97533
 Alpha  occ. eigenvalues --   -0.97023  -0.94413  -0.89444  -0.83916  -0.81392
 Alpha  occ. eigenvalues --   -0.81167  -0.80828  -0.79561  -0.79320  -0.78807
 Alpha  occ. eigenvalues --   -0.76828  -0.76402  -0.75140  -0.73606  -0.71670
 Alpha  occ. eigenvalues --   -0.70461  -0.70028  -0.69560  -0.68444  -0.67446
 Alpha  occ. eigenvalues --   -0.67066  -0.65859  -0.64313  -0.62397  -0.61821
 Alpha  occ. eigenvalues --   -0.60622  -0.59744  -0.59163  -0.57792  -0.57072
 Alpha  occ. eigenvalues --   -0.56462  -0.55413  -0.55214  -0.53146  -0.52841
 Alpha  occ. eigenvalues --   -0.52081  -0.51112  -0.50770  -0.50329  -0.49837
 Alpha  occ. eigenvalues --   -0.49169  -0.48736  -0.48293  -0.48026  -0.47452
 Alpha  occ. eigenvalues --   -0.47193  -0.46938  -0.46368  -0.45985  -0.45413
 Alpha  occ. eigenvalues --   -0.44687  -0.44233  -0.44032  -0.43800  -0.43602
 Alpha  occ. eigenvalues --   -0.43198  -0.42787  -0.42396  -0.42167  -0.42107
 Alpha  occ. eigenvalues --   -0.41747  -0.41538  -0.41221  -0.40511  -0.40356
 Alpha  occ. eigenvalues --   -0.40213  -0.39780  -0.39471  -0.39282  -0.39095
 Alpha  occ. eigenvalues --   -0.38914  -0.38794  -0.38671  -0.38127  -0.37502
 Alpha  occ. eigenvalues --   -0.37090  -0.36814  -0.36673  -0.36333  -0.36196
 Alpha  occ. eigenvalues --   -0.35959  -0.35756  -0.34624  -0.34585  -0.34469
 Alpha  occ. eigenvalues --   -0.33955  -0.33547  -0.33256  -0.32684  -0.32212
 Alpha  occ. eigenvalues --   -0.31964  -0.31268  -0.31182  -0.29845  -0.29458
 Alpha  occ. eigenvalues --   -0.27913  -0.26964  -0.26944  -0.26699  -0.26144
 Alpha  occ. eigenvalues --   -0.25534  -0.24961  -0.23765  -0.23182  -0.21918
 Alpha  occ. eigenvalues --   -0.17937
 Alpha virt. eigenvalues --   -0.10796  -0.05795  -0.03958  -0.03273  -0.00368
 Alpha virt. eigenvalues --   -0.00043   0.00669   0.01746   0.02025   0.02435
 Alpha virt. eigenvalues --    0.03580   0.04447   0.05076   0.05235   0.05770

 Mulliken charges:
               1
     1  O   -0.229132
     2  O   -0.249966
     3  O   -0.158353
     4  O   -0.212352
     5  O   -0.294912
     6  O   -0.299755
     7  N   -0.010177
     8  N   -0.183445
     9  N   -0.178917
    10  N   -0.380669
    11  C   -0.107656
    12  C    0.071376
    13  C   -0.167638
    14  C   -0.028586
    15  C   -0.156808
    16  C    0.029271
    17  C   -0.028459
    18  C   -0.137796
    19  C    0.032023
    20  C   -0.127647
    21  C    0.177657
    22  C    0.080260
    23  C    0.066958
    24  C    0.190788
    25  C   -0.137021
    26  C   -0.024503
    27  C    0.164540
    28  C    0.127177
    29  C    0.017354
    30  C    0.158043
    31  C   -0.132637
    32  C   -0.023457
    33  C   -0.195092
    34  C    0.139585
    35  C   -0.061667
    36  C   -0.113477
    37  C    0.144152
    38  C   -0.049547
    39  C    0.140988
    40  C    0.065784
    41  C    0.187508
    42  C    0.107226
    43  C   -0.003453
    44  H    0.156229
    45  H    0.020372
    46  H   -0.006315
    47  H    0.020765
    48  H    0.072758
    49  H   -0.016892
    50  H   -0.054470
    51  H    0.050416
    52  H    0.231600
    53  H    0.041233
    54  H    0.051717
    55  H    0.061296
    56  H    0.165029
    57  H   -0.003851
    58  H    0.061631
    59  H    0.062837
    60  H    0.022599
    61  H   -0.006347
    62  H   -0.000473
    63  H    0.027121
    64  H   -0.023985
    65  H    0.031201
    66  H    0.060441
    67  H    0.019557
    68  H    0.025663
    69  H    0.114307
    70  H    0.023498
    71  H    0.041388
    72  H   -0.037482
    73  H    0.013566
    74  H   -0.003164
    75  H   -0.009928
    76  H    0.034177
    77  H    0.024476
    78  H    0.004188
    79  H    0.045035
    80  H    0.229478
    81  H    0.242762
 Sum of Mulliken charges =  -0.00000

 Dipole moment (field-independent basis, Debye):
    X=             -2.7355    Y=             -0.7648    Z=             -1.2385  Tot=              3.0987
 Quadrupole moment (field-independent basis, Debye-Ang):
   XX=           -253.2670   YY=           -236.1582   ZZ=           -250.8353
   XY=             18.2095   XZ=             20.5654   YZ=            -16.3580

 Normal termination of Gaussian 16 at Sun Jun 30 11:15:54 2019.
