 Gaussian 16, Revision A.03,
 Gaussian 16:  ES64L-G16RevA.03 25-Dec-2016

 --------------------------
 # td=(NStates=1) B3LYP/SVP
 --------------------------

 --
 TD
 --
 Symbolic Z-matrix:
 Charge =  0 Multiplicity = 1

                         Standard orientation:
 ---------------------------------------------------------------------
 Center     Atomic      Atomic             Coordinates (Angstroms)
 Number     Number       Type             X           Y           Z
 ---------------------------------------------------------------------
      1          8           0       -4.383554   -4.761505    2.013209
      2          8           0        3.222836   -4.788849    1.284482
      3          8           0        7.104069   -1.372528    1.700571
      4          8           0        3.962704   -3.032666    0.181895
      5          8           0        7.613310   -0.264933   -0.232286
      6          8           0       -3.186812    2.439243   -0.215681
      7          7           0       -0.272539   -0.569437   -0.503614
      8          7           0        1.524392    1.757622   -0.357382
      9          7           0       -3.285315   -3.123975    0.701850
     10          7           0       -0.903334    2.908002   -0.127516
     11          6           0        0.653371   -2.485603   -1.326987
     12          6           0        0.978714   -1.072005   -1.032162
     13          6           0       -0.696898   -2.693401   -1.168444
     14          6           0       -1.258880   -1.508571   -0.707693
     15          6           0        3.652927    1.496076   -0.349613
     16          6           0        2.493434    0.852012   -0.664370
     17          6           0        2.179756   -0.451957   -0.976442
     18          6           0        3.570767    2.777827    0.070980
     19          6           0        1.737685   -3.548591   -1.787486
     20          6           0       -5.487883   -2.660638    1.302882
     21          6           0       -3.559279   -1.884089    0.158234
     22          6           0        2.075119    2.966487    0.047061
     23          6           0       -4.980182   -1.663983    0.326453
     24          6           0        4.946860    0.840765   -0.507862
     25          6           0       -2.651184   -1.100295   -0.504276
     26          6           0       -1.418044   -3.998445   -1.690918
     27          6           0       -4.408997   -3.679139    1.441443
     28          6           0        2.225170   -4.471513   -0.746350
     29          6           0        5.338806   -0.133803    0.642957
     30          6           0        4.557726    3.850007    0.406898
     31          6           0        1.224387    3.995479    0.427081
     32          6           0       -6.911626   -3.377868    0.959973
     33          6           0       -5.850681   -0.803940   -0.309585
     34          6           0       -0.251656    3.981496    0.212184
     35          6           0       -1.092614    5.203819    0.460288
     36          6           0       -2.373695    4.756752    0.216384
     37          6           0        3.157202   -3.988604    0.267013
     38          6           0       -5.399397    0.127077   -1.385313
     39          6           0        6.763048   -0.589759    0.631302
     40          6           0       -3.624452    5.434543    0.526162
     41          6           0       -2.266720    3.200259   -0.044703
     42          6           0       -0.723030    6.623653    0.932071
     43          6           0       -4.367478    5.629819   -0.858331
     44          1           0       -0.322609    0.385945   -0.078830
     45          1           0        3.092721   -1.087908   -1.120953
     46          1           0        2.575955   -3.037261   -2.094568
     47          1           0        1.222214   -4.094247   -2.663858
     48          1           0       -5.472333   -2.188753    2.262224
     49          1           0        4.740778    0.346907   -1.587094
     50          1           0        5.787943    1.533007   -0.652789
     51          1           0       -2.864971   -0.114737   -0.598093
     52          1           0        0.595214    1.808079   -0.774409
     53          1           0       -1.751241   -4.754933   -0.877880
     54          1           0       -2.321284   -3.634520   -2.168511
     55          1           0       -0.769511   -4.296044   -2.522957
     56          1           0       -2.290157   -3.611270    0.679341
     57          1           0        1.408042   -4.957174   -0.120640
     58          1           0        2.579436   -5.496165   -1.107769
     59          1           0        4.683936   -0.942862    0.770940
     60          1           0        5.143458    0.469516    1.612902
     61          1           0        4.578886    4.723829   -0.301960
     62          1           0        5.735231    3.569552    0.474027
     63          1           0        4.394551    4.302464    1.387274
     64          1           0        1.740547    4.780389    1.111381
     65          1           0       -7.791908   -2.743516    1.164411
     66          1           0       -7.130602   -4.229297    1.559293
     67          1           0       -6.970795   -3.662217   -0.056448
     68          1           0       -6.899197   -0.376230    0.086618
     69          1           0       -4.904790    1.242848   -1.078005
     70          1           0       -6.252495    0.294031   -2.148579
     71          1           0       -4.579990   -0.127194   -2.134298
     72          1           0       -3.470871    6.396958    1.076453
     73          1           0       -4.340056    4.664471    1.190915
     74          1           0       -0.207380    6.820629    1.805842
     75          1           0       -1.643725    7.148268    1.095612
     76          1           0       -0.242589    7.135684    0.018861
     77          1           0       -3.627078    6.356527   -1.296760
     78          1           0       -5.342454    6.172946   -0.756422
     79          1           0       -4.531867    4.860692   -1.415528
     80          1           0        3.858108   -4.324319    1.888294
     81          1           0        8.094359   -1.632865    1.708106
 ---------------------------------------------------------------------

 SCF Done:  E(RB3LYP) =  -1949.14937212     A.U. after   16 cycles

 Excitation energies and oscillator strengths:

 Excited State   1:      Singlet-A      1.8685 eV  663.55 nm  f=0.4021  <S**2>=0.000
     156 ->157         0.71014
     156 <-157        -0.12939
 This state for optimization and/or second-order correction.
 Total Energy, E(TD-HF/TD-DFT) =  -1949.08070648
 Copying the excited state density for this state as the 1-particle RhoCI density.

 The electronic state is 1-A.
 Alpha  occ. eigenvalues --  -19.20567 -19.17989 -19.13578 -19.12065 -19.11663
 Alpha  occ. eigenvalues --  -19.11513 -14.37657 -14.37520 -14.35105 -14.29282
 Alpha  occ. eigenvalues --  -10.33509 -10.31905 -10.30075 -10.27444 -10.24389
 Alpha  occ. eigenvalues --  -10.23752 -10.23730 -10.23638 -10.23062 -10.22315
 Alpha  occ. eigenvalues --  -10.21659 -10.21360 -10.21355 -10.21139 -10.21093
 Alpha  occ. eigenvalues --  -10.21055 -10.20705 -10.20510 -10.20447 -10.20274
 Alpha  occ. eigenvalues --  -10.20170 -10.20167 -10.20021 -10.19732 -10.19577
 Alpha  occ. eigenvalues --  -10.19453 -10.19086 -10.18995 -10.18972 -10.18917
 Alpha  occ. eigenvalues --  -10.18816 -10.18028 -10.17159  -1.13271  -1.06926
 Alpha  occ. eigenvalues --   -1.03204  -1.02784  -1.00213  -0.98439  -0.97601
 Alpha  occ. eigenvalues --   -0.96521  -0.94918  -0.92588  -0.82877  -0.82495
 Alpha  occ. eigenvalues --   -0.81580  -0.81202  -0.79838  -0.79068  -0.78244
 Alpha  occ. eigenvalues --   -0.76599  -0.75861  -0.74578  -0.73605  -0.71813
 Alpha  occ. eigenvalues --   -0.71379  -0.69676  -0.69441  -0.68743  -0.68012
 Alpha  occ. eigenvalues --   -0.67407  -0.65684  -0.64074  -0.62448  -0.61327
 Alpha  occ. eigenvalues --   -0.60930  -0.59427  -0.58857  -0.57986  -0.57666
 Alpha  occ. eigenvalues --   -0.56190  -0.54190  -0.53845  -0.53654  -0.52914
 Alpha  occ. eigenvalues --   -0.52871  -0.52591  -0.51239  -0.50665  -0.49717
 Alpha  occ. eigenvalues --   -0.49355  -0.48955  -0.48716  -0.48184  -0.46721
 Alpha  occ. eigenvalues --   -0.46563  -0.46306  -0.45796  -0.45374  -0.45107
 Alpha  occ. eigenvalues --   -0.45010  -0.44746  -0.44222  -0.43913  -0.43803
 Alpha  occ. eigenvalues --   -0.43633  -0.42995  -0.42789  -0.42440  -0.42200
 Alpha  occ. eigenvalues --   -0.41920  -0.41615  -0.41451  -0.41165  -0.40659
 Alpha  occ. eigenvalues --   -0.40476  -0.40285  -0.40034  -0.39563  -0.39485
 Alpha  occ. eigenvalues --   -0.39198  -0.38822  -0.38469  -0.38430  -0.38274
 Alpha  occ. eigenvalues --   -0.37909  -0.37548  -0.37351  -0.37000  -0.36922
 Alpha  occ. eigenvalues --   -0.36678  -0.36095  -0.35530  -0.35357  -0.34555
 Alpha  occ. eigenvalues --   -0.34339  -0.34163  -0.33621  -0.33136  -0.32663
 Alpha  occ. eigenvalues --   -0.32442  -0.32213  -0.30940  -0.30146  -0.29404
 Alpha  occ. eigenvalues --   -0.28382  -0.27087  -0.27015  -0.26035  -0.25731
 Alpha  occ. eigenvalues --   -0.25446  -0.24879  -0.24446  -0.23173  -0.21620
 Alpha  occ. eigenvalues --   -0.17181
 Alpha virt. eigenvalues --   -0.09971  -0.06433  -0.04306  -0.02299  -0.00738
 Alpha virt. eigenvalues --   -0.00140   0.02202   0.02503   0.03589   0.03921
 Alpha virt. eigenvalues --    0.04306   0.04513   0.05182   0.05393   0.06069

 Mulliken charges:
               1
     1  O   -0.206178
     2  O   -0.129059
     3  O   -0.234283
     4  O   -0.275987
     5  O   -0.269095
     6  O   -0.179729
     7  N   -0.139369
     8  N   -0.107837
     9  N   -0.213533
    10  N   -0.253010
    11  C   -0.143148
    12  C    0.099620
    13  C   -0.189737
    14  C    0.078339
    15  C   -0.087209
    16  C    0.051503
    17  C   -0.077532
    18  C   -0.045093
    19  C    0.199416
    20  C   -0.024540
    21  C    0.128002
    22  C    0.042401
    23  C   -0.015104
    24  C    0.044454
    25  C   -0.043900
    26  C    0.097572
    27  C    0.140124
    28  C   -0.008865
    29  C    0.030744
    30  C    0.033468
    31  C   -0.136368
    32  C    0.088711
    33  C   -0.115103
    34  C    0.044842
    35  C   -0.116070
    36  C   -0.175010
    37  C    0.115179
    38  C   -0.098543
    39  C    0.174969
    40  C   -0.003929
    41  C    0.160031
    42  C    0.141110
    43  C    0.049980
    44  H    0.148889
    45  H    0.019539
    46  H   -0.013237
    47  H    0.019310
    48  H    0.038552
    49  H    0.031170
    50  H    0.008455
    51  H   -0.040025
    52  H    0.147511
    53  H    0.045494
    54  H    0.023049
    55  H    0.011470
    56  H    0.173644
    57  H    0.026405
    58  H    0.057003
    59  H    0.021837
    60  H    0.037670
    61  H    0.037113
    62  H    0.034236
    63  H    0.020664
    64  H    0.005332
    65  H    0.009744
    66  H    0.019318
    67  H    0.008847
    68  H    0.050791
    69  H    0.100909
    70  H    0.010952
    71  H    0.024182
    72  H    0.015605
    73  H    0.039802
    74  H    0.010965
    75  H   -0.021560
    76  H    0.035350
    77  H    0.008145
    78  H    0.006059
    79  H   -0.012102
    80  H    0.194440
    81  H    0.212236
 Sum of Mulliken charges =  -0.00000

 Dipole moment (field-independent basis, Debye):
    X=              1.1967    Y=             -0.2865    Z=              1.1768  Tot=              1.7026
 Quadrupole moment (field-independent basis, Debye-Ang):
   XX=           -256.2454   YY=           -234.9503   ZZ=           -252.9338
   XY=            -14.4172   XZ=             18.7363   YZ=             14.3109

 Normal termination of Gaussian 16 at Thu Jun 27 19:02:56 2019.
