 Gaussian 16, Revision A.03,
 Gaussian 16:  ES64L-G16RevA.03 25-Dec-2016

 --------------------------
 # td=(NStates=1) B3LYP/SVP
 --------------------------

 --
 TD
 --
 Symbolic Z-matrix:
 Charge =  0 Multiplicity = 1

                         Standard orientation:
 ---------------------------------------------------------------------
 Center     Atomic      Atomic             Coordinates (Angstroms)
 Number     Number       Type             X           Y           Z
 ---------------------------------------------------------------------
      1          8           0        4.643341   -4.752690   -1.912983
      2          8           0       -2.899620   -4.806080   -1.433869
      3          8           0       -6.957441   -1.608926   -1.814792
      4          8           0       -3.780537   -3.153578   -0.067346
      5          8           0       -7.800190   -0.312493   -0.056685
      6          8           0        3.025330    2.482722    0.060902
      7          7           0        0.291625   -0.748192    0.592264
      8          7           0       -1.549022    1.784632    0.234001
      9          7           0        3.511452   -3.199523   -0.548849
     10          7           0        0.819427    3.044913    0.184209
     11          6           0       -0.715739   -2.455468    1.532438
     12          6           0       -0.932601   -1.189919    1.022166
     13          6           0        0.682753   -2.695269    1.341515
     14          6           0        1.347771   -1.496331    0.764665
     15          6           0       -3.767713    1.348049    0.347873
     16          6           0       -2.439565    0.782126    0.572608
     17          6           0       -2.119055   -0.525425    0.921226
     18          6           0       -3.575477    2.764762    0.035391
     19          6           0       -1.809908   -3.433551    1.873925
     20          6           0        5.611618   -2.561416   -1.202940
     21          6           0        3.697276   -1.889345   -0.061420
     22          6           0       -2.116017    3.007568   -0.037954
     23          6           0        5.080614   -1.541799   -0.221776
     24          6           0       -5.066474    0.697744    0.519218
     25          6           0        2.675290   -1.081946    0.527787
     26          6           0        1.488299   -3.951736    1.825102
     27          6           0        4.566130   -3.641237   -1.338683
     28          6           0       -2.151468   -4.622591    0.902758
     29          6           0       -5.480035   -0.110391   -0.751190
     30          6           0       -4.720067    3.699836   -0.240672
     31          6           0       -1.295338    4.147149   -0.333659
     32          6           0        7.028169   -3.043969   -1.274502
     33          6           0        5.787012   -0.488171    0.183748
     34          6           0        0.049548    4.018873   -0.207302
     35          6           0        0.974526    5.235453   -0.597832
     36          6           0        2.216203    4.756722   -0.342678
     37          6           0       -2.993508   -4.082918   -0.309365
     38          6           0        5.432853    0.532838    1.340168
     39          6           0       -6.878033   -0.707576   -0.760061
     40          6           0        3.554394    5.325810   -0.439497
     41          6           0        2.094618    3.239634   -0.006721
     42          6           0        0.530170    6.567141   -0.827310
     43          6           0        4.281276    5.648824    0.898736
     44          1           0        0.320778    0.242943   -0.068441
     45          1           0       -3.008255   -1.193963    1.125610
     46          1           0       -2.602922   -2.820185    2.131327
     47          1           0       -1.558873   -4.069270    2.688269
     48          1           0        5.410050   -2.108930   -2.179829
     49          1           0       -5.057119   -0.065662    1.372071
     50          1           0       -5.723292    1.395646    0.643695
     51          1           0        2.926993   -0.175824    0.458193
     52          1           0       -0.427875    1.982059    0.607969
     53          1           0        1.302748   -4.795891    1.142244
     54          1           0        2.582747   -3.711900    1.824730
     55          1           0        1.080294   -4.288973    2.989920
     56          1           0        2.618310   -3.640837   -0.904788
     57          1           0       -1.297266   -5.219124    0.550228
     58          1           0       -2.850214   -5.314157    1.380031
     59          1           0       -4.652332   -0.794836   -0.975687
     60          1           0       -5.330896    0.504185   -1.674912
     61          1           0       -4.692677    4.630492    0.416209
     62          1           0       -5.619423    3.227481   -0.169735
     63          1           0       -4.510585    4.236210   -1.263661
     64          1           0       -1.938267    5.132341   -0.606538
     65          1           0        7.663882   -2.146092   -1.599560
     66          1           0        7.215830   -3.802266   -1.977105
     67          1           0        7.565924   -3.681864   -0.336653
     68          1           0        6.709480   -0.447248   -0.094813
     69          1           0        4.810024    1.278716    0.746770
     70          1           0        6.195481    1.032356    1.738127
     71          1           0        4.692061   -0.012634    2.033251
     72          1           0        3.543298    6.167017   -1.018925
     73          1           0        4.184677    4.770056   -1.185663
     74          1           0        0.153706    6.521603   -1.806755
     75          1           0        1.476829    7.148392   -0.692041
     76          1           0       -0.298294    6.893086   -0.134628
     77          1           0        3.417540    6.233259    1.416233
     78          1           0        5.202519    6.262755    0.771102
     79          1           0        4.460146    4.688528    1.423773
     80          1           0       -3.633151   -4.680572   -2.137870
     81          1           0       -7.918440   -1.862195   -1.999891
 ---------------------------------------------------------------------

 SCF Done:  E(RB3LYP) =  -1949.08645657     A.U. after   16 cycles

 Excitation energies and oscillator strengths:

 Excited State   1:      Singlet-A      2.0136 eV  615.72 nm  f=0.4882  <S**2>=0.000
     156 ->157         0.70753
     156 <-157        -0.11587
 This state for optimization and/or second-order correction.
 Total Energy, E(TD-HF/TD-DFT) =  -1949.01245672
 Copying the excited state density for this state as the 1-particle RhoCI density.

 The electronic state is 1-A.
 Alpha  occ. eigenvalues --  -19.20880 -19.18540 -19.13801 -19.13431 -19.11761
 Alpha  occ. eigenvalues --  -19.09456 -14.38744 -14.38320 -14.35171 -14.28594
 Alpha  occ. eigenvalues --  -10.33894 -10.32789 -10.29795 -10.25903 -10.25319
 Alpha  occ. eigenvalues --  -10.24248 -10.24099 -10.23036 -10.22402 -10.22398
 Alpha  occ. eigenvalues --  -10.22367 -10.21431 -10.21134 -10.20956 -10.20551
 Alpha  occ. eigenvalues --  -10.20454 -10.20448 -10.20328 -10.20270 -10.20198
 Alpha  occ. eigenvalues --  -10.20151 -10.19932 -10.19772 -10.19586 -10.19519
 Alpha  occ. eigenvalues --  -10.19142 -10.18944 -10.18296 -10.18180 -10.18157
 Alpha  occ. eigenvalues --  -10.18028 -10.16785 -10.16666  -1.09822  -1.07600
 Alpha  occ. eigenvalues --   -1.02586  -1.01909  -1.01039  -1.00185  -0.99808
 Alpha  occ. eigenvalues --   -0.96082  -0.95577  -0.93108  -0.83082  -0.82840
 Alpha  occ. eigenvalues --   -0.81677  -0.80529  -0.79770  -0.79093  -0.77291
 Alpha  occ. eigenvalues --   -0.76444  -0.76260  -0.75534  -0.74708  -0.72454
 Alpha  occ. eigenvalues --   -0.70743  -0.70225  -0.68608  -0.67885  -0.67316
 Alpha  occ. eigenvalues --   -0.66845  -0.66129  -0.65643  -0.63334  -0.62364
 Alpha  occ. eigenvalues --   -0.60999  -0.60349  -0.59213  -0.57982  -0.56515
 Alpha  occ. eigenvalues --   -0.55788  -0.55287  -0.54697  -0.53975  -0.52480
 Alpha  occ. eigenvalues --   -0.52094  -0.51907  -0.51010  -0.50268  -0.49813
 Alpha  occ. eigenvalues --   -0.49285  -0.48632  -0.48452  -0.47943  -0.47640
 Alpha  occ. eigenvalues --   -0.47381  -0.46958  -0.46629  -0.45514  -0.45231
 Alpha  occ. eigenvalues --   -0.44769  -0.44598  -0.44447  -0.43901  -0.43672
 Alpha  occ. eigenvalues --   -0.43250  -0.42944  -0.42394  -0.42163  -0.42047
 Alpha  occ. eigenvalues --   -0.41898  -0.41712  -0.41337  -0.41023  -0.40879
 Alpha  occ. eigenvalues --   -0.40487  -0.40245  -0.39866  -0.39592  -0.39343
 Alpha  occ. eigenvalues --   -0.39155  -0.39053  -0.38582  -0.38360  -0.38197
 Alpha  occ. eigenvalues --   -0.37971  -0.37813  -0.37350  -0.36965  -0.36648
 Alpha  occ. eigenvalues --   -0.36499  -0.35878  -0.35439  -0.34952  -0.34886
 Alpha  occ. eigenvalues --   -0.34664  -0.34321  -0.33729  -0.33503  -0.33158
 Alpha  occ. eigenvalues --   -0.32946  -0.32611  -0.31759  -0.30306  -0.28883
 Alpha  occ. eigenvalues --   -0.28616  -0.27256  -0.26479  -0.26156  -0.25721
 Alpha  occ. eigenvalues --   -0.24439  -0.23739  -0.23046  -0.22727  -0.21783
 Alpha  occ. eigenvalues --   -0.18035
 Alpha virt. eigenvalues --   -0.10229  -0.06050  -0.03716  -0.01950  -0.00838
 Alpha virt. eigenvalues --   -0.00529   0.01751   0.02502   0.03371   0.03483
 Alpha virt. eigenvalues --    0.03637   0.04182   0.04478   0.05096   0.05891

 Mulliken charges:
               1
     1  O   -0.241338
     2  O   -0.201139
     3  O   -0.239447
     4  O   -0.258284
     5  O   -0.228269
     6  O   -0.197394
     7  N   -0.087609
     8  N   -0.212833
     9  N   -0.141948
    10  N   -0.199692
    11  C   -0.086761
    12  C    0.077342
    13  C   -0.195797
    14  C    0.101660
    15  C   -0.139944
    16  C    0.086147
    17  C   -0.089458
    18  C   -0.139421
    19  C    0.181155
    20  C   -0.036288
    21  C    0.046554
    22  C    0.062179
    23  C    0.059196
    24  C    0.227753
    25  C    0.040535
    26  C    0.010071
    27  C    0.099524
    28  C    0.023507
    29  C   -0.047949
    30  C    0.108551
    31  C   -0.183069
    32  C    0.023174
    33  C   -0.093580
    34  C    0.129861
    35  C   -0.144931
    36  C   -0.221031
    37  C    0.147170
    38  C    0.053899
    39  C    0.201622
    40  C    0.111359
    41  C    0.102234
    42  C    0.134101
    43  C   -0.015910
    44  H    0.198445
    45  H    0.031593
    46  H   -0.011436
    47  H   -0.019890
    48  H    0.045269
    49  H    0.028179
    50  H   -0.061552
    51  H   -0.124132
    52  H    0.214861
    53  H    0.025395
    54  H    0.043793
    55  H    0.043645
    56  H    0.157936
    57  H    0.025761
    58  H    0.041537
    59  H    0.025635
    60  H    0.030924
    61  H    0.023072
    62  H   -0.002343
    63  H    0.026156
    64  H    0.020299
    65  H    0.023429
    66  H    0.013063
    67  H    0.035132
    68  H   -0.073895
    69  H    0.087064
    70  H   -0.016347
    71  H    0.046151
    72  H   -0.061797
    73  H   -0.003868
    74  H    0.007960
    75  H    0.025955
    76  H    0.030071
    77  H    0.017892
    78  H    0.023079
    79  H    0.034940
    80  H    0.223917
    81  H    0.198601
 Sum of Mulliken charges =  -0.00000

 Dipole moment (field-independent basis, Debye):
    X=             -2.6955    Y=             -1.3489    Z=             -2.0302  Tot=              3.6342
 Quadrupole moment (field-independent basis, Debye-Ang):
   XX=           -250.9856   YY=           -243.2418   ZZ=           -251.8602
   XY=             21.8401   XZ=             16.9864   YZ=             -6.8088

 Normal termination of Gaussian 16 at Thu Jun 27 07:20:21 2019.
