 Gaussian 16, Revision A.03,
 Gaussian 16:  ES64L-G16RevA.03 25-Dec-2016

 --------------------------
 # td=(NStates=1) B3LYP/SVP
 --------------------------

 --
 TD
 --
 Symbolic Z-matrix:
 Charge =  0 Multiplicity = 1

                         Standard orientation:
 ---------------------------------------------------------------------
 Center     Atomic      Atomic             Coordinates (Angstroms)
 Number     Number       Type             X           Y           Z
 ---------------------------------------------------------------------
      1          8           0        4.478250   -4.804149   -1.744071
      2          8           0       -2.958459   -4.967705   -1.251233
      3          8           0       -6.901772   -1.476160   -1.953155
      4          8           0       -3.720143   -3.177264   -0.088978
      5          8           0       -7.475635   -0.623232    0.120657
      6          8           0        3.051587    2.455007    0.120396
      7          7           0        0.312909   -0.502501    0.588527
      8          7           0       -1.539347    1.859943    0.372066
      9          7           0        3.287651   -3.083401   -0.657028
     10          7           0        0.795760    2.906601   -0.001207
     11          6           0       -0.714244   -2.418486    1.281617
     12          6           0       -1.007827   -1.155620    0.822841
     13          6           0        0.702772   -2.621512    1.226014
     14          6           0        1.246906   -1.410215    0.772460
     15          6           0       -3.837014    1.564684    0.404979
     16          6           0       -2.461175    0.900773    0.568036
     17          6           0       -2.277556   -0.491496    0.914628
     18          6           0       -3.529367    2.881551    0.066271
     19          6           0       -1.748719   -3.464797    1.841860
     20          6           0        5.523037   -2.711567   -1.364811
     21          6           0        3.660987   -1.810503   -0.072201
     22          6           0       -2.115896    3.017079    0.068921
     23          6           0        4.991916   -1.607149   -0.336146
     24          6           0       -5.059796    0.757619    0.439906
     25          6           0        2.665790   -0.993728    0.459519
     26          6           0        1.401001   -3.864250    1.757208
     27          6           0        4.388461   -3.689044   -1.314317
     28          6           0       -2.075968   -4.659072    0.968146
     29          6           0       -5.313416   -0.107752   -0.780335
     30          6           0       -4.596256    3.890566   -0.195296
     31          6           0       -1.270571    4.133738   -0.242082
     32          6           0        6.889605   -3.382351   -1.158291
     33          6           0        5.842548   -0.615749    0.226190
     34          6           0        0.092323    4.071763   -0.236418
     35          6           0        1.029725    5.168606   -0.605357
     36          6           0        2.275592    4.737776   -0.383610
     37          6           0       -3.002294   -4.197963   -0.183967
     38          6           0        5.439681    0.397035    1.258543
     39          6           0       -6.773035   -0.674865   -0.792560
     40          6           0        3.567554    5.394886   -0.434800
     41          6           0        2.092803    3.282749   -0.128717
     42          6           0        0.680862    6.560879   -0.960251
     43          6           0        4.230452    5.597942    0.998160
     44          1           0        0.368063    0.390859    0.090097
     45          1           0       -3.083709   -0.994323    1.031359
     46          1           0       -2.742147   -2.904432    2.301373
     47          1           0       -1.107028   -3.882495    2.622355
     48          1           0        5.214551   -2.056769   -2.304738
     49          1           0       -5.142957    0.042461    1.311027
     50          1           0       -5.863428    1.470005    0.511146
     51          1           0        2.758801   -0.001252    0.493162
     52          1           0       -0.582894    1.970906    0.667771
     53          1           0        1.469444   -4.880557    1.156974
     54          1           0        2.542481   -3.654100    1.933456
     55          1           0        0.894024   -4.112284    2.679182
     56          1           0        2.238953   -3.252843   -0.433936
     57          1           0       -1.320922   -5.106724    0.496185
     58          1           0       -2.393525   -5.601053    1.572074
     59          1           0       -4.359748   -1.001386   -0.914198
     60          1           0       -5.329695    0.541658   -1.766715
     61          1           0       -4.563712    4.771969    0.393017
     62          1           0       -5.580593    3.561445   -0.175869
     63          1           0       -4.447043    4.133082   -1.280060
     64          1           0       -1.838716    5.108467   -0.479187
     65          1           0        7.580960   -2.572030   -1.307571
     66          1           0        6.786391   -4.247016   -1.872943
     67          1           0        7.092216   -3.753190   -0.110397
     68          1           0        6.820484   -0.293752   -0.210012
     69          1           0        4.748607    1.280462    0.970991
     70          1           0        6.360583    0.787874    1.798836
     71          1           0        4.955133   -0.157561    2.098111
     72          1           0        3.651111    6.210487   -1.038267
     73          1           0        4.171894    4.611114   -1.001417
     74          1           0        0.057258    6.650714   -1.854773
     75          1           0        1.482079    7.290199   -0.747801
     76          1           0       -0.109253    6.749646   -0.176830
     77          1           0        3.839990    6.417347    1.672410
     78          1           0        5.331405    5.751608    0.795078
     79          1           0        4.211658    4.732121    1.611329
     80          1           0       -3.722366   -4.645425   -1.740932
     81          1           0       -7.811066   -1.760866   -1.852546
 ---------------------------------------------------------------------

 SCF Done:  E(RB3LYP) =  -1949.13126117     A.U. after   24 cycles

 Excitation energies and oscillator strengths:

 Excited State   1:      Singlet-A      1.8541 eV  668.69 nm  f=0.3589  <S**2>=0.000
     156 ->157         0.70530
     156 <-157        -0.11290
 This state for optimization and/or second-order correction.
 Total Energy, E(TD-HF/TD-DFT) =  -1949.06312256
 Copying the excited state density for this state as the 1-particle RhoCI density.

 The electronic state is 1-A.
 Alpha  occ. eigenvalues --  -19.21364 -19.18031 -19.15034 -19.14405 -19.10676
 Alpha  occ. eigenvalues --  -19.08112 -14.37696 -14.36658 -14.36205 -14.28220
 Alpha  occ. eigenvalues --  -10.34275 -10.32675 -10.28894 -10.24874 -10.24209
 Alpha  occ. eigenvalues --  -10.24087 -10.23879 -10.23721 -10.23260 -10.22582
 Alpha  occ. eigenvalues --  -10.22440 -10.22164 -10.22044 -10.21451 -10.21288
 Alpha  occ. eigenvalues --  -10.21278 -10.21206 -10.20715 -10.20687 -10.20523
 Alpha  occ. eigenvalues --  -10.20388 -10.20152 -10.19999 -10.19356 -10.19235
 Alpha  occ. eigenvalues --  -10.19097 -10.19041 -10.18645 -10.18208 -10.18068
 Alpha  occ. eigenvalues --  -10.17811 -10.17659 -10.17330  -1.13162  -1.11017
 Alpha  occ. eigenvalues --   -1.03531  -1.03007  -1.01309  -1.00330  -0.97889
 Alpha  occ. eigenvalues --   -0.97135  -0.93543  -0.90225  -0.82959  -0.82524
 Alpha  occ. eigenvalues --   -0.80978  -0.80012  -0.79879  -0.78592  -0.78260
 Alpha  occ. eigenvalues --   -0.77118  -0.76414  -0.74737  -0.73539  -0.72043
 Alpha  occ. eigenvalues --   -0.71404  -0.69486  -0.69112  -0.68870  -0.67931
 Alpha  occ. eigenvalues --   -0.67491  -0.65860  -0.63600  -0.62480  -0.61760
 Alpha  occ. eigenvalues --   -0.60638  -0.59661  -0.58343  -0.57728  -0.57201
 Alpha  occ. eigenvalues --   -0.56165  -0.55108  -0.54249  -0.53834  -0.52635
 Alpha  occ. eigenvalues --   -0.51911  -0.51788  -0.51282  -0.51227  -0.49905
 Alpha  occ. eigenvalues --   -0.49607  -0.49442  -0.49016  -0.48691  -0.48151
 Alpha  occ. eigenvalues --   -0.47472  -0.46613  -0.46190  -0.45629  -0.45239
 Alpha  occ. eigenvalues --   -0.44779  -0.44533  -0.44024  -0.43630  -0.43485
 Alpha  occ. eigenvalues --   -0.43324  -0.43256  -0.42791  -0.42524  -0.42251
 Alpha  occ. eigenvalues --   -0.41961  -0.41821  -0.41418  -0.41307  -0.41163
 Alpha  occ. eigenvalues --   -0.40884  -0.40572  -0.40025  -0.39861  -0.39606
 Alpha  occ. eigenvalues --   -0.39364  -0.38915  -0.38512  -0.38422  -0.37828
 Alpha  occ. eigenvalues --   -0.37629  -0.37415  -0.37269  -0.37111  -0.36650
 Alpha  occ. eigenvalues --   -0.36349  -0.35825  -0.35507  -0.35009  -0.34687
 Alpha  occ. eigenvalues --   -0.34569  -0.34139  -0.34030  -0.33305  -0.33103
 Alpha  occ. eigenvalues --   -0.32772  -0.31806  -0.31600  -0.30058  -0.29566
 Alpha  occ. eigenvalues --   -0.29365  -0.27189  -0.26267  -0.25986  -0.25579
 Alpha  occ. eigenvalues --   -0.25125  -0.24332  -0.23037  -0.22327  -0.20748
 Alpha  occ. eigenvalues --   -0.17926
 Alpha virt. eigenvalues --   -0.10547  -0.06115  -0.04229  -0.02675  -0.00753
 Alpha virt. eigenvalues --    0.01078   0.01759   0.03382   0.04198   0.04538
 Alpha virt. eigenvalues --    0.04687   0.05219   0.05636   0.05941   0.06264

 Mulliken charges:
               1
     1  O   -0.194579
     2  O   -0.118106
     3  O   -0.217885
     4  O   -0.271855
     5  O   -0.148416
     6  O   -0.294562
     7  N   -0.101307
     8  N    0.017075
     9  N   -0.207172
    10  N   -0.289894
    11  C   -0.106534
    12  C    0.078593
    13  C   -0.169180
    14  C    0.012266
    15  C   -0.063013
    16  C   -0.006298
    17  C    0.089005
    18  C   -0.138889
    19  C    0.094158
    20  C   -0.093557
    21  C    0.120362
    22  C    0.010676
    23  C   -0.057315
    24  C    0.124530
    25  C    0.007334
    26  C   -0.002370
    27  C    0.148584
    28  C    0.063344
    29  C   -0.150245
    30  C    0.153711
    31  C   -0.148629
    32  C    0.078934
    33  C   -0.134849
    34  C    0.129759
    35  C   -0.133967
    36  C   -0.139710
    37  C    0.135775
    38  C   -0.019883
    39  C    0.155674
    40  C    0.110432
    41  C    0.137199
    42  C    0.125607
    43  C    0.000795
    44  H    0.153732
    45  H   -0.102572
    46  H    0.061149
    47  H   -0.008497
    48  H    0.073043
    49  H    0.034275
    50  H   -0.008961
    51  H   -0.062822
    52  H    0.138122
    53  H    0.048258
    54  H    0.049597
    55  H    0.021243
    56  H    0.159787
    57  H   -0.024267
    58  H    0.057442
    59  H    0.116222
    60  H    0.036925
    61  H    0.019177
    62  H   -0.018468
    63  H    0.017767
    64  H   -0.011706
    65  H    0.015776
    66  H    0.060770
    67  H    0.026092
    68  H    0.020020
    69  H    0.115714
    70  H    0.002664
    71  H    0.016711
    72  H   -0.035921
    73  H    0.016392
    74  H    0.014600
    75  H    0.027026
    76  H    0.006578
    77  H    0.016896
    78  H    0.010205
    79  H    0.013455
    80  H    0.180484
    81  H    0.157496
 Sum of Mulliken charges =  -0.00000

 Dipole moment (field-independent basis, Debye):
    X=             -4.9503    Y=              0.0937    Z=              0.0576  Tot=              4.9516
 Quadrupole moment (field-independent basis, Debye-Ang):
   XX=           -243.8809   YY=           -237.8839   ZZ=           -254.9672
   XY=             14.7807   XZ=             14.1544   YZ=            -12.8245

 Normal termination of Gaussian 16 at Sat Jul  6 02:26:21 2019.
