 Gaussian 16, Revision A.03,
 Gaussian 16:  ES64L-G16RevA.03 25-Dec-2016

 --------------------------
 # td=(NStates=1) B3LYP/SVP
 --------------------------

 --
 TD
 --
 Symbolic Z-matrix:
 Charge =  0 Multiplicity = 1

                         Standard orientation:
 ---------------------------------------------------------------------
 Center     Atomic      Atomic             Coordinates (Angstroms)
 Number     Number       Type             X           Y           Z
 ---------------------------------------------------------------------
      1          8           0       -4.613723   -4.738310    1.752685
      2          8           0        2.914360   -4.735770    1.306918
      3          8           0        7.054886   -1.481875    1.912291
      4          8           0        3.956379   -3.048978    0.230241
      5          8           0        7.518298   -0.935800   -0.221273
      6          8           0       -3.097095    2.548564   -0.316788
      7          7           0       -0.287123   -0.565382   -0.533267
      8          7           0        1.573479    1.696315   -0.423292
      9          7           0       -3.394169   -3.141654    0.541603
     10          7           0       -0.776066    2.912014   -0.124219
     11          6           0        0.508105   -2.424179   -1.383331
     12          6           0        0.911038   -1.160504   -0.952264
     13          6           0       -0.794688   -2.643849   -1.256871
     14          6           0       -1.327777   -1.416497   -0.722380
     15          6           0        3.796010    1.416632   -0.388633
     16          6           0        2.564938    0.771920   -0.514640
     17          6           0        2.215987   -0.553966   -0.742127
     18          6           0        3.573641    2.784774   -0.115541
     19          6           0        1.661922   -3.365907   -1.878125
     20          6           0       -5.519350   -2.584224    1.265581
     21          6           0       -3.628231   -1.859758    0.079639
     22          6           0        2.125918    2.917999   -0.104158
     23          6           0       -5.021182   -1.581617    0.328807
     24          6           0        5.091781    0.681628   -0.428247
     25          6           0       -2.686014   -1.012985   -0.421556
     26          6           0       -1.489865   -3.871534   -1.701833
     27          6           0       -4.491250   -3.629569    1.282783
     28          6           0        2.098766   -4.356813   -0.857157
     29          6           0        5.449339   -0.004879    0.897515
     30          6           0        4.592976    3.862584    0.086884
     31          6           0        1.325252    4.066893    0.142210
     32          6           0       -7.007305   -3.129244    1.088374
     33          6           0       -5.787443   -0.622014   -0.173636
     34          6           0        0.022696    4.005412    0.210138
     35          6           0       -0.986857    5.086780    0.591069
     36          6           0       -2.226382    4.680678    0.278652
     37          6           0        3.073919   -3.941304    0.204308
     38          6           0       -5.317248    0.397944   -1.168349
     39          6           0        6.769521   -0.833523    0.852395
     40          6           0       -3.534110    5.337744    0.569084
     41          6           0       -2.154640    3.296794   -0.122305
     42          6           0       -0.515832    6.475666    0.994173
     43          6           0       -4.237125    5.525937   -0.779920
     44          1           0       -0.622811    0.442721   -0.168053
     45          1           0        3.041249   -1.034055   -0.770613
     46          1           0        2.515392   -2.842092   -2.245230
     47          1           0        1.161986   -3.860768   -2.577684
     48          1           0       -5.488583   -1.989108    2.208517
     49          1           0        5.122116   -0.000446   -1.341966
     50          1           0        5.728931    1.468728   -0.521471
     51          1           0       -2.999440    0.019059   -0.348593
     52          1           0        0.618552    1.777438   -0.592815
     53          1           0       -1.287882   -4.843096   -0.966265
     54          1           0       -2.626512   -3.543635   -1.748552
     55          1           0       -1.233692   -4.076143   -2.821271
     56          1           0       -2.455332   -3.696732    0.486059
     57          1           0        1.284902   -4.900265   -0.396150
     58          1           0        2.441606   -5.240435   -1.306957
     59          1           0        4.681663   -0.830805    0.820903
     60          1           0        5.348875    0.611674    1.870809
     61          1           0        4.413524    4.791525   -0.675524
     62          1           0        5.608010    3.617402   -0.040972
     63          1           0        4.480911    4.351166    1.121565
     64          1           0        1.801292    5.109254    0.399194
     65          1           0       -7.767151   -2.499648    1.447533
     66          1           0       -7.188912   -4.122459    1.637077
     67          1           0       -7.255199   -3.252650    0.007035
     68          1           0       -6.697727   -0.402577    0.286173
     69          1           0       -4.769920    1.214454   -0.656721
     70          1           0       -6.339988    0.886056   -1.636096
     71          1           0       -4.684641    0.074266   -1.995479
     72          1           0       -3.453631    6.335034    0.994066
     73          1           0       -4.307079    4.625797    1.149298
     74          1           0       -0.122287    6.523767    2.119838
     75          1           0       -1.397959    7.186341    1.314621
     76          1           0        0.314481    6.842106    0.315360
     77          1           0       -3.599812    6.223385   -1.410907
     78          1           0       -5.234666    5.847958   -0.587261
     79          1           0       -4.313459    4.650395   -1.355147
     80          1           0        3.487239   -4.441125    1.865570
     81          1           0        7.779207   -2.096289    1.618491
 ---------------------------------------------------------------------

 SCF Done:  E(RB3LYP) =  -1949.12579820     A.U. after   17 cycles

 Excitation energies and oscillator strengths:

 Excited State   1:      Singlet-A      1.8761 eV  660.86 nm  f=0.3516  <S**2>=0.000
     156 ->157         0.70294
     156 <-157        -0.11353
 This state for optimization and/or second-order correction.
 Total Energy, E(TD-HF/TD-DFT) =  -1949.05685295
 Copying the excited state density for this state as the 1-particle RhoCI density.

 The electronic state is 1-A.
 Alpha  occ. eigenvalues --  -19.20434 -19.19164 -19.15272 -19.11414 -19.11023
 Alpha  occ. eigenvalues --  -19.09738 -14.38406 -14.37904 -14.35564 -14.27599
 Alpha  occ. eigenvalues --  -10.34938 -10.32458 -10.29389 -10.25478 -10.24497
 Alpha  occ. eigenvalues --  -10.24266 -10.24256 -10.23632 -10.23029 -10.22779
 Alpha  occ. eigenvalues --  -10.21862 -10.21854 -10.21410 -10.21177 -10.20974
 Alpha  occ. eigenvalues --  -10.20860 -10.20764 -10.20529 -10.20371 -10.20310
 Alpha  occ. eigenvalues --  -10.19733 -10.19617 -10.19569 -10.19495 -10.19326
 Alpha  occ. eigenvalues --  -10.19220 -10.19054 -10.18885 -10.18836 -10.18771
 Alpha  occ. eigenvalues --  -10.18110 -10.17392 -10.16108  -1.12765  -1.12389
 Alpha  occ. eigenvalues --   -1.03989  -1.01585  -1.00782  -0.99189  -0.98305
 Alpha  occ. eigenvalues --   -0.96116  -0.95429  -0.89566  -0.84174  -0.82999
 Alpha  occ. eigenvalues --   -0.82772  -0.81600  -0.80122  -0.79478  -0.78727
 Alpha  occ. eigenvalues --   -0.77284  -0.76589  -0.74997  -0.73928  -0.73253
 Alpha  occ. eigenvalues --   -0.71768  -0.70623  -0.69371  -0.68979  -0.68418
 Alpha  occ. eigenvalues --   -0.67608  -0.65784  -0.64713  -0.62889  -0.62127
 Alpha  occ. eigenvalues --   -0.61627  -0.60165  -0.58931  -0.58595  -0.57389
 Alpha  occ. eigenvalues --   -0.56946  -0.55961  -0.55549  -0.54477  -0.53844
 Alpha  occ. eigenvalues --   -0.53101  -0.52389  -0.51314  -0.50609  -0.50059
 Alpha  occ. eigenvalues --   -0.49804  -0.49342  -0.49193  -0.48833  -0.48179
 Alpha  occ. eigenvalues --   -0.47351  -0.46915  -0.46255  -0.45718  -0.45566
 Alpha  occ. eigenvalues --   -0.45037  -0.44810  -0.44750  -0.44411  -0.43951
 Alpha  occ. eigenvalues --   -0.43358  -0.43032  -0.42982  -0.42696  -0.42635
 Alpha  occ. eigenvalues --   -0.42361  -0.42055  -0.41799  -0.41696  -0.41600
 Alpha  occ. eigenvalues --   -0.40980  -0.40609  -0.40396  -0.40010  -0.39770
 Alpha  occ. eigenvalues --   -0.39469  -0.39264  -0.39169  -0.39046  -0.38338
 Alpha  occ. eigenvalues --   -0.38068  -0.37802  -0.37605  -0.36923  -0.36278
 Alpha  occ. eigenvalues --   -0.35921  -0.35766  -0.35649  -0.35580  -0.34765
 Alpha  occ. eigenvalues --   -0.34450  -0.34213  -0.34046  -0.33929  -0.33583
 Alpha  occ. eigenvalues --   -0.33368  -0.32300  -0.30530  -0.30025  -0.29646
 Alpha  occ. eigenvalues --   -0.26995  -0.26793  -0.26506  -0.26145  -0.26125
 Alpha  occ. eigenvalues --   -0.25342  -0.25143  -0.23751  -0.22891  -0.20954
 Alpha  occ. eigenvalues --   -0.18102
 Alpha virt. eigenvalues --   -0.10584  -0.05554  -0.04062  -0.03386  -0.00561
 Alpha virt. eigenvalues --   -0.00387   0.01569   0.02528   0.03575   0.04086
 Alpha virt. eigenvalues --    0.04297   0.04526   0.05515   0.05921   0.06436

 Mulliken charges:
               1
     1  O   -0.196227
     2  O   -0.101381
     3  O   -0.106447
     4  O   -0.258712
     5  O   -0.344100
     6  O   -0.220826
     7  N   -0.134242
     8  N   -0.024595
     9  N   -0.179789
    10  N   -0.397963
    11  C   -0.125035
    12  C    0.128127
    13  C   -0.153897
    14  C    0.065172
    15  C   -0.116634
    16  C    0.019948
    17  C    0.097714
    18  C   -0.102522
    19  C    0.283164
    20  C   -0.040778
    21  C    0.092589
    22  C    0.056442
    23  C   -0.025099
    24  C    0.172994
    25  C   -0.106047
    26  C   -0.057305
    27  C    0.135350
    28  C    0.051554
    29  C   -0.029892
    30  C    0.057591
    31  C   -0.143444
    32  C    0.055999
    33  C   -0.113587
    34  C    0.124004
    35  C   -0.079700
    36  C   -0.136212
    37  C    0.144675
    38  C    0.005679
    39  C    0.143754
    40  C    0.075300
    41  C    0.165593
    42  C    0.013251
    43  C    0.006861
    44  H    0.198004
    45  H   -0.148377
    46  H    0.011444
    47  H   -0.066000
    48  H    0.054157
    49  H    0.046785
    50  H   -0.041867
    51  H    0.001850
    52  H    0.089376
    53  H    0.064043
    54  H    0.058939
    55  H    0.055632
    56  H    0.168082
    57  H    0.001981
    58  H    0.020329
    59  H    0.058599
    60  H    0.055337
    61  H    0.038432
    62  H    0.009173
    63  H    0.034715
    64  H   -0.001787
    65  H   -0.003748
    66  H    0.045935
    67  H    0.017852
    68  H   -0.027949
    69  H    0.085780
    70  H    0.011017
    71  H    0.030478
    72  H   -0.011270
    73  H    0.031827
    74  H    0.020321
    75  H    0.021947
    76  H    0.054197
    77  H    0.005808
    78  H   -0.006949
    79  H    0.010907
    80  H    0.107427
    81  H    0.196247
 Sum of Mulliken charges =  -0.00000

 Dipole moment (field-independent basis, Debye):
    X=              2.0630    Y=             -1.0795    Z=              1.2333  Tot=              2.6349
 Quadrupole moment (field-independent basis, Debye-Ang):
   XX=           -260.9862   YY=           -240.4932   ZZ=           -253.6187
   XY=            -10.5888   XZ=             14.4626   YZ=             14.2595

 Normal termination of Gaussian 16 at Mon Jul  1 13:21:34 2019.
