 Gaussian 16, Revision A.03,
 Gaussian 16:  ES64L-G16RevA.03 25-Dec-2016

 --------------------------
 # td=(NStates=1) B3LYP/SVP
 --------------------------

 --
 TD
 --
 Symbolic Z-matrix:
 Charge =  0 Multiplicity = 1

                         Standard orientation:
 ---------------------------------------------------------------------
 Center     Atomic      Atomic             Coordinates (Angstroms)
 Number     Number       Type             X           Y           Z
 ---------------------------------------------------------------------
      1          8           0        4.368184   -4.834495   -1.820042
      2          8           0       -2.977122   -4.899475   -1.318119
      3          8           0       -7.035890   -1.546277   -1.867909
      4          8           0       -3.657794   -3.028944   -0.083414
      5          8           0       -7.456140   -1.121684    0.320709
      6          8           0        2.954975    2.497231    0.250742
      7          7           0        0.324504   -0.547180    0.447537
      8          7           0       -1.561070    1.873838    0.421534
      9          7           0        3.354941   -3.086488   -0.751823
     10          7           0        0.708798    2.955013    0.081797
     11          6           0       -0.641568   -2.390147    1.411287
     12          6           0       -0.915544   -1.150294    0.835053
     13          6           0        0.762538   -2.558179    1.285079
     14          6           0        1.269208   -1.430258    0.697284
     15          6           0       -3.807534    1.424903    0.385336
     16          6           0       -2.515815    0.893038    0.572783
     17          6           0       -2.198560   -0.402265    0.750517
     18          6           0       -3.646145    2.767039    0.000609
     19          6           0       -1.574719   -3.581076    1.866539
     20          6           0        5.588801   -2.644887   -1.302288
     21          6           0        3.661017   -1.793987   -0.091333
     22          6           0       -2.087733    3.019411    0.011260
     23          6           0        5.151927   -1.544603   -0.341466
     24          6           0       -5.186318    0.657212    0.460767
     25          6           0        2.673830   -1.014174    0.365403
     26          6           0        1.586953   -3.802593    1.849955
     27          6           0        4.368584   -3.704772   -1.336041
     28          6           0       -1.928483   -4.486721    0.791835
     29          6           0       -5.417626   -0.284365   -0.752144
     30          6           0       -4.616317    3.845421   -0.409282
     31          6           0       -1.336285    4.229407   -0.228277
     32          6           0        7.004101   -3.272571   -1.016134
     33          6           0        5.923471   -0.678690    0.290101
     34          6           0        0.043042    4.153416   -0.114379
     35          6           0        0.961765    5.319850   -0.398529
     36          6           0        2.204415    4.742699   -0.280400
     37          6           0       -2.997632   -4.060713   -0.231244
     38          6           0        5.456680    0.384109    1.310176
     39          6           0       -6.701761   -1.090450   -0.653617
     40          6           0        3.557490    5.286625   -0.637035
     41          6           0        1.992159    3.336454    0.134143
     42          6           0        0.376053    6.615966   -0.869148
     43          6           0        4.152054    5.914656    0.666446
     44          1           0        0.489448    0.282081   -0.092318
     45          1           0       -3.008747   -1.063183    0.998695
     46          1           0       -2.580390   -3.207227    2.229378
     47          1           0       -1.103726   -3.901306    2.805952
     48          1           0        5.660972   -2.265335   -2.361525
     49          1           0       -5.206191    0.056935    1.272506
     50          1           0       -5.960266    1.485285    0.326011
     51          1           0        2.976414    0.050030    0.555306
     52          1           0       -0.502730    1.951772    0.673139
     53          1           0        1.801867   -4.625715    1.084826
     54          1           0        2.657905   -3.414554    2.095534
     55          1           0        1.123359   -4.201748    2.816160
     56          1           0        2.347870   -3.367782   -0.604582
     57          1           0       -0.989408   -4.832043    0.348942
     58          1           0       -2.462485   -5.302320    1.055136
     59          1           0       -4.281385   -0.820345   -0.796854
     60          1           0       -5.444867    0.470117   -1.567093
     61          1           0       -4.657736    4.740534    0.339956
     62          1           0       -5.736163    3.600074   -0.577543
     63          1           0       -4.134617    4.328051   -1.187422
     64          1           0       -2.130886    5.045753   -0.502251
     65          1           0        7.904408   -2.583179   -0.865051
     66          1           0        7.416042   -3.862279   -2.032283
     67          1           0        7.010326   -3.922002   -0.068758
     68          1           0        6.900941   -0.758673    0.178782
     69          1           0        4.569319    0.987222    0.700339
     70          1           0        6.255723    0.894343    1.711501
     71          1           0        4.912105    0.012663    2.122531
     72          1           0        3.249691    6.159032   -1.466973
     73          1           0        4.060315    4.451252   -0.918135
     74          1           0       -0.240316    6.554182   -1.893812
     75          1           0        1.243972    7.194730   -1.052012
     76          1           0       -0.202903    7.167056   -0.024085
     77          1           0        3.533987    6.631085    1.162516
     78          1           0        5.077609    6.060119    0.370647
     79          1           0        4.334341    5.252137    1.433009
     80          1           0       -3.496581   -4.368704   -2.128369
     81          1           0       -7.719428   -1.971955   -1.530376
 ---------------------------------------------------------------------

 SCF Done:  E(RB3LYP) =  -1949.07034370     A.U. after   18 cycles

 Excitation energies and oscillator strengths:

 Excited State   1:      Singlet-A      2.1573 eV  574.71 nm  f=0.3230  <S**2>=0.000
     156 ->157         0.70120
 This state for optimization and/or second-order correction.
 Total Energy, E(TD-HF/TD-DFT) =  -1948.99106267
 Copying the excited state density for this state as the 1-particle RhoCI density.

 The electronic state is 1-A.
 Alpha  occ. eigenvalues --  -19.21377 -19.19216 -19.15408 -19.14151 -19.09348
 Alpha  occ. eigenvalues --  -19.09152 -14.37918 -14.36643 -14.36610 -14.29497
 Alpha  occ. eigenvalues --  -10.34745 -10.33466 -10.28386 -10.25936 -10.25446
 Alpha  occ. eigenvalues --  -10.24127 -10.23869 -10.23450 -10.23394 -10.23318
 Alpha  occ. eigenvalues --  -10.22089 -10.21650 -10.21623 -10.21596 -10.21580
 Alpha  occ. eigenvalues --  -10.21365 -10.21333 -10.21016 -10.20951 -10.20872
 Alpha  occ. eigenvalues --  -10.20662 -10.20560 -10.20317 -10.20271 -10.20017
 Alpha  occ. eigenvalues --  -10.19681 -10.19633 -10.19524 -10.19318 -10.19104
 Alpha  occ. eigenvalues --  -10.18265 -10.17398 -10.16204  -1.13962  -1.09467
 Alpha  occ. eigenvalues --   -1.01797  -1.01781  -1.01402  -0.99617  -0.99044
 Alpha  occ. eigenvalues --   -0.98454  -0.93126  -0.91330  -0.83176  -0.82595
 Alpha  occ. eigenvalues --   -0.80763  -0.80565  -0.80216  -0.79098  -0.78190
 Alpha  occ. eigenvalues --   -0.77561  -0.76469  -0.75178  -0.73768  -0.72697
 Alpha  occ. eigenvalues --   -0.71096  -0.69729  -0.69079  -0.68346  -0.67845
 Alpha  occ. eigenvalues --   -0.67063  -0.65174  -0.64338  -0.63264  -0.61345
 Alpha  occ. eigenvalues --   -0.60502  -0.59427  -0.58502  -0.57467  -0.57195
 Alpha  occ. eigenvalues --   -0.56587  -0.55384  -0.55029  -0.54135  -0.53007
 Alpha  occ. eigenvalues --   -0.52676  -0.51954  -0.51464  -0.51293  -0.51131
 Alpha  occ. eigenvalues --   -0.50619  -0.49607  -0.49202  -0.48162  -0.47711
 Alpha  occ. eigenvalues --   -0.47034  -0.46721  -0.46392  -0.45482  -0.45119
 Alpha  occ. eigenvalues --   -0.44926  -0.44727  -0.44365  -0.44013  -0.43608
 Alpha  occ. eigenvalues --   -0.43390  -0.43183  -0.42916  -0.42767  -0.42484
 Alpha  occ. eigenvalues --   -0.41938  -0.41533  -0.41134  -0.40829  -0.40662
 Alpha  occ. eigenvalues --   -0.40374  -0.40274  -0.39874  -0.39817  -0.39751
 Alpha  occ. eigenvalues --   -0.39361  -0.39036  -0.38920  -0.38395  -0.38228
 Alpha  occ. eigenvalues --   -0.37578  -0.37335  -0.37248  -0.36976  -0.36811
 Alpha  occ. eigenvalues --   -0.36325  -0.35894  -0.35278  -0.34970  -0.34797
 Alpha  occ. eigenvalues --   -0.34625  -0.34311  -0.33972  -0.33382  -0.33102
 Alpha  occ. eigenvalues --   -0.32948  -0.32059  -0.31551  -0.30006  -0.29834
 Alpha  occ. eigenvalues --   -0.29429  -0.28131  -0.26591  -0.25920  -0.25710
 Alpha  occ. eigenvalues --   -0.25003  -0.24173  -0.24068  -0.23390  -0.22006
 Alpha  occ. eigenvalues --   -0.19180
 Alpha virt. eigenvalues --   -0.10296  -0.05786  -0.03509  -0.03012  -0.01845
 Alpha virt. eigenvalues --    0.00403   0.01466   0.02071   0.02871   0.03245
 Alpha virt. eigenvalues --    0.03634   0.04312   0.05186   0.06206   0.06689

 Mulliken charges:
               1
     1  O   -0.234845
     2  O   -0.255112
     3  O   -0.083052
     4  O   -0.237974
     5  O   -0.248340
     6  O   -0.288020
     7  N   -0.044938
     8  N   -0.075635
     9  N   -0.135734
    10  N   -0.289886
    11  C   -0.108660
    12  C    0.007159
    13  C   -0.181610
    14  C    0.030569
    15  C   -0.123895
    16  C    0.125649
    17  C   -0.049897
    18  C   -0.126029
    19  C    0.115568
    20  C   -0.083327
    21  C    0.079906
    22  C   -0.023366
    23  C    0.048242
    24  C    0.182634
    25  C   -0.110402
    26  C    0.008672
    27  C    0.143184
    28  C    0.104505
    29  C   -0.116361
    30  C    0.072498
    31  C   -0.133136
    32  C   -0.046202
    33  C   -0.094928
    34  C    0.134041
    35  C   -0.098550
    36  C   -0.217193
    37  C    0.155407
    38  C    0.042114
    39  C    0.188603
    40  C    0.090200
    41  C    0.167405
    42  C    0.090362
    43  C    0.132395
    44  H    0.135863
    45  H   -0.005521
    46  H    0.003722
    47  H    0.014918
    48  H    0.047680
    49  H   -0.008863
    50  H    0.015877
    51  H    0.032535
    52  H    0.178766
    53  H    0.045057
    54  H    0.045064
    55  H    0.036724
    56  H    0.144278
    57  H    0.035272
    58  H    0.000024
    59  H    0.096307
    60  H    0.035237
    61  H    0.030246
    62  H    0.043909
    63  H    0.006625
    64  H    0.003260
    65  H    0.028715
    66  H    0.039202
    67  H    0.034183
    68  H   -0.075558
    69  H    0.119510
    70  H   -0.009959
    71  H    0.009056
    72  H    0.030043
    73  H   -0.015769
    74  H    0.053797
    75  H   -0.005814
    76  H    0.042004
    77  H    0.005756
    78  H   -0.032164
    79  H   -0.018745
    80  H    0.248191
    81  H    0.098551
 Sum of Mulliken charges =  -0.00000

 Dipole moment (field-independent basis, Debye):
    X=             -3.9743    Y=              2.4123    Z=             -0.2393  Tot=              4.6553
 Quadrupole moment (field-independent basis, Debye-Ang):
   XX=           -258.0462   YY=           -245.0262   ZZ=           -254.1269
   XY=             16.2441   XZ=             20.1321   YZ=            -13.2157

 Normal termination of Gaussian 16 at Sun Jul  7 02:22:55 2019.
