 Gaussian 16, Revision A.03,
 Gaussian 16:  ES64L-G16RevA.03 25-Dec-2016

 --------------------------
 # td=(NStates=1) B3LYP/SVP
 --------------------------

 --
 TD
 --
 Symbolic Z-matrix:
 Charge =  0 Multiplicity = 1

                         Standard orientation:
 ---------------------------------------------------------------------
 Center     Atomic      Atomic             Coordinates (Angstroms)
 Number     Number       Type             X           Y           Z
 ---------------------------------------------------------------------
      1          8           0        4.499123   -4.625018   -2.101547
      2          8           0       -2.939620   -4.824857   -1.276078
      3          8           0       -7.052769   -1.516824   -1.726707
      4          8           0       -3.817983   -3.226345   -0.044937
      5          8           0       -7.638968   -0.669019    0.155459
      6          8           0        3.010293    2.382290    0.179674
      7          7           0        0.340585   -0.538602    0.588750
      8          7           0       -1.501218    1.809480    0.335537
      9          7           0        3.336120   -3.060222   -0.869215
     10          7           0        0.707319    2.881379    0.043523
     11          6           0       -0.607491   -2.493139    1.388126
     12          6           0       -0.932684   -1.155486    0.921271
     13          6           0        0.782520   -2.702757    1.129816
     14          6           0        1.279361   -1.460288    0.640134
     15          6           0       -3.749944    1.436984    0.242234
     16          6           0       -2.551430    0.805822    0.526014
     17          6           0       -2.138284   -0.507658    0.844465
     18          6           0       -3.552885    2.801204   -0.071503
     19          6           0       -1.615936   -3.456406    1.896394
     20          6           0        5.615299   -2.543938   -1.308383
     21          6           0        3.580193   -1.822712   -0.132049
     22          6           0       -2.128383    2.998452   -0.067416
     23          6           0        5.024205   -1.552286   -0.288214
     24          6           0       -5.198710    0.843237    0.376922
     25          6           0        2.688015   -1.062292    0.529423
     26          6           0        1.510085   -3.833905    1.781213
     27          6           0        4.431033   -3.528944   -1.462852
     28          6           0       -1.993226   -4.533198    0.923446
     29          6           0       -5.379927   -0.174416   -0.718008
     30          6           0       -4.474614    3.915238   -0.323613
     31          6           0       -1.285161    4.196055   -0.243432
     32          6           0        6.916041   -3.244428   -0.882264
     33          6           0        5.745724   -0.578757    0.250972
     34          6           0        0.061876    4.049332   -0.211635
     35          6           0        1.075340    5.179989   -0.511071
     36          6           0        2.286113    4.587513   -0.418977
     37          6           0       -2.955834   -4.035859   -0.184853
     38          6           0        5.380521    0.491203    1.294164
     39          6           0       -6.832777   -0.771259   -0.656128
     40          6           0        3.650033    5.256951   -0.398960
     41          6           0        2.050628    3.142774    0.035414
     42          6           0        0.459024    6.499641   -0.858951
     43          6           0        4.311009    5.571090    0.987325
     44          1           0        0.329125    0.287188    0.156590
     45          1           0       -2.903213   -1.283460    1.306651
     46          1           0       -2.557966   -2.974901    2.222111
     47          1           0       -1.235887   -4.044670    2.761693
     48          1           0        5.729152   -2.019574   -2.303584
     49          1           0       -5.320950    0.282682    1.541809
     50          1           0       -5.994648    1.644546    0.414105
     51          1           0        2.990082    0.147146    0.942348
     52          1           0       -0.395735    1.913622    0.586180
     53          1           0        1.442416   -4.670856    1.029845
     54          1           0        2.374592   -3.435364    1.908082
     55          1           0        1.244175   -4.410175    2.790488
     56          1           0        2.445771   -3.510446   -1.005621
     57          1           0       -1.107418   -4.842959    0.467734
     58          1           0       -2.572731   -5.437135    1.344588
     59          1           0       -4.661195   -1.006519   -0.659914
     60          1           0       -5.476945    0.315859   -1.750810
     61          1           0       -4.480186    4.664894    0.199364
     62          1           0       -5.586819    3.787159   -0.218450
     63          1           0       -4.166202    4.405730   -1.348015
     64          1           0       -1.834134    5.103430   -0.523461
     65          1           0        7.868821   -2.682184   -0.800676
     66          1           0        7.086100   -4.163677   -1.543547
     67          1           0        6.809224   -3.668984    0.195326
     68          1           0        6.818939   -0.517790   -0.058904
     69          1           0        4.793346    1.287052    0.858901
     70          1           0        6.180390    0.880401    1.785863
     71          1           0        4.634012    0.130495    2.116710
     72          1           0        3.366916    6.125120   -1.103076
     73          1           0        4.262515    4.657621   -1.024267
     74          1           0       -0.213863    6.617415   -1.821744
     75          1           0        1.236122    7.272607   -0.947600
     76          1           0       -0.202075    7.001053   -0.171804
     77          1           0        3.729378    6.155531    1.728206
     78          1           0        5.277341    5.890155    0.660860
     79          1           0        4.454285    4.632874    1.329563
     80          1           0       -3.682307   -4.384457   -1.824772
     81          1           0       -8.039084   -1.862035   -1.591984
 ---------------------------------------------------------------------

 SCF Done:  E(RB3LYP) =  -1949.10958157     A.U. after   17 cycles

 Excitation energies and oscillator strengths:

 Excited State   1:      Singlet-A      2.0071 eV  617.72 nm  f=0.4004  <S**2>=0.000
     156 ->157         0.70537
     156 <-157        -0.11028
 This state for optimization and/or second-order correction.
 Total Energy, E(TD-HF/TD-DFT) =  -1949.03582126
 Copying the excited state density for this state as the 1-particle RhoCI density.

 The electronic state is 1-A.
 Alpha  occ. eigenvalues --  -19.19821 -19.17564 -19.14764 -19.12216 -19.09782
 Alpha  occ. eigenvalues --  -19.09770 -14.38445 -14.38296 -14.34508 -14.29044
 Alpha  occ. eigenvalues --  -10.33447 -10.30546 -10.28877 -10.26121 -10.25531
 Alpha  occ. eigenvalues --  -10.25461 -10.24243 -10.23685 -10.23532 -10.23045
 Alpha  occ. eigenvalues --  -10.22489 -10.22102 -10.22008 -10.21932 -10.21843
 Alpha  occ. eigenvalues --  -10.21260 -10.21166 -10.21069 -10.20784 -10.20636
 Alpha  occ. eigenvalues --  -10.20318 -10.20160 -10.20090 -10.19908 -10.19640
 Alpha  occ. eigenvalues --  -10.19618 -10.19521 -10.18877 -10.18543 -10.18500
 Alpha  occ. eigenvalues --  -10.18255 -10.17658 -10.17129  -1.12070  -1.11370
 Alpha  occ. eigenvalues --   -1.02392  -1.01415  -1.01155  -1.00427  -1.00024
 Alpha  occ. eigenvalues --   -0.94719  -0.93964  -0.91155  -0.84498  -0.82179
 Alpha  occ. eigenvalues --   -0.81692  -0.80895  -0.79795  -0.78895  -0.78471
 Alpha  occ. eigenvalues --   -0.77036  -0.76386  -0.74839  -0.74336  -0.73049
 Alpha  occ. eigenvalues --   -0.72216  -0.70500  -0.69296  -0.69013  -0.67993
 Alpha  occ. eigenvalues --   -0.66189  -0.65592  -0.64770  -0.62593  -0.61339
 Alpha  occ. eigenvalues --   -0.60655  -0.59381  -0.58604  -0.58360  -0.57382
 Alpha  occ. eigenvalues --   -0.56208  -0.55268  -0.54782  -0.53533  -0.53420
 Alpha  occ. eigenvalues --   -0.52942  -0.52364  -0.50891  -0.50520  -0.50162
 Alpha  occ. eigenvalues --   -0.49481  -0.48621  -0.48262  -0.48130  -0.47819
 Alpha  occ. eigenvalues --   -0.47348  -0.46787  -0.46609  -0.45896  -0.45769
 Alpha  occ. eigenvalues --   -0.45443  -0.44616  -0.44395  -0.44209  -0.43727
 Alpha  occ. eigenvalues --   -0.43375  -0.42841  -0.42706  -0.42638  -0.42437
 Alpha  occ. eigenvalues --   -0.42169  -0.42007  -0.41631  -0.41055  -0.40955
 Alpha  occ. eigenvalues --   -0.40802  -0.40454  -0.39778  -0.39566  -0.39228
 Alpha  occ. eigenvalues --   -0.39032  -0.38877  -0.38566  -0.38553  -0.38169
 Alpha  occ. eigenvalues --   -0.38013  -0.37923  -0.37662  -0.37642  -0.37439
 Alpha  occ. eigenvalues --   -0.36837  -0.35640  -0.35485  -0.35441  -0.34711
 Alpha  occ. eigenvalues --   -0.34305  -0.34144  -0.33885  -0.33423  -0.32861
 Alpha  occ. eigenvalues --   -0.32315  -0.32169  -0.31993  -0.30440  -0.29954
 Alpha  occ. eigenvalues --   -0.27874  -0.27305  -0.26715  -0.26371  -0.25660
 Alpha  occ. eigenvalues --   -0.24813  -0.24279  -0.23640  -0.23345  -0.22412
 Alpha  occ. eigenvalues --   -0.18810
 Alpha virt. eigenvalues --   -0.10861  -0.05482  -0.04035  -0.01599   0.00090
 Alpha virt. eigenvalues --    0.01122   0.02280   0.02800   0.03327   0.03413
 Alpha virt. eigenvalues --    0.03659   0.04193   0.04982   0.05223   0.05962

 Mulliken charges:
               1
     1  O   -0.278956
     2  O   -0.194457
     3  O   -0.215912
     4  O   -0.214315
     5  O   -0.171590
     6  O   -0.246642
     7  N    0.010354
     8  N   -0.256909
     9  N   -0.084415
    10  N   -0.308431
    11  C   -0.064812
    12  C   -0.020720
    13  C   -0.173207
    14  C    0.041076
    15  C   -0.050623
    16  C    0.131242
    17  C   -0.038472
    18  C   -0.095891
    19  C    0.111645
    20  C   -0.036104
    21  C    0.167418
    22  C    0.062245
    23  C   -0.002569
    24  C    0.011150
    25  C   -0.209197
    26  C    0.105153
    27  C    0.104438
    28  C    0.040163
    29  C   -0.023659
    30  C    0.171262
    31  C   -0.119678
    32  C   -0.000238
    33  C   -0.160317
    34  C    0.112925
    35  C   -0.010397
    36  C   -0.249229
    37  C    0.097439
    38  C    0.068473
    39  C    0.081946
    40  C    0.051695
    41  C    0.170963
    42  C    0.067872
    43  C    0.106312
    44  H    0.085293
    45  H    0.038819
    46  H    0.020078
    47  H    0.008246
    48  H    0.058660
    49  H    0.045422
    50  H    0.021638
    51  H    0.125442
    52  H    0.199939
    53  H    0.026798
    54  H   -0.018211
    55  H    0.048007
    56  H    0.128336
    57  H    0.003525
    58  H    0.066694
    59  H    0.068206
    60  H    0.043393
    61  H   -0.068179
    62  H    0.006837
    63  H    0.023926
    64  H   -0.028870
    65  H    0.024733
    66  H    0.047301
    67  H    0.015834
    68  H   -0.000790
    69  H    0.065363
    70  H   -0.017488
    71  H    0.023400
    72  H   -0.004995
    73  H   -0.010453
    74  H    0.033636
    75  H    0.000568
    76  H    0.007702
    77  H    0.028310
    78  H    0.005263
    79  H   -0.012588
    80  H    0.201359
    81  H    0.201817
 Sum of Mulliken charges =  -0.00000

 Dipole moment (field-independent basis, Debye):
    X=             -2.9636    Y=              0.3397    Z=              1.3324  Tot=              3.2670
 Quadrupole moment (field-independent basis, Debye-Ang):
   XX=           -253.1654   YY=           -243.3860   ZZ=           -256.4753
   XY=             15.1308   XZ=             18.6194   YZ=            -16.3055

 Normal termination of Gaussian 16 at Sat Jul  6 23:27:24 2019.
