 Gaussian 16, Revision A.03,
 Gaussian 16:  ES64L-G16RevA.03 25-Dec-2016

 --------------------------
 # td=(NStates=1) B3LYP/SVP
 --------------------------

 --
 TD
 --
 Symbolic Z-matrix:
 Charge =  0 Multiplicity = 1

                         Standard orientation:
 ---------------------------------------------------------------------
 Center     Atomic      Atomic             Coordinates (Angstroms)
 Number     Number       Type             X           Y           Z
 ---------------------------------------------------------------------
      1          8           0        4.664030   -4.742730   -1.717054
      2          8           0       -2.698184   -4.580936   -1.462753
      3          8           0       -6.969966   -1.796020   -1.734233
      4          8           0       -3.750217   -3.198173    0.060458
      5          8           0       -7.735284   -0.543120   -0.075881
      6          8           0        2.983292    2.593697    0.118329
      7          7           0        0.320150   -0.702925    0.469288
      8          7           0       -1.566279    1.667906    0.372849
      9          7           0        3.498925   -3.078678   -0.681561
     10          7           0        0.687048    3.007450    0.129086
     11          6           0       -0.573243   -2.522770    1.443263
     12          6           0       -0.887291   -1.222635    0.873300
     13          6           0        0.896626   -2.683027    1.395189
     14          6           0        1.348716   -1.482476    0.704379
     15          6           0       -3.841549    1.236965    0.370079
     16          6           0       -2.507651    0.685804    0.482057
     17          6           0       -2.171640   -0.609292    0.828062
     18          6           0       -3.701935    2.556677    0.095608
     19          6           0       -1.484524   -3.540855    1.942185
     20          6           0        5.638932   -2.472612   -1.376948
     21          6           0        3.646427   -1.783058   -0.136826
     22          6           0       -2.232044    2.815675    0.040619
     23          6           0        5.071000   -1.435615   -0.544423
     24          6           0       -5.030519    0.449078    0.449990
     25          6           0        2.643380   -1.037205    0.412075
     26          6           0        1.814575   -3.716156    1.986648
     27          6           0        4.534950   -3.578018   -1.318276
     28          6           0       -1.950617   -4.519348    0.764996
     29          6           0       -5.316630   -0.318028   -0.802340
     30          6           0       -4.679534    3.630634   -0.320977
     31          6           0       -1.468644    4.081403   -0.118806
     32          6           0        7.065512   -2.981157   -1.020042
     33          6           0        5.802639   -0.364166    0.026062
     34          6           0       -0.065296    3.969100   -0.168316
     35          6           0        0.773993    5.262347   -0.497255
     36          6           0        2.075723    4.882738   -0.297895
     37          6           0       -2.832035   -4.015215   -0.190161
     38          6           0        5.311850    0.572871    1.098803
     39          6           0       -6.807298   -0.867510   -0.785412
     40          6           0        3.414887    5.460240   -0.490235
     41          6           0        2.001365    3.424700    0.039435
     42          6           0        0.163251    6.576783   -0.832310
     43          6           0        4.215283    5.715834    0.892835
     44          1           0        0.331659    0.221357   -0.184412
     45          1           0       -3.106215   -1.132775    1.235754
     46          1           0       -2.486134   -2.971562    2.315336
     47          1           0       -1.007840   -3.953969    2.852240
     48          1           0        5.539916   -2.194245   -2.389313
     49          1           0       -5.041865   -0.139504    1.344031
     50          1           0       -5.858627    1.161082    0.624928
     51          1           0        3.080424    0.082164    0.558651
     52          1           0       -0.647521    1.717313    0.821863
     53          1           0        1.935425   -4.667454    1.274528
     54          1           0        2.840160   -3.230069    2.297420
     55          1           0        1.305021   -4.269574    2.816551
     56          1           0        2.381368   -3.543225   -0.534085
     57          1           0       -1.085606   -5.023808    0.301469
     58          1           0       -2.567386   -5.373655    1.220415
     59          1           0       -4.530464   -1.180359   -0.835625
     60          1           0       -5.231218    0.401762   -1.694776
     61          1           0       -4.727053    4.462948    0.271231
     62          1           0       -5.732919    3.145352   -0.080172
     63          1           0       -4.758845    3.920460   -1.288646
     64          1           0       -2.062384    4.946861   -0.375947
     65          1           0        8.006315   -2.283983   -1.370342
     66          1           0        7.103849   -4.059030   -1.530503
     67          1           0        6.896291   -3.207806    0.158993
     68          1           0        6.851803   -0.282027   -0.434321
     69          1           0        4.805332    1.469661    0.490227
     70          1           0        6.019565    1.145292    1.664963
     71          1           0        4.727424    0.033676    2.067938
     72          1           0        3.291271    6.593267   -1.018378
     73          1           0        3.993729    4.832527   -1.284032
     74          1           0       -0.444880    6.635468   -1.812687
     75          1           0        0.878567    7.518428   -0.666071
     76          1           0       -0.772081    6.797052   -0.126873
     77          1           0        3.817828    6.466096    1.762639
     78          1           0        5.118963    6.409788    0.612420
     79          1           0        4.561473    4.762960    1.418010
     80          1           0       -3.352013   -4.158550   -1.902046
     81          1           0       -7.813581   -2.200165   -1.792112
 ---------------------------------------------------------------------

 SCF Done:  E(RB3LYP) =  -1949.09038181     A.U. after   16 cycles

 Excitation energies and oscillator strengths:

 Excited State   1:      Singlet-A      1.9698 eV  629.42 nm  f=0.3827  <S**2>=0.000
     156 ->157         0.70424
     156 <-157        -0.10362
 This state for optimization and/or second-order correction.
 Total Energy, E(TD-HF/TD-DFT) =  -1949.01799221
 Copying the excited state density for this state as the 1-particle RhoCI density.

 The electronic state is 1-A.
 Alpha  occ. eigenvalues --  -19.19356 -19.17894 -19.14670 -19.12855 -19.10068
 Alpha  occ. eigenvalues --  -19.09586 -14.39126 -14.37973 -14.36930 -14.28766
 Alpha  occ. eigenvalues --  -10.34221 -10.32646 -10.28346 -10.26640 -10.24847
 Alpha  occ. eigenvalues --  -10.24328 -10.23806 -10.23795 -10.23093 -10.23009
 Alpha  occ. eigenvalues --  -10.22865 -10.22646 -10.22088 -10.21992 -10.21938
 Alpha  occ. eigenvalues --  -10.21511 -10.21458 -10.21267 -10.20983 -10.20945
 Alpha  occ. eigenvalues --  -10.20869 -10.20757 -10.20665 -10.20377 -10.20208
 Alpha  occ. eigenvalues --  -10.19962 -10.19766 -10.19522 -10.19490 -10.19427
 Alpha  occ. eigenvalues --  -10.19087 -10.19030 -10.18852  -1.10983  -1.10145
 Alpha  occ. eigenvalues --   -1.02010  -1.01391  -1.00604  -0.99818  -0.99073
 Alpha  occ. eigenvalues --   -0.98518  -0.94465  -0.92612  -0.84157  -0.83099
 Alpha  occ. eigenvalues --   -0.81447  -0.80800  -0.79280  -0.79098  -0.78597
 Alpha  occ. eigenvalues --   -0.77443  -0.75828  -0.74255  -0.73188  -0.72491
 Alpha  occ. eigenvalues --   -0.72244  -0.69837  -0.69100  -0.68379  -0.67746
 Alpha  occ. eigenvalues --   -0.66836  -0.64737  -0.63091  -0.62161  -0.61457
 Alpha  occ. eigenvalues --   -0.60953  -0.60616  -0.59103  -0.58072  -0.57352
 Alpha  occ. eigenvalues --   -0.56249  -0.55893  -0.54414  -0.53913  -0.52656
 Alpha  occ. eigenvalues --   -0.52464  -0.51371  -0.51254  -0.50503  -0.50062
 Alpha  occ. eigenvalues --   -0.49688  -0.49459  -0.48529  -0.47663  -0.47283
 Alpha  occ. eigenvalues --   -0.47060  -0.46296  -0.45876  -0.45856  -0.45128
 Alpha  occ. eigenvalues --   -0.45001  -0.44050  -0.43766  -0.43359  -0.43212
 Alpha  occ. eigenvalues --   -0.42982  -0.42737  -0.42640  -0.42236  -0.42016
 Alpha  occ. eigenvalues --   -0.41727  -0.41592  -0.41437  -0.40967  -0.40812
 Alpha  occ. eigenvalues --   -0.40436  -0.40115  -0.39880  -0.39630  -0.39461
 Alpha  occ. eigenvalues --   -0.39232  -0.39070  -0.38752  -0.38474  -0.38030
 Alpha  occ. eigenvalues --   -0.37634  -0.37540  -0.37251  -0.36907  -0.36807
 Alpha  occ. eigenvalues --   -0.36490  -0.35395  -0.35192  -0.34930  -0.34415
 Alpha  occ. eigenvalues --   -0.34287  -0.33402  -0.33005  -0.32811  -0.32552
 Alpha  occ. eigenvalues --   -0.32463  -0.31971  -0.31380  -0.30173  -0.29625
 Alpha  occ. eigenvalues --   -0.28442  -0.27085  -0.26233  -0.25558  -0.25187
 Alpha  occ. eigenvalues --   -0.24938  -0.24192  -0.24178  -0.23553  -0.21391
 Alpha  occ. eigenvalues --   -0.18034
 Alpha virt. eigenvalues --   -0.10134  -0.05858  -0.04082  -0.03742   0.00144
 Alpha virt. eigenvalues --    0.00602   0.00759   0.01304   0.03417   0.03595
 Alpha virt. eigenvalues --    0.04059   0.04574   0.05006   0.05199   0.05575

 Mulliken charges:
               1
     1  O   -0.246359
     2  O   -0.150881
     3  O   -0.160431
     4  O   -0.272660
     5  O   -0.221906
     6  O   -0.272221
     7  N   -0.060814
     8  N   -0.081693
     9  N   -0.149840
    10  N   -0.192726
    11  C   -0.128897
    12  C    0.083709
    13  C   -0.162423
    14  C    0.072540
    15  C   -0.063890
    16  C    0.009136
    17  C   -0.087366
    18  C   -0.129229
    19  C    0.054770
    20  C    0.027060
    21  C    0.048489
    22  C    0.031493
    23  C   -0.093279
    24  C    0.116572
    25  C   -0.165957
    26  C    0.032813
    27  C    0.070471
    28  C    0.070689
    29  C   -0.050257
    30  C    0.153048
    31  C   -0.121568
    32  C   -0.047859
    33  C   -0.097514
    34  C    0.074632
    35  C   -0.072295
    36  C   -0.119493
    37  C    0.127563
    38  C   -0.031159
    39  C    0.140479
    40  C   -0.005398
    41  C    0.149699
    42  C   -0.003202
    43  C   -0.082008
    44  H    0.193241
    45  H    0.034852
    46  H    0.037996
    47  H    0.022574
    48  H    0.019098
    49  H    0.008188
    50  H    0.003259
    51  H    0.087033
    52  H    0.156907
    53  H    0.031954
    54  H    0.072203
    55  H    0.007413
    56  H    0.205123
    57  H    0.031331
    58  H    0.071828
    59  H    0.074560
    60  H    0.048898
    61  H   -0.003364
    62  H    0.002890
    63  H    0.010014
    64  H   -0.029184
    65  H    0.059090
    66  H    0.058699
    67  H    0.039307
    68  H    0.007947
    69  H    0.111237
    70  H   -0.001025
    71  H    0.058224
    72  H    0.010931
    73  H    0.053241
    74  H    0.035670
    75  H    0.047971
    76  H    0.032157
    77  H    0.029361
    78  H    0.018210
    79  H    0.055349
    80  H    0.139565
    81  H    0.165413
 Sum of Mulliken charges =  -0.00000

 Dipole moment (field-independent basis, Debye):
    X=             -3.8838    Y=              0.6911    Z=              0.1114  Tot=              3.9464
 Quadrupole moment (field-independent basis, Debye-Ang):
   XX=           -263.8502   YY=           -246.2146   ZZ=           -252.1879
   XY=             20.3207   XZ=             16.8975   YZ=            -14.7501

 Normal termination of Gaussian 16 at Fri Jul  5 06:39:13 2019.
