 Gaussian 16, Revision A.03,
 Gaussian 16:  ES64L-G16RevA.03 25-Dec-2016

 --------------------------
 # td=(NStates=1) B3LYP/SVP
 --------------------------

 --
 TD
 --
 Symbolic Z-matrix:
 Charge =  0 Multiplicity = 1

                         Standard orientation:
 ---------------------------------------------------------------------
 Center     Atomic      Atomic             Coordinates (Angstroms)
 Number     Number       Type             X           Y           Z
 ---------------------------------------------------------------------
      1          8           0       -4.612726   -4.706468    1.861937
      2          8           0        2.777578   -4.711866    1.333397
      3          8           0        6.968656   -1.524698    1.839235
      4          8           0        3.815454   -3.183008    0.064211
      5          8           0        7.515773   -0.646594   -0.140343
      6          8           0       -2.881938    2.369663   -0.241787
      7          7           0       -0.205875   -0.513863   -0.505651
      8          7           0        1.528380    1.817212   -0.352477
      9          7           0       -3.438802   -3.047332    0.622275
     10          7           0       -0.687997    2.910421   -0.091202
     11          6           0        0.735444   -2.485345   -1.313767
     12          6           0        0.972980   -1.234429   -0.824100
     13          6           0       -0.676348   -2.661232   -1.150043
     14          6           0       -1.293676   -1.435619   -0.646828
     15          6           0        3.739110    1.419378   -0.285550
     16          6           0        2.439642    0.792328   -0.487919
     17          6           0        2.265181   -0.487606   -0.783327
     18          6           0        3.596177    2.748996   -0.145692
     19          6           0        1.670064   -3.478152   -1.901569
     20          6           0       -5.575712   -2.525402    1.335930
     21          6           0       -3.730997   -1.801107    0.056160
     22          6           0        2.146552    2.972187   -0.093750
     23          6           0       -5.058901   -1.470558    0.340266
     24          6           0        5.038079    0.587806   -0.479245
     25          6           0       -2.701323   -1.103340   -0.442381
     26          6           0       -1.372280   -3.844238   -1.763815
     27          6           0       -4.589108   -3.598926    1.343921
     28          6           0        2.084999   -4.519638   -0.856075
     29          6           0        5.371418   -0.200624    0.871747
     30          6           0        4.521408    3.887931    0.086865
     31          6           0        1.316720    4.137002    0.221311
     32          6           0       -7.002489   -3.168225    0.996769
     33          6           0       -5.813581   -0.607590   -0.371285
     34          6           0       -0.021042    3.974429    0.312856
     35          6           0       -0.941394    5.116828    0.539153
     36          6           0       -2.219779    4.628888    0.410190
     37          6           0        2.895371   -3.927515    0.219008
     38          6           0       -5.303853    0.521734   -1.242952
     39          6           0        6.692614   -0.844604    0.734298
     40          6           0       -3.585290    5.273626    0.428515
     41          6           0       -2.006365    3.198415    0.017646
     42          6           0       -0.550998    6.479301    0.979968
     43          6           0       -4.131286    5.836906   -0.910039
     44          1           0       -0.048653    0.423532    0.037597
     45          1           0        3.113639   -1.105824   -0.880492
     46          1           0        2.524692   -2.880889   -2.329929
     47          1           0        1.022436   -4.079668   -2.689109
     48          1           0       -5.572208   -2.113884    2.305537
     49          1           0        4.918342   -0.124251   -1.334267
     50          1           0        5.862349    1.308473   -0.723791
     51          1           0       -2.850092   -0.030659   -0.718980
     52          1           0        0.515823    1.804180   -0.405609
     53          1           0       -1.327585   -4.846485   -1.050146
     54          1           0       -2.286515   -3.543442   -2.045505
     55          1           0       -0.799134   -4.250720   -2.605019
     56          1           0       -2.529694   -3.451666    0.570545
     57          1           0        1.165307   -5.006270   -0.486169
     58          1           0        2.854675   -5.269432   -1.557704
     59          1           0        4.715743   -1.046128    1.018310
     60          1           0        5.522874    0.329773    1.770936
     61          1           0        4.559832    4.779918   -0.745823
     62          1           0        5.536080    3.316845    0.037386
     63          1           0        4.492664    4.297309    1.015680
     64          1           0        1.794514    5.071369    0.761009
     65          1           0       -7.796754   -2.322204    0.917720
     66          1           0       -7.251456   -3.913664    1.605299
     67          1           0       -7.222352   -3.561234   -0.055997
     68          1           0       -6.932955   -0.536164   -0.263264
     69          1           0       -4.744530    1.231797   -0.781445
     70          1           0       -6.283822    0.796106   -2.106913
     71          1           0       -4.706056    0.004630   -2.015629
     72          1           0       -3.443564    6.167253    1.052715
     73          1           0       -4.402190    4.656488    0.978045
     74          1           0       -0.250952    6.229465    2.180420
     75          1           0       -1.294978    7.186425    1.219140
     76          1           0        0.171749    6.927179    0.237202
     77          1           0       -3.507067    6.835866   -1.224850
     78          1           0       -5.272275    5.931810   -0.768639
     79          1           0       -3.923792    4.952713   -1.606298
     80          1           0        3.286810   -4.381331    2.070568
     81          1           0        7.888753   -1.818154    1.996062
 ---------------------------------------------------------------------

 SCF Done:  E(RB3LYP) =  -1949.11344470     A.U. after   16 cycles

 Excitation energies and oscillator strengths:

 Excited State   1:      Singlet-A      1.9163 eV  646.99 nm  f=0.3233  <S**2>=0.000
     156 ->157         0.70709
 This state for optimization and/or second-order correction.
 Total Energy, E(TD-HF/TD-DFT) =  -1949.04302093
 Copying the excited state density for this state as the 1-particle RhoCI density.

 The electronic state is 1-A.
 Alpha  occ. eigenvalues --  -19.18789 -19.18058 -19.14813 -19.11753 -19.11342
 Alpha  occ. eigenvalues --  -19.09217 -14.37925 -14.36362 -14.35410 -14.27993
 Alpha  occ. eigenvalues --  -10.33544 -10.31440 -10.29303 -10.25352 -10.24929
 Alpha  occ. eigenvalues --  -10.24410 -10.23100 -10.23095 -10.23024 -10.22777
 Alpha  occ. eigenvalues --  -10.21989 -10.21921 -10.21536 -10.21051 -10.21044
 Alpha  occ. eigenvalues --  -10.20893 -10.20893 -10.20729 -10.20562 -10.20224
 Alpha  occ. eigenvalues --  -10.20198 -10.19795 -10.19789 -10.19773 -10.19753
 Alpha  occ. eigenvalues --  -10.19593 -10.19315 -10.19248 -10.19150 -10.19147
 Alpha  occ. eigenvalues --  -10.18607 -10.18333 -10.18077  -1.11116  -1.09668
 Alpha  occ. eigenvalues --   -1.02718  -1.02611  -1.00608  -0.99870  -0.99719
 Alpha  occ. eigenvalues --   -0.95586  -0.94330  -0.92589  -0.83088  -0.82719
 Alpha  occ. eigenvalues --   -0.81567  -0.81278  -0.79414  -0.78715  -0.78273
 Alpha  occ. eigenvalues --   -0.77722  -0.76665  -0.75051  -0.73852  -0.72719
 Alpha  occ. eigenvalues --   -0.71856  -0.69862  -0.69462  -0.68583  -0.68180
 Alpha  occ. eigenvalues --   -0.67699  -0.65909  -0.64566  -0.61764  -0.61627
 Alpha  occ. eigenvalues --   -0.60689  -0.60059  -0.58892  -0.57964  -0.57291
 Alpha  occ. eigenvalues --   -0.55928  -0.55516  -0.53960  -0.53451  -0.52904
 Alpha  occ. eigenvalues --   -0.52676  -0.52342  -0.51421  -0.50756  -0.49436
 Alpha  occ. eigenvalues --   -0.49298  -0.49161  -0.48495  -0.48154  -0.47864
 Alpha  occ. eigenvalues --   -0.47133  -0.46677  -0.46213  -0.45947  -0.45577
 Alpha  occ. eigenvalues --   -0.44864  -0.44617  -0.44184  -0.44056  -0.43823
 Alpha  occ. eigenvalues --   -0.43252  -0.43198  -0.42585  -0.42211  -0.42141
 Alpha  occ. eigenvalues --   -0.41751  -0.41693  -0.41431  -0.41240  -0.40969
 Alpha  occ. eigenvalues --   -0.40887  -0.40745  -0.40361  -0.39881  -0.39461
 Alpha  occ. eigenvalues --   -0.38992  -0.38830  -0.38711  -0.38473  -0.37528
 Alpha  occ. eigenvalues --   -0.37465  -0.37301  -0.36757  -0.36736  -0.36448
 Alpha  occ. eigenvalues --   -0.36167  -0.35770  -0.35315  -0.34662  -0.34608
 Alpha  occ. eigenvalues --   -0.34396  -0.33987  -0.33693  -0.33397  -0.33118
 Alpha  occ. eigenvalues --   -0.32432  -0.32120  -0.31602  -0.30277  -0.29755
 Alpha  occ. eigenvalues --   -0.27595  -0.27211  -0.26690  -0.26671  -0.25691
 Alpha  occ. eigenvalues --   -0.25424  -0.24554  -0.23604  -0.23263  -0.21429
 Alpha  occ. eigenvalues --   -0.18136
 Alpha virt. eigenvalues --   -0.10197  -0.05369  -0.04164  -0.03477   0.00101
 Alpha virt. eigenvalues --    0.00899   0.01977   0.02807   0.03321   0.04026
 Alpha virt. eigenvalues --    0.04194   0.04489   0.04772   0.05083   0.05592

 Mulliken charges:
               1
     1  O   -0.209880
     2  O   -0.186370
     3  O   -0.194452
     4  O   -0.205678
     5  O   -0.237801
     6  O   -0.218190
     7  N   -0.158230
     8  N   -0.045212
     9  N   -0.180261
    10  N   -0.257623
    11  C   -0.127681
    12  C    0.024745
    13  C   -0.186778
    14  C    0.083582
    15  C   -0.091490
    16  C    0.150912
    17  C   -0.072057
    18  C   -0.114219
    19  C    0.094296
    20  C    0.013590
    21  C    0.128521
    22  C    0.054263
    23  C    0.020438
    24  C    0.069970
    25  C   -0.139583
    26  C    0.094562
    27  C    0.153608
    28  C   -0.003758
    29  C    0.045360
    30  C    0.074972
    31  C   -0.155121
    32  C    0.046497
    33  C   -0.181999
    34  C    0.099340
    35  C   -0.118340
    36  C   -0.153164
    37  C    0.143098
    38  C    0.048685
    39  C    0.114881
    40  C    0.046890
    41  C    0.118035
    42  C    0.054497
    43  C   -0.046786
    44  H    0.171140
    45  H   -0.023268
    46  H    0.030087
    47  H    0.024676
    48  H    0.034601
    49  H    0.039466
    50  H    0.029310
    51  H    0.031866
    52  H    0.113924
    53  H    0.032406
    54  H    0.005554
    55  H    0.000445
    56  H    0.112964
    57  H    0.033721
    58  H    0.088996
    59  H    0.034925
    60  H    0.021336
    61  H    0.055910
    62  H    0.011324
    63  H    0.008391
    64  H    0.019682
    65  H    0.019068
    66  H    0.007069
    67  H    0.015830
    68  H    0.014018
    69  H    0.056177
    70  H    0.011701
    71  H    0.025952
    72  H   -0.017730
    73  H    0.028382
    74  H    0.045602
    75  H   -0.003323
    76  H    0.048891
    77  H    0.038011
    78  H    0.033618
    79  H    0.038622
    80  H    0.174503
    81  H    0.190084
 Sum of Mulliken charges =  -0.00000

 Dipole moment (field-independent basis, Debye):
    X=              3.3686    Y=              1.0290    Z=              1.7975  Tot=              3.9544
 Quadrupole moment (field-independent basis, Debye-Ang):
   XX=           -251.6112   YY=           -243.7546   ZZ=           -250.3834
   XY=            -12.7667   XZ=             20.6892   YZ=             14.0458

 Normal termination of Gaussian 16 at Sun Jun 30 01:52:39 2019.
