 Gaussian 16, Revision A.03,
 Gaussian 16:  ES64L-G16RevA.03 25-Dec-2016

 --------------------------
 # td=(NStates=1) B3LYP/SVP
 --------------------------

 --
 TD
 --
 Symbolic Z-matrix:
 Charge =  0 Multiplicity = 1

                         Standard orientation:
 ---------------------------------------------------------------------
 Center     Atomic      Atomic             Coordinates (Angstroms)
 Number     Number       Type             X           Y           Z
 ---------------------------------------------------------------------
      1          8           0       -4.709365   -4.667471    1.959858
      2          8           0        2.951031   -4.700784    1.405491
      3          8           0        7.280055   -1.482055    1.779086
      4          8           0        3.736328   -3.131269    0.069407
      5          8           0        7.732794   -0.617507   -0.206184
      6          8           0       -3.051967    2.549511   -0.272150
      7          7           0       -0.305426   -0.586376   -0.622206
      8          7           0        1.523220    1.892399   -0.463703
      9          7           0       -3.608585   -3.135238    0.559232
     10          7           0       -0.718521    2.918221   -0.084997
     11          6           0        0.646829   -2.576989   -1.296258
     12          6           0        0.936053   -1.237144   -0.837030
     13          6           0       -0.791535   -2.714920   -1.250612
     14          6           0       -1.357990   -1.537339   -0.752864
     15          6           0        3.844865    1.320777   -0.384564
     16          6           0        2.416451    0.805491   -0.569793
     17          6           0        2.101310   -0.549882   -0.823317
     18          6           0        3.661794    2.660921   -0.089374
     19          6           0        1.584688   -3.507604   -1.778679
     20          6           0       -5.720481   -2.489272    1.341299
     21          6           0       -3.667205   -1.787543    0.035070
     22          6           0        2.227539    2.944699   -0.056403
     23          6           0       -5.109262   -1.453990    0.299607
     24          6           0        5.135189    0.609181   -0.497987
     25          6           0       -2.666418   -1.115042   -0.547386
     26          6           0       -1.576871   -3.919280   -1.570246
     27          6           0       -4.662151   -3.686909    1.344291
     28          6           0        2.127261   -4.668011   -0.787078
     29          6           0        5.552312   -0.137142    0.820947
     30          6           0        4.669006    3.763355    0.259906
     31          6           0        1.373744    4.094838    0.240120
     32          6           0       -7.147715   -2.977767    1.073236
     33          6           0       -5.846703   -0.474975   -0.302240
     34          6           0        0.004607    4.009211    0.221196
     35          6           0       -0.950494    5.141203    0.504497
     36          6           0       -2.227126    4.698020    0.388002
     37          6           0        2.953385   -4.019091    0.251004
     38          6           0       -5.328543    0.413921   -1.501356
     39          6           0        6.876230   -0.812340    0.687205
     40          6           0       -3.545457    5.422375    0.604743
     41          6           0       -2.018427    3.207371   -0.039716
     42          6           0       -0.412118    6.512162    0.867305
     43          6           0       -4.218833    5.828034   -0.681067
     44          1           0       -0.467819    0.244401   -0.256366
     45          1           0        2.962875   -1.366630   -0.712997
     46          1           0        2.508292   -2.943119   -2.030738
     47          1           0        1.281319   -4.071508   -2.775346
     48          1           0       -5.731025   -2.053044    2.380954
     49          1           0        4.960404   -0.163510   -1.225913
     50          1           0        5.803727    1.376250   -0.786524
     51          1           0       -2.807858   -0.050277   -0.814670
     52          1           0        0.536684    1.979545   -0.424682
     53          1           0       -1.657517   -4.883167   -0.813244
     54          1           0       -2.702953   -3.619442   -1.700615
     55          1           0       -1.048011   -4.380426   -2.402716
     56          1           0       -2.623473   -3.551707    0.478532
     57          1           0        1.041569   -5.152719   -0.395435
     58          1           0        2.866189   -5.376420   -1.234660
     59          1           0        4.785344   -0.941482    1.339817
     60          1           0        5.604698    0.851580    1.714843
     61          1           0        4.619697    4.501399   -0.373218
     62          1           0        5.627874    3.352209    0.357315
     63          1           0        4.369742    4.061415    1.447540
     64          1           0        1.569719    4.947962    0.532424
     65          1           0       -7.945888   -2.272840    1.309787
     66          1           0       -7.367536   -3.776681    1.995523
     67          1           0       -7.033063   -3.390251   -0.124072
     68          1           0       -6.803548   -0.362605   -0.064768
     69          1           0       -4.750834    1.284708   -1.168198
     70          1           0       -6.172489    0.925926   -2.105983
     71          1           0       -4.765771   -0.171636   -2.266650
     72          1           0       -3.596036    6.298578    1.027989
     73          1           0       -4.159561    4.642865    1.088419
     74          1           0        0.273100    6.399884    1.646349
     75          1           0       -1.257655    6.957948    1.578112
     76          1           0       -0.207021    7.214343   -0.013804
     77          1           0       -3.418208    6.568465   -1.275306
     78          1           0       -5.106094    6.453083   -0.733772
     79          1           0       -3.948503    4.905452   -1.239346
     80          1           0        3.730410   -4.240202    1.900394
     81          1           0        8.099787   -2.022715    1.503928
 ---------------------------------------------------------------------

 SCF Done:  E(RB3LYP) =  -1949.02725840     A.U. after   16 cycles

 Excitation energies and oscillator strengths:

 Excited State   1:      Singlet-A      2.0391 eV  608.05 nm  f=0.4674  <S**2>=0.000
     156 ->157         0.70871
     156 <-157        -0.11385
 This state for optimization and/or second-order correction.
 Total Energy, E(TD-HF/TD-DFT) =  -1948.95232437
 Copying the excited state density for this state as the 1-particle RhoCI density.

 The electronic state is 1-A.
 Alpha  occ. eigenvalues --  -19.20515 -19.18822 -19.15510 -19.12812 -19.12576
 Alpha  occ. eigenvalues --  -19.09193 -14.37056 -14.37020 -14.36295 -14.28554
 Alpha  occ. eigenvalues --  -10.34120 -10.32786 -10.30183 -10.26049 -10.25133
 Alpha  occ. eigenvalues --  -10.25039 -10.24920 -10.24872 -10.24219 -10.23893
 Alpha  occ. eigenvalues --  -10.23687 -10.22154 -10.22073 -10.21922 -10.21852
 Alpha  occ. eigenvalues --  -10.21679 -10.21303 -10.21137 -10.21125 -10.21047
 Alpha  occ. eigenvalues --  -10.20980 -10.20541 -10.20348 -10.20330 -10.19453
 Alpha  occ. eigenvalues --  -10.19320 -10.19071 -10.18679 -10.18148 -10.17979
 Alpha  occ. eigenvalues --  -10.17715 -10.17358 -10.17017  -1.12786  -1.09435
 Alpha  occ. eigenvalues --   -1.06877  -1.03093  -0.99664  -0.98893  -0.98446
 Alpha  occ. eigenvalues --   -0.97415  -0.93677  -0.92023  -0.83688  -0.83205
 Alpha  occ. eigenvalues --   -0.82079  -0.79724  -0.79320  -0.79244  -0.78403
 Alpha  occ. eigenvalues --   -0.77869  -0.77089  -0.75099  -0.73895  -0.73117
 Alpha  occ. eigenvalues --   -0.72203  -0.69994  -0.69479  -0.69091  -0.67807
 Alpha  occ. eigenvalues --   -0.67353  -0.65360  -0.63474  -0.62126  -0.61013
 Alpha  occ. eigenvalues --   -0.60756  -0.59459  -0.59037  -0.57584  -0.57288
 Alpha  occ. eigenvalues --   -0.56196  -0.55931  -0.55504  -0.53980  -0.52613
 Alpha  occ. eigenvalues --   -0.52512  -0.51947  -0.51751  -0.50798  -0.50519
 Alpha  occ. eigenvalues --   -0.49929  -0.49600  -0.49065  -0.48295  -0.48039
 Alpha  occ. eigenvalues --   -0.47528  -0.46999  -0.46564  -0.46475  -0.45794
 Alpha  occ. eigenvalues --   -0.45596  -0.45267  -0.44721  -0.44275  -0.44209
 Alpha  occ. eigenvalues --   -0.43927  -0.43615  -0.43423  -0.43133  -0.42554
 Alpha  occ. eigenvalues --   -0.42207  -0.42161  -0.41632  -0.41353  -0.41198
 Alpha  occ. eigenvalues --   -0.40655  -0.40467  -0.40144  -0.39805  -0.39507
 Alpha  occ. eigenvalues --   -0.39386  -0.39204  -0.38787  -0.38432  -0.38346
 Alpha  occ. eigenvalues --   -0.38058  -0.37285  -0.37173  -0.37162  -0.36706
 Alpha  occ. eigenvalues --   -0.36545  -0.35949  -0.35054  -0.34972  -0.34697
 Alpha  occ. eigenvalues --   -0.34456  -0.34146  -0.33793  -0.32879  -0.32665
 Alpha  occ. eigenvalues --   -0.32406  -0.31742  -0.31106  -0.30264  -0.29347
 Alpha  occ. eigenvalues --   -0.28008  -0.27312  -0.27212  -0.26331  -0.25961
 Alpha  occ. eigenvalues --   -0.25341  -0.25255  -0.23381  -0.22917  -0.22305
 Alpha  occ. eigenvalues --   -0.18623
 Alpha virt. eigenvalues --   -0.10667  -0.05332  -0.03879  -0.03489  -0.02361
 Alpha virt. eigenvalues --    0.00219   0.00468   0.01547   0.02113   0.03258
 Alpha virt. eigenvalues --    0.03879   0.04190   0.05128   0.05678   0.05804

 Mulliken charges:
               1
     1  O   -0.130213
     2  O   -0.186958
     3  O   -0.203805
     4  O   -0.234435
     5  O   -0.272639
     6  O   -0.257469
     7  N   -0.076797
     8  N   -0.015052
     9  N   -0.244265
    10  N   -0.255966
    11  C   -0.027097
    12  C    0.069395
    13  C   -0.114955
    14  C    0.103461
    15  C   -0.126696
    16  C    0.106259
    17  C   -0.134376
    18  C   -0.165086
    19  C   -0.016609
    20  C   -0.115777
    21  C    0.141687
    22  C    0.114429
    23  C   -0.017104
    24  C    0.201376
    25  C   -0.128957
    26  C   -0.028614
    27  C    0.179031
    28  C   -0.014434
    29  C   -0.141763
    30  C    0.164501
    31  C    0.048102
    32  C   -0.031170
    33  C   -0.036129
    34  C    0.014722
    35  C   -0.120402
    36  C   -0.207919
    37  C    0.126079
    38  C   -0.011864
    39  C    0.182274
    40  C    0.202569
    41  C    0.142309
    42  C    0.094966
    43  C   -0.055270
    44  H    0.073827
    45  H    0.072385
    46  H    0.016260
    47  H    0.037897
    48  H    0.045181
    49  H    0.016038
    50  H    0.019018
    51  H    0.033611
    52  H    0.090465
    53  H    0.045749
    54  H    0.063152
    55  H    0.014342
    56  H    0.146289
    57  H    0.072715
    58  H    0.066485
    59  H    0.079577
    60  H    0.078356
    61  H   -0.001415
    62  H   -0.005160
    63  H    0.044029
    64  H   -0.186861
    65  H    0.026787
    66  H    0.043412
    67  H    0.051183
    68  H   -0.059799
    69  H    0.079945
    70  H    0.008655
    71  H    0.031398
    72  H   -0.058548
    73  H    0.012502
    74  H    0.002612
    75  H    0.009475
    76  H    0.058772
    77  H   -0.013986
    78  H    0.028799
    79  H    0.024607
    80  H    0.203731
    81  H    0.209176
 Sum of Mulliken charges =  -0.00000

 Dipole moment (field-independent basis, Debye):
    X=              3.8987    Y=             -1.5292    Z=              0.8440  Tot=              4.2721
 Quadrupole moment (field-independent basis, Debye-Ang):
   XX=           -257.0506   YY=           -242.3856   ZZ=           -257.0272
   XY=            -16.0238   XZ=             12.5849   YZ=             13.1857

 Normal termination of Gaussian 16 at Fri Jul  5 02:48:28 2019.
