 Gaussian 16, Revision A.03,
 Gaussian 16:  ES64L-G16RevA.03 25-Dec-2016

 --------------------------
 # td=(NStates=1) B3LYP/SVP
 --------------------------

 --
 TD
 --
 Symbolic Z-matrix:
 Charge =  0 Multiplicity = 1

                         Standard orientation:
 ---------------------------------------------------------------------
 Center     Atomic      Atomic             Coordinates (Angstroms)
 Number     Number       Type             X           Y           Z
 ---------------------------------------------------------------------
      1          8           0       -4.428439   -4.727367    2.119452
      2          8           0        3.042230   -4.775039    1.263570
      3          8           0        7.131438   -1.317252    1.919435
      4          8           0        3.926991   -3.183890   -0.074819
      5          8           0        7.601828   -0.630167   -0.136883
      6          8           0       -3.026730    2.392302   -0.199902
      7          7           0       -0.304204   -0.591341   -0.551736
      8          7           0        1.460250    1.856240   -0.361348
      9          7           0       -3.380858   -3.163411    0.663515
     10          7           0       -0.869772    2.931628   -0.169382
     11          6           0        0.717228   -2.487945   -1.382823
     12          6           0        0.883777   -1.114384   -1.006866
     13          6           0       -0.689649   -2.672974   -1.281415
     14          6           0       -1.287808   -1.560021   -0.726068
     15          6           0        3.748217    1.487065   -0.371547
     16          6           0        2.442521    0.882759   -0.605588
     17          6           0        2.215229   -0.450183   -0.896077
     18          6           0        3.489961    2.817724    0.022884
     19          6           0        1.649618   -3.484069   -1.887340
     20          6           0       -5.555593   -2.555874    1.343861
     21          6           0       -3.615475   -1.904849    0.160766
     22          6           0        2.104984    2.984934   -0.071335
     23          6           0       -5.084161   -1.538499    0.382737
     24          6           0        5.077934    0.674590   -0.397453
     25          6           0       -2.709736   -1.212106   -0.449257
     26          6           0       -1.401823   -3.959209   -1.753670
     27          6           0       -4.381009   -3.660401    1.513526
     28          6           0        2.061243   -4.519881   -0.913011
     29          6           0        5.470235   -0.043645    0.890081
     30          6           0        4.493294    3.906779    0.296746
     31          6           0        1.229219    4.147288    0.131201
     32          6           0       -6.851667   -3.317544    0.994649
     33          6           0       -5.802811   -0.656570   -0.315001
     34          6           0       -0.140006    4.019202    0.249641
     35          6           0       -1.080550    5.136430    0.540729
     36          6           0       -2.275109    4.779402    0.400852
     37          6           0        3.053891   -4.041053    0.141454
     38          6           0       -5.450410    0.258895   -1.303616
     39          6           0        6.848182   -0.670382    0.827313
     40          6           0       -3.654325    5.297420    0.441150
     41          6           0       -2.163055    3.268385   -0.071752
     42          6           0       -0.620667    6.529128    0.941847
     43          6           0       -4.162779    5.855008   -0.870559
     44          1           0       -0.755520    0.217514   -0.235993
     45          1           0        2.893528   -1.141783   -1.245883
     46          1           0        2.434508   -2.938463   -2.443505
     47          1           0        1.271480   -4.032357   -2.711173
     48          1           0       -5.379287   -2.046001    2.423795
     49          1           0        5.024763   -0.092180   -1.237776
     50          1           0        5.855798    1.491168   -0.818893
     51          1           0       -2.901375   -0.245554   -0.615697
     52          1           0        0.379633    1.755859   -0.377403
     53          1           0       -1.340459   -4.605860   -0.852928
     54          1           0       -2.399649   -3.660398   -1.963124
     55          1           0       -0.902059   -4.236441   -2.607449
     56          1           0       -2.505769   -3.636472    0.490138
     57          1           0        1.077510   -5.028238   -0.511231
     58          1           0        2.514958   -5.452788   -1.247745
     59          1           0        4.683130   -0.777707    1.222678
     60          1           0        5.507146    0.671354    1.652971
     61          1           0        4.533508    4.665729   -0.527412
     62          1           0        5.590559    3.679264    0.311479
     63          1           0        4.362111    4.385643    1.337792
     64          1           0        1.750797    4.876063    0.592496
     65          1           0       -7.740261   -2.722634    1.250102
     66          1           0       -7.155429   -4.082708    1.744163
     67          1           0       -7.082319   -3.740161    0.091017
     68          1           0       -6.841527   -0.556854   -0.066813
     69          1           0       -5.247782    1.183675   -0.870149
     70          1           0       -6.240074    0.526252   -2.132419
     71          1           0       -4.527269   -0.322663   -1.790479
     72          1           0       -3.623066    6.165333    0.902930
     73          1           0       -4.235272    4.471369    0.777977
     74          1           0        0.290035    6.561703    1.777395
     75          1           0       -1.525213    7.256410    1.331506
     76          1           0       -0.290234    7.145930    0.018892
     77          1           0       -3.547241    6.827421   -1.174886
     78          1           0       -5.301191    6.195371   -0.660073
     79          1           0       -4.010696    5.105339   -1.544988
     80          1           0        3.741312   -4.428869    1.871459
     81          1           0        7.971049   -1.906319    1.788709
 ---------------------------------------------------------------------

 SCF Done:  E(RB3LYP) =  -1949.11815224     A.U. after   16 cycles

 Excitation energies and oscillator strengths:

 Excited State   1:      Singlet-A      2.0987 eV  590.76 nm  f=0.3853  <S**2>=0.000
     156 ->157         0.70628
     156 <-157        -0.10243
 This state for optimization and/or second-order correction.
 Total Energy, E(TD-HF/TD-DFT) =  -1949.04102598
 Copying the excited state density for this state as the 1-particle RhoCI density.

 The electronic state is 1-A.
 Alpha  occ. eigenvalues --  -19.20382 -19.19428 -19.14259 -19.11914 -19.11734
 Alpha  occ. eigenvalues --  -19.08870 -14.37876 -14.37115 -14.35967 -14.27971
 Alpha  occ. eigenvalues --  -10.34108 -10.31965 -10.29816 -10.24877 -10.24350
 Alpha  occ. eigenvalues --  -10.23994 -10.23585 -10.23540 -10.23001 -10.22998
 Alpha  occ. eigenvalues --  -10.22137 -10.21897 -10.21874 -10.21793 -10.21734
 Alpha  occ. eigenvalues --  -10.21408 -10.20919 -10.20897 -10.20686 -10.20658
 Alpha  occ. eigenvalues --  -10.20160 -10.19738 -10.19600 -10.19119 -10.18640
 Alpha  occ. eigenvalues --  -10.18557 -10.18235 -10.18073 -10.17850 -10.17426
 Alpha  occ. eigenvalues --  -10.17393 -10.17201 -10.16525  -1.11010  -1.10744
 Alpha  occ. eigenvalues --   -1.02640  -1.00960  -0.99793  -0.99731  -0.98895
 Alpha  occ. eigenvalues --   -0.98114  -0.95587  -0.90926  -0.84145  -0.82138
 Alpha  occ. eigenvalues --   -0.81805  -0.80924  -0.80525  -0.79285  -0.78729
 Alpha  occ. eigenvalues --   -0.77758  -0.76513  -0.75761  -0.75136  -0.73129
 Alpha  occ. eigenvalues --   -0.71272  -0.70455  -0.69972  -0.68577  -0.67866
 Alpha  occ. eigenvalues --   -0.66994  -0.65220  -0.64362  -0.62766  -0.61898
 Alpha  occ. eigenvalues --   -0.61240  -0.60363  -0.59202  -0.58658  -0.57809
 Alpha  occ. eigenvalues --   -0.56642  -0.55475  -0.55062  -0.53793  -0.53285
 Alpha  occ. eigenvalues --   -0.52376  -0.52237  -0.50883  -0.50525  -0.50111
 Alpha  occ. eigenvalues --   -0.49755  -0.49324  -0.48970  -0.48206  -0.47878
 Alpha  occ. eigenvalues --   -0.47569  -0.46761  -0.46616  -0.46296  -0.45614
 Alpha  occ. eigenvalues --   -0.45474  -0.45284  -0.44891  -0.44191  -0.43928
 Alpha  occ. eigenvalues --   -0.43524  -0.43335  -0.42977  -0.42791  -0.42323
 Alpha  occ. eigenvalues --   -0.42171  -0.42025  -0.41867  -0.41694  -0.41197
 Alpha  occ. eigenvalues --   -0.40881  -0.40538  -0.40306  -0.40096  -0.39956
 Alpha  occ. eigenvalues --   -0.39483  -0.39030  -0.38819  -0.38564  -0.38476
 Alpha  occ. eigenvalues --   -0.38127  -0.38081  -0.36751  -0.36434  -0.36149
 Alpha  occ. eigenvalues --   -0.35851  -0.35826  -0.35325  -0.34673  -0.34539
 Alpha  occ. eigenvalues --   -0.33829  -0.33737  -0.33677  -0.33478  -0.33078
 Alpha  occ. eigenvalues --   -0.32341  -0.32147  -0.31046  -0.29845  -0.29567
 Alpha  occ. eigenvalues --   -0.27840  -0.26763  -0.26554  -0.25987  -0.25797
 Alpha  occ. eigenvalues --   -0.25644  -0.24722  -0.23818  -0.23184  -0.21541
 Alpha  occ. eigenvalues --   -0.18685
 Alpha virt. eigenvalues --   -0.10318  -0.04358  -0.02804  -0.02082   0.00454
 Alpha virt. eigenvalues --    0.00828   0.01769   0.02619   0.03089   0.03636
 Alpha virt. eigenvalues --    0.04110   0.04742   0.04922   0.05195   0.06494

 Mulliken charges:
               1
     1  O   -0.213573
     2  O   -0.172083
     3  O   -0.178778
     4  O   -0.263358
     5  O   -0.246347
     6  O   -0.245114
     7  N   -0.049175
     8  N   -0.102530
     9  N   -0.115163
    10  N   -0.280740
    11  C   -0.095819
    12  C    0.003019
    13  C   -0.230992
    14  C   -0.005005
    15  C   -0.098307
    16  C    0.150918
    17  C    0.003406
    18  C   -0.105832
    19  C    0.154032
    20  C   -0.097274
    21  C    0.081087
    22  C    0.039176
    23  C    0.052233
    24  C    0.040914
    25  C   -0.072246
    26  C    0.165102
    27  C    0.153157
    28  C    0.001386
    29  C    0.059562
    30  C    0.034439
    31  C   -0.019797
    32  C    0.105738
    33  C   -0.151270
    34  C    0.094373
    35  C   -0.054631
    36  C   -0.218211
    37  C    0.144873
    38  C    0.076498
    39  C    0.122595
    40  C    0.239700
    41  C    0.104318
    42  C   -0.036016
    43  C   -0.029359
    44  H    0.131720
    45  H   -0.042218
    46  H    0.014776
    47  H   -0.020488
    48  H    0.060780
    49  H    0.032831
    50  H    0.041484
    51  H   -0.046748
    52  H    0.168172
    53  H    0.042986
    54  H    0.018326
    55  H   -0.003420
    56  H    0.113397
    57  H    0.035326
    58  H    0.040571
    59  H    0.049072
    60  H    0.008254
    61  H    0.038365
    62  H    0.011927
    63  H    0.036337
    64  H   -0.073229
    65  H   -0.005275
    66  H    0.010399
    67  H    0.000981
    68  H   -0.024905
    69  H    0.041030
    70  H    0.017678
    71  H    0.039143
    72  H   -0.072790
    73  H    0.009948
    74  H    0.045818
    75  H    0.031273
    76  H    0.038126
    77  H    0.018365
    78  H    0.033195
    79  H    0.002060
    80  H    0.195977
    81  H    0.215847
 Sum of Mulliken charges =  -0.00000

 Dipole moment (field-independent basis, Debye):
    X=              3.3020    Y=             -1.1458    Z=              0.4397  Tot=              3.5227
 Quadrupole moment (field-independent basis, Debye-Ang):
   XX=           -248.9992   YY=           -240.2571   ZZ=           -254.7197
   XY=            -16.5453   XZ=             22.3800   YZ=             13.9563

 Normal termination of Gaussian 16 at Thu Jun 27 10:16:27 2019.
