 Gaussian 16, Revision A.03,
 Gaussian 16:  ES64L-G16RevA.03 25-Dec-2016

 --------------------------
 # td=(NStates=1) B3LYP/SVP
 --------------------------

 --
 TD
 --
 Symbolic Z-matrix:
 Charge =  0 Multiplicity = 1

                         Standard orientation:
 ---------------------------------------------------------------------
 Center     Atomic      Atomic             Coordinates (Angstroms)
 Number     Number       Type             X           Y           Z
 ---------------------------------------------------------------------
      1          8           0        4.331847   -4.833675   -1.869119
      2          8           0       -3.044327   -4.794262   -1.242711
      3          8           0       -7.090609   -1.376677   -1.877960
      4          8           0       -3.825402   -3.047927   -0.010547
      5          8           0       -7.644723   -0.493294    0.151018
      6          8           0        3.151763    2.428111    0.408555
      7          7           0        0.264808   -0.593786    0.713388
      8          7           0       -1.525323    1.854030    0.273019
      9          7           0        3.400040   -3.208228   -0.661635
     10          7           0        0.869967    2.801831    0.138540
     11          6           0       -0.690806   -2.448586    1.474024
     12          6           0       -0.922178   -1.085232    1.060480
     13          6           0        0.643100   -2.613174    1.391433
     14          6           0        1.184539   -1.528506    0.831120
     15          6           0       -3.748929    1.563350    0.248556
     16          6           0       -2.490635    0.828834    0.559188
     17          6           0       -2.200790   -0.463804    0.904806
     18          6           0       -3.478092    2.842831   -0.094288
     19          6           0       -1.805281   -3.360575    1.950651
     20          6           0        5.408644   -2.668072   -1.482034
     21          6           0        3.529535   -1.928605   -0.149307
     22          6           0       -2.077125    2.992275   -0.094169
     23          6           0        4.966150   -1.504667   -0.456044
     24          6           0       -5.089314    0.900942    0.344744
     25          6           0        2.592931   -1.123074    0.431372
     26          6           0        1.361898   -3.954279    1.718365
     27          6           0        4.423167   -3.692913   -1.409314
     28          6           0       -2.205312   -4.500869    1.001839
     29          6           0       -5.481019    0.041784   -0.836588
     30          6           0       -4.433533    3.883086   -0.556091
     31          6           0       -1.235982    4.044279   -0.347409
     32          6           0        6.911863   -3.257594   -1.440864
     33          6           0        5.799786   -0.693547    0.060933
     34          6           0        0.215875    3.971908   -0.350250
     35          6           0        1.138899    5.082036   -0.461492
     36          6           0        2.391304    4.656576   -0.221071
     37          6           0       -3.120130   -4.026686   -0.143307
     38          6           0        5.529376    0.192658    1.348439
     39          6           0       -6.808661   -0.619977   -0.694676
     40          6           0        3.763847    5.363222   -0.313529
     41          6           0        2.254308    3.137795    0.127526
     42          6           0        0.761924    6.456970   -0.989936
     43          6           0        4.247526    5.507910    1.109658
     44          1           0        0.343123    0.355671    0.339077
     45          1           0       -3.141112   -1.068147    1.087492
     46          1           0       -2.456153   -2.696466    2.401228
     47          1           0       -1.265571   -3.917328    2.897810
     48          1           0        5.192315   -2.075824   -2.474429
     49          1           0       -4.924310    0.212202    1.326648
     50          1           0       -5.593305    1.814368    0.679131
     51          1           0        2.868621   -0.071889    0.818508
     52          1           0       -0.479805    1.966251    0.458607
     53          1           0        1.354955   -4.874771    1.058590
     54          1           0        2.418424   -3.631651    1.951361
     55          1           0        0.876673   -4.342014    2.620143
     56          1           0        2.479413   -3.543026   -0.739551
     57          1           0       -1.266160   -4.859448    0.638426
     58          1           0       -2.863811   -5.212027    1.587264
     59          1           0       -4.722808   -0.626594   -1.201027
     60          1           0       -5.599834    0.820490   -1.670194
     61          1           0       -4.385713    4.652382    0.211624
     62          1           0       -5.547868    3.386609   -0.771053
     63          1           0       -4.005606    4.449803   -1.660196
     64          1           0       -1.430611    5.284246   -0.488376
     65          1           0        7.698851   -2.345492   -1.512064
     66          1           0        7.178425   -3.853490   -2.151084
     67          1           0        7.098366   -3.510808   -0.443590
     68          1           0        6.622697   -0.593150   -0.439408
     69          1           0        4.924730    1.076415    1.062139
     70          1           0        6.607954    0.490438    1.886569
     71          1           0        4.814448   -0.440331    1.998745
     72          1           0        3.315254    6.236179   -0.867467
     73          1           0        4.491312    4.872416   -0.883718
     74          1           0       -0.090847    6.568676   -1.749315
     75          1           0        1.556153    7.225140   -1.196238
     76          1           0        0.156996    6.793776   -0.244210
     77          1           0        3.661150    6.155151    1.858323
     78          1           0        5.217963    5.873651    0.912775
     79          1           0        4.369342    4.679083    1.594788
     80          1           0       -3.670289   -4.447613   -2.027954
     81          1           0       -7.919526   -1.815793   -1.723039
 ---------------------------------------------------------------------

 SCF Done:  E(RB3LYP) =  -1949.06061502     A.U. after   16 cycles

 Excitation energies and oscillator strengths:

 Excited State   1:      Singlet-A      2.0685 eV  599.38 nm  f=0.3654  <S**2>=0.000
     156 ->157         0.70561
     156 <-157        -0.10307
 This state for optimization and/or second-order correction.
 Total Energy, E(TD-HF/TD-DFT) =  -1948.98459728
 Copying the excited state density for this state as the 1-particle RhoCI density.

 The electronic state is 1-A.
 Alpha  occ. eigenvalues --  -19.20546 -19.16504 -19.14064 -19.13824 -19.10955
 Alpha  occ. eigenvalues --  -19.10008 -14.37868 -14.36337 -14.34993 -14.29262
 Alpha  occ. eigenvalues --  -10.33592 -10.32504 -10.28497 -10.26537 -10.24313
 Alpha  occ. eigenvalues --  -10.23604 -10.23577 -10.23388 -10.22787 -10.22650
 Alpha  occ. eigenvalues --  -10.22382 -10.22272 -10.21867 -10.21759 -10.21600
 Alpha  occ. eigenvalues --  -10.21237 -10.21216 -10.20716 -10.20237 -10.20098
 Alpha  occ. eigenvalues --  -10.19988 -10.19929 -10.19845 -10.19747 -10.19627
 Alpha  occ. eigenvalues --  -10.19600 -10.19243 -10.18997 -10.18906 -10.18831
 Alpha  occ. eigenvalues --  -10.18382 -10.17914 -10.16613  -1.10116  -1.08358
 Alpha  occ. eigenvalues --   -1.03757  -1.03123  -1.01708  -1.01492  -1.00203
 Alpha  occ. eigenvalues --   -0.98272  -0.95032  -0.89951  -0.83207  -0.82716
 Alpha  occ. eigenvalues --   -0.81554  -0.81494  -0.79879  -0.78932  -0.78192
 Alpha  occ. eigenvalues --   -0.77782  -0.76539  -0.75928  -0.74038  -0.71957
 Alpha  occ. eigenvalues --   -0.70950  -0.69554  -0.69322  -0.69212  -0.68289
 Alpha  occ. eigenvalues --   -0.67842  -0.65908  -0.65155  -0.62990  -0.61970
 Alpha  occ. eigenvalues --   -0.61181  -0.59144  -0.58818  -0.58537  -0.57814
 Alpha  occ. eigenvalues --   -0.55962  -0.55151  -0.54754  -0.53861  -0.53311
 Alpha  occ. eigenvalues --   -0.52487  -0.51581  -0.51287  -0.50431  -0.49956
 Alpha  occ. eigenvalues --   -0.49477  -0.49258  -0.48935  -0.48438  -0.47821
 Alpha  occ. eigenvalues --   -0.47650  -0.46990  -0.46618  -0.45808  -0.45234
 Alpha  occ. eigenvalues --   -0.44792  -0.44563  -0.44328  -0.43789  -0.43552
 Alpha  occ. eigenvalues --   -0.43252  -0.43030  -0.42861  -0.42186  -0.41778
 Alpha  occ. eigenvalues --   -0.41553  -0.41426  -0.41337  -0.41125  -0.41058
 Alpha  occ. eigenvalues --   -0.40733  -0.40591  -0.40320  -0.40239  -0.40069
 Alpha  occ. eigenvalues --   -0.39554  -0.39455  -0.39088  -0.38889  -0.38629
 Alpha  occ. eigenvalues --   -0.38326  -0.37587  -0.37017  -0.36713  -0.36513
 Alpha  occ. eigenvalues --   -0.36404  -0.35675  -0.35540  -0.35263  -0.34969
 Alpha  occ. eigenvalues --   -0.34448  -0.34135  -0.33933  -0.33678  -0.32979
 Alpha  occ. eigenvalues --   -0.32338  -0.32253  -0.32196  -0.30441  -0.29301
 Alpha  occ. eigenvalues --   -0.28909  -0.28566  -0.26364  -0.26177  -0.25767
 Alpha  occ. eigenvalues --   -0.25615  -0.25017  -0.23725  -0.23145  -0.21830
 Alpha  occ. eigenvalues --   -0.18364
 Alpha virt. eigenvalues --   -0.10110  -0.05305  -0.02815  -0.01112  -0.00785
 Alpha virt. eigenvalues --   -0.00198   0.01114   0.02207   0.02897   0.03430
 Alpha virt. eigenvalues --    0.04115   0.05264   0.06173   0.06425   0.06551

 Mulliken charges:
               1
     1  O   -0.230126
     2  O   -0.220556
     3  O   -0.247627
     4  O   -0.230375
     5  O   -0.188482
     6  O   -0.157626
     7  N    0.043753
     8  N   -0.131244
     9  N   -0.049304
    10  N   -0.390310
    11  C   -0.133965
    12  C   -0.003639
    13  C   -0.141696
    14  C   -0.003848
    15  C   -0.110555
    16  C    0.076833
    17  C   -0.055674
    18  C   -0.094410
    19  C    0.080766
    20  C   -0.126791
    21  C    0.069350
    22  C    0.133580
    23  C    0.013701
    24  C    0.024928
    25  C   -0.119980
    26  C    0.042500
    27  C    0.107579
    28  C    0.090181
    29  C    0.065641
    30  C   -0.011358
    31  C   -0.175251
    32  C    0.135167
    33  C   -0.076525
    34  C    0.044773
    35  C   -0.075343
    36  C   -0.231448
    37  C    0.126466
    38  C   -0.028552
    39  C    0.159670
    40  C    0.113077
    41  C    0.161519
    42  C    0.104378
    43  C    0.086646
    44  H    0.123726
    45  H    0.029242
    46  H   -0.007287
    47  H    0.018032
    48  H    0.071572
    49  H    0.035379
    50  H    0.028685
    51  H    0.060321
    52  H    0.160861
    53  H    0.048277
    54  H    0.037743
    55  H   -0.000361
    56  H    0.114367
    57  H    0.024412
    58  H    0.058342
    59  H    0.039404
    60  H    0.047337
    61  H    0.038075
    62  H    0.055357
    63  H    0.053019
    64  H    0.012144
    65  H    0.005321
    66  H   -0.005423
    67  H    0.007188
    68  H   -0.082490
    69  H    0.081404
    70  H    0.039039
    71  H    0.039641
    72  H    0.002013
    73  H   -0.000354
    74  H    0.019918
    75  H    0.033917
    76  H   -0.014464
    77  H    0.017602
    78  H   -0.011685
    79  H   -0.024272
    80  H    0.234142
    81  H    0.164029
 Sum of Mulliken charges =  -0.00000

 Dipole moment (field-independent basis, Debye):
    X=             -2.2014    Y=              1.3575    Z=             -0.8485  Tot=              2.7219
 Quadrupole moment (field-independent basis, Debye-Ang):
   XX=           -255.1044   YY=           -242.6244   ZZ=           -254.3335
   XY=             19.1108   XZ=             12.0547   YZ=            -10.6427

 Normal termination of Gaussian 16 at Sun Jun 30 15:10:33 2019.
