 Gaussian 16, Revision A.03,
 Gaussian 16:  ES64L-G16RevA.03 25-Dec-2016

 --------------------------
 # td=(NStates=1) B3LYP/SVP
 --------------------------

 --
 TD
 --
 Symbolic Z-matrix:
 Charge =  0 Multiplicity = 1

                         Standard orientation:
 ---------------------------------------------------------------------
 Center     Atomic      Atomic             Coordinates (Angstroms)
 Number     Number       Type             X           Y           Z
 ---------------------------------------------------------------------
      1          8           0        4.754637   -4.722531   -1.883186
      2          8           0       -2.850325   -4.886428   -1.360229
      3          8           0       -6.963446   -1.522483   -1.832283
      4          8           0       -3.727539   -3.129709   -0.317258
      5          8           0       -7.502978   -0.564426    0.125426
      6          8           0        3.065205    2.518792    0.271782
      7          7           0        0.316557   -0.616273    0.713162
      8          7           0       -1.614343    1.886965    0.462354
      9          7           0        3.528361   -3.212867   -0.583141
     10          7           0        0.682780    2.933081    0.153447
     11          6           0       -0.713265   -2.510572    1.427689
     12          6           0       -0.968261   -1.127302    1.143715
     13          6           0        0.694583   -2.773494    1.204035
     14          6           0        1.308461   -1.558102    0.775164
     15          6           0       -3.811583    1.396164    0.338393
     16          6           0       -2.484545    0.889579    0.675570
     17          6           0       -2.183826   -0.455964    1.018381
     18          6           0       -3.640651    2.734630    0.007536
     19          6           0       -1.818102   -3.516862    1.808595
     20          6           0        5.647505   -2.479569   -1.280745
     21          6           0        3.702844   -1.928040   -0.062181
     22          6           0       -2.197525    3.069567    0.148655
     23          6           0        4.966391   -1.425119   -0.354021
     24          6           0       -5.120290    0.663931    0.452822
     25          6           0        2.641502   -1.206188    0.297744
     26          6           0        1.373529   -4.026036    1.639150
     27          6           0        4.542236   -3.609792   -1.318325
     28          6           0       -2.056621   -4.650830    0.767469
     29          6           0       -5.258705   -0.151381   -0.828895
     30          6           0       -4.737639    3.746174   -0.370775
     31          6           0       -1.451929    4.173779   -0.282322
     32          6           0        6.981553   -3.042840   -1.090060
     33          6           0        5.800622   -0.590308    0.423652
     34          6           0        0.024950    4.118070   -0.174652
     35          6           0        1.018795    5.205810   -0.461587
     36          6           0        2.229949    4.700400   -0.419862
     37          6           0       -2.939478   -4.123864   -0.397779
     38          6           0        5.204855    0.436989    1.398800
     39          6           0       -6.749854   -0.719938   -0.730999
     40          6           0        3.598552    5.490209   -0.618288
     41          6           0        2.067178    3.226597    0.079939
     42          6           0        0.502523    6.550894   -0.891439
     43          6           0        4.334646    5.699333    0.701882
     44          1           0        0.383533    0.351217    0.267889
     45          1           0       -3.140745   -1.008578    1.079049
     46          1           0       -2.741807   -3.041329    2.219689
     47          1           0       -1.442029   -4.091545    2.835113
     48          1           0        5.558463   -1.933518   -2.253981
     49          1           0       -5.000002    0.051939    1.435267
     50          1           0       -5.919772    1.505861    0.485510
     51          1           0        2.839753   -0.252074    0.554858
     52          1           0       -0.469195    1.879296    0.566941
     53          1           0        1.552504   -4.700131    0.583675
     54          1           0        2.290908   -3.720450    1.953274
     55          1           0        0.675353   -4.608294    2.322990
     56          1           0        2.573262   -3.584807   -0.606531
     57          1           0       -1.136691   -4.923365    0.412685
     58          1           0       -2.495676   -5.566566    1.353052
     59          1           0       -4.729922   -1.028692   -1.136185
     60          1           0       -5.109711    0.502801   -1.670415
     61          1           0       -4.501543    4.631015    0.336739
     62          1           0       -5.715785    3.408738   -0.269628
     63          1           0       -4.659704    4.314963   -1.296518
     64          1           0       -2.056382    5.131495   -0.623124
     65          1           0        7.574098   -2.166617   -1.624211
     66          1           0        7.179194   -3.811218   -1.590496
     67          1           0        7.406421   -3.172700   -0.118214
     68          1           0        6.755185   -0.475734    0.129041
     69          1           0        4.937894    1.311414    0.916251
     70          1           0        6.058368    0.690597    2.250818
     71          1           0        4.556723   -0.041637    2.155736
     72          1           0        3.656340    6.363479   -1.179695
     73          1           0        4.103777    4.735017   -1.129097
     74          1           0       -0.130162    6.544509   -1.738937
     75          1           0        1.436819    7.117263   -1.097989
     76          1           0       -0.179094    6.910284   -0.226416
     77          1           0        3.904278    6.698678    1.262735
     78          1           0        5.288982    6.137355    0.424800
     79          1           0        4.458316    4.719983    1.273284
     80          1           0       -3.491127   -4.447663   -2.030592
     81          1           0       -7.919140   -2.148604   -1.645708
 ---------------------------------------------------------------------

 SCF Done:  E(RB3LYP) =  -1949.06589934     A.U. after   16 cycles

 Excitation energies and oscillator strengths:

 Excited State   1:      Singlet-A      1.9463 eV  637.03 nm  f=0.4374  <S**2>=0.000
     156 ->157         0.71086
     156 <-157        -0.12749
 This state for optimization and/or second-order correction.
 Total Energy, E(TD-HF/TD-DFT) =  -1948.99437506
 Copying the excited state density for this state as the 1-particle RhoCI density.

 The electronic state is 1-A.
 Alpha  occ. eigenvalues --  -19.22975 -19.17753 -19.13621 -19.13260 -19.11100
 Alpha  occ. eigenvalues --  -19.09617 -14.38256 -14.37821 -14.35267 -14.30729
 Alpha  occ. eigenvalues --  -10.34008 -10.31102 -10.28300 -10.27890 -10.24495
 Alpha  occ. eigenvalues --  -10.24311 -10.24003 -10.23935 -10.23641 -10.22948
 Alpha  occ. eigenvalues --  -10.22481 -10.22246 -10.21465 -10.21399 -10.21263
 Alpha  occ. eigenvalues --  -10.20897 -10.20724 -10.20301 -10.20242 -10.20223
 Alpha  occ. eigenvalues --  -10.20188 -10.20177 -10.19882 -10.19847 -10.19807
 Alpha  occ. eigenvalues --  -10.19045 -10.18819 -10.18792 -10.18492 -10.18481
 Alpha  occ. eigenvalues --  -10.18394 -10.18093 -10.16981  -1.16548  -1.09480
 Alpha  occ. eigenvalues --   -1.01879  -1.00749  -0.99978  -0.99670  -0.97974
 Alpha  occ. eigenvalues --   -0.96701  -0.95264  -0.90847  -0.82319  -0.81829
 Alpha  occ. eigenvalues --   -0.81491  -0.80922  -0.79525  -0.79017  -0.77981
 Alpha  occ. eigenvalues --   -0.76657  -0.76015  -0.75408  -0.74626  -0.72347
 Alpha  occ. eigenvalues --   -0.70828  -0.70627  -0.69544  -0.68598  -0.68307
 Alpha  occ. eigenvalues --   -0.66248  -0.65158  -0.64100  -0.62764  -0.61853
 Alpha  occ. eigenvalues --   -0.60574  -0.59874  -0.58938  -0.56922  -0.56376
 Alpha  occ. eigenvalues --   -0.56125  -0.55234  -0.54560  -0.54491  -0.53334
 Alpha  occ. eigenvalues --   -0.52681  -0.52142  -0.51374  -0.51019  -0.50673
 Alpha  occ. eigenvalues --   -0.49443  -0.49169  -0.48456  -0.47963  -0.47717
 Alpha  occ. eigenvalues --   -0.47193  -0.46637  -0.46323  -0.45849  -0.45502
 Alpha  occ. eigenvalues --   -0.45328  -0.45042  -0.44467  -0.44327  -0.44068
 Alpha  occ. eigenvalues --   -0.43471  -0.43412  -0.43025  -0.42452  -0.41917
 Alpha  occ. eigenvalues --   -0.41881  -0.41456  -0.41306  -0.41170  -0.40794
 Alpha  occ. eigenvalues --   -0.40654  -0.40461  -0.40333  -0.40099  -0.39819
 Alpha  occ. eigenvalues --   -0.39622  -0.39213  -0.39080  -0.38854  -0.38608
 Alpha  occ. eigenvalues --   -0.38043  -0.37883  -0.37453  -0.36887  -0.36565
 Alpha  occ. eigenvalues --   -0.36345  -0.35847  -0.35202  -0.35170  -0.34745
 Alpha  occ. eigenvalues --   -0.34447  -0.33490  -0.33220  -0.32838  -0.32669
 Alpha  occ. eigenvalues --   -0.32181  -0.32147  -0.31156  -0.30080  -0.29468
 Alpha  occ. eigenvalues --   -0.28528  -0.28459  -0.26537  -0.25954  -0.24777
 Alpha  occ. eigenvalues --   -0.24542  -0.24360  -0.24084  -0.23805  -0.22088
 Alpha  occ. eigenvalues --   -0.17858
 Alpha virt. eigenvalues --   -0.10410  -0.06316  -0.04502  -0.01861  -0.00073
 Alpha virt. eigenvalues --    0.00310   0.01658   0.02079   0.02269   0.02757
 Alpha virt. eigenvalues --    0.04039   0.04419   0.04806   0.05223   0.05577

 Mulliken charges:
               1
     1  O   -0.274471
     2  O   -0.062638
     3  O   -0.304084
     4  O   -0.297245
     5  O   -0.155960
     6  O   -0.230009
     7  N   -0.154282
     8  N   -0.124048
     9  N   -0.048816
    10  N   -0.365309
    11  C   -0.082672
    12  C    0.128341
    13  C   -0.218868
    14  C    0.092101
    15  C   -0.134335
    16  C    0.024751
    17  C   -0.057489
    18  C   -0.126548
    19  C    0.009443
    20  C   -0.127905
    21  C    0.028072
    22  C    0.088922
    23  C   -0.022420
    24  C    0.093693
    25  C    0.010148
    26  C    0.084465
    27  C    0.108160
    28  C    0.044968
    29  C   -0.010857
    30  C    0.107663
    31  C   -0.130130
    32  C    0.186147
    33  C   -0.062497
    34  C    0.085515
    35  C   -0.094845
    36  C   -0.220044
    37  C    0.114544
    38  C    0.044176
    39  C    0.140479
    40  C    0.134479
    41  C    0.199646
    42  C    0.199288
    43  C   -0.038775
    44  H    0.153563
    45  H    0.009760
    46  H    0.027598
    47  H    0.017949
    48  H    0.043715
    49  H    0.046932
    50  H    0.039830
    51  H   -0.028335
    52  H    0.202764
    53  H    0.029662
    54  H    0.017299
    55  H    0.038975
    56  H    0.131435
    57  H   -0.001880
    58  H    0.065493
    59  H    0.040935
    60  H    0.021777
    61  H    0.020876
    62  H   -0.003161
    63  H    0.012966
    64  H    0.013808
    65  H    0.003300
    66  H   -0.042035
    67  H    0.006404
    68  H   -0.027782
    69  H    0.066751
    70  H   -0.002506
    71  H    0.033073
    72  H   -0.014302
    73  H   -0.011836
    74  H   -0.003070
    75  H    0.017875
    76  H   -0.020888
    77  H    0.015328
    78  H   -0.000365
    79  H    0.057673
    80  H    0.206921
    81  H    0.232746
 Sum of Mulliken charges =  -0.00000

 Dipole moment (field-independent basis, Debye):
    X=             -3.6445    Y=              0.0887    Z=             -0.6903  Tot=              3.7104
 Quadrupole moment (field-independent basis, Debye-Ang):
   XX=           -256.4274   YY=           -238.4044   ZZ=           -256.1185
   XY=             25.6087   XZ=             16.5605   YZ=            -15.0744

 Normal termination of Gaussian 16 at Sat Jun 29 17:38:54 2019.
