 Gaussian 16, Revision A.03,
 Gaussian 16:  ES64L-G16RevA.03 25-Dec-2016

 --------------------------
 # td=(NStates=1) B3LYP/SVP
 --------------------------

 --
 TD
 --
 Symbolic Z-matrix:
 Charge =  0 Multiplicity = 1

                         Standard orientation:
 ---------------------------------------------------------------------
 Center     Atomic      Atomic             Coordinates (Angstroms)
 Number     Number       Type             X           Y           Z
 ---------------------------------------------------------------------
      1          8           0       -4.336172   -4.787256    1.935194
      2          8           0        2.997728   -4.867174    1.231933
      3          8           0        6.993863   -1.531589    1.873260
      4          8           0        3.770003   -3.192165   -0.000852
      5          8           0        7.757682   -0.536313   -0.054360
      6          8           0       -3.096951    2.576388   -0.190501
      7          7           0       -0.338540   -0.529457   -0.722941
      8          7           0        1.568816    1.835815   -0.350919
      9          7           0       -3.241901   -3.160927    0.724925
     10          7           0       -0.856515    2.980049   -0.117445
     11          6           0        0.657385   -2.520968   -1.396324
     12          6           0        0.877676   -1.148349   -0.957585
     13          6           0       -0.742038   -2.658361   -1.242897
     14          6           0       -1.353079   -1.496770   -0.749893
     15          6           0        3.755835    1.461289   -0.303072
     16          6           0        2.496173    0.862713   -0.514988
     17          6           0        2.172067   -0.443841   -0.853021
     18          6           0        3.519894    2.798433   -0.097537
     19          6           0        1.618022   -3.455684   -1.916501
     20          6           0       -5.535379   -2.790364    1.228141
     21          6           0       -3.580566   -1.936584    0.181745
     22          6           0        2.102599    3.057391   -0.082198
     23          6           0       -4.983896   -1.654951    0.399928
     24          6           0        5.173700    0.785502   -0.350057
     25          6           0       -2.683325   -1.128171   -0.455394
     26          6           0       -1.548739   -3.870177   -1.746837
     27          6           0       -4.379179   -3.747811    1.406956
     28          6           0        2.026309   -4.563600   -0.917645
     29          6           0        5.452283   -0.084858    0.808893
     30          6           0        4.559707    3.834659    0.246158
     31          6           0        1.292502    4.158712    0.198955
     32          6           0       -6.901519   -3.381168    0.822798
     33          6           0       -5.698853   -0.549258   -0.059313
     34          6           0       -0.092761    4.055880    0.243141
     35          6           0       -1.122911    5.245106    0.535220
     36          6           0       -2.278049    4.825818    0.406867
     37          6           0        3.095347   -4.143687    0.076654
     38          6           0       -5.386465    0.458043   -1.029742
     39          6           0        6.773360   -0.700461    0.767296
     40          6           0       -3.608266    5.429185    0.500611
     41          6           0       -2.244536    3.321822    0.020241
     42          6           0       -0.622819    6.601983    0.801864
     43          6           0       -4.221980    5.673269   -0.931568
     44          1           0       -0.681018    0.439605   -0.095897
     45          1           0        2.966773   -1.226451   -0.966602
     46          1           0        2.629930   -3.153068   -2.370508
     47          1           0        1.225733   -4.081720   -2.588225
     48          1           0       -5.824996   -2.214105    2.366171
     49          1           0        5.230852    0.184848   -1.242398
     50          1           0        5.876325    1.564553   -0.534970
     51          1           0       -2.994327   -0.128721   -0.458377
     52          1           0        0.565441    1.792368   -0.426170
     53          1           0       -1.443237   -4.807996   -1.213927
     54          1           0       -2.641984   -3.583480   -1.582237
     55          1           0       -1.462109   -4.019859   -2.912338
     56          1           0       -2.204661   -3.576161    0.703369
     57          1           0        1.197199   -5.061295   -0.371710
     58          1           0        2.316241   -5.336869   -1.332369
     59          1           0        4.548182   -0.803583    1.039467
     60          1           0        5.378979    0.408398    1.820305
     61          1           0        4.378457    4.721638   -0.458996
     62          1           0        5.570365    3.428243   -0.002894
     63          1           0        4.684388    4.170351    1.137564
     64          1           0        1.742205    5.046401    0.491835
     65          1           0       -7.888405   -2.757634    0.934934
     66          1           0       -7.104175   -4.189872    1.522803
     67          1           0       -7.102869   -3.655648   -0.266852
     68          1           0       -6.710451   -0.481405    0.464962
     69          1           0       -5.193486    1.332785   -0.420322
     70          1           0       -6.192053    0.497628   -1.734843
     71          1           0       -4.625323    0.113567   -1.573466
     72          1           0       -3.341263    6.286583    0.985065
     73          1           0       -4.283059    4.799112    1.019562
     74          1           0        0.102348    6.540283    1.707026
     75          1           0       -1.535404    7.039547    1.303203
     76          1           0        0.057322    7.272852    0.137112
     77          1           0       -3.655766    6.452834   -1.451295
     78          1           0       -5.285265    5.855025   -1.062450
     79          1           0       -4.127211    4.712199   -1.493772
     80          1           0        3.777676   -4.678400    1.722558
     81          1           0        7.905405   -1.844493    1.866570
 ---------------------------------------------------------------------

 SCF Done:  E(RB3LYP) =  -1949.09248637     A.U. after   16 cycles

 Excitation energies and oscillator strengths:

 Excited State   1:      Singlet-A      1.9132 eV  648.05 nm  f=0.4466  <S**2>=0.000
     156 ->157         0.70918
     156 <-157        -0.11821
 This state for optimization and/or second-order correction.
 Total Energy, E(TD-HF/TD-DFT) =  -1949.02217846
 Copying the excited state density for this state as the 1-particle RhoCI density.

 The electronic state is 1-A.
 Alpha  occ. eigenvalues --  -19.18346 -19.17370 -19.14637 -19.12625 -19.12392
 Alpha  occ. eigenvalues --  -19.11275 -14.37849 -14.37239 -14.35134 -14.28357
 Alpha  occ. eigenvalues --  -10.32853 -10.32823 -10.30202 -10.26162 -10.23707
 Alpha  occ. eigenvalues --  -10.23615 -10.23301 -10.23134 -10.22730 -10.22694
 Alpha  occ. eigenvalues --  -10.22456 -10.21677 -10.21311 -10.20525 -10.20505
 Alpha  occ. eigenvalues --  -10.20445 -10.20298 -10.20284 -10.20223 -10.20179
 Alpha  occ. eigenvalues --  -10.19950 -10.19934 -10.19929 -10.19536 -10.19499
 Alpha  occ. eigenvalues --  -10.18593 -10.18465 -10.17747 -10.17731 -10.17690
 Alpha  occ. eigenvalues --  -10.17547 -10.16801 -10.16750  -1.11943  -1.06662
 Alpha  occ. eigenvalues --   -1.06606  -1.05508  -1.03279  -0.98771  -0.96768
 Alpha  occ. eigenvalues --   -0.96467  -0.94840  -0.89864  -0.83238  -0.82466
 Alpha  occ. eigenvalues --   -0.81618  -0.81192  -0.80358  -0.78999  -0.78344
 Alpha  occ. eigenvalues --   -0.77854  -0.76848  -0.75155  -0.74434  -0.72614
 Alpha  occ. eigenvalues --   -0.71326  -0.70232  -0.69144  -0.68376  -0.68175
 Alpha  occ. eigenvalues --   -0.67364  -0.65321  -0.64100  -0.62840  -0.61914
 Alpha  occ. eigenvalues --   -0.60854  -0.59225  -0.58364  -0.57563  -0.56463
 Alpha  occ. eigenvalues --   -0.56143  -0.55574  -0.55441  -0.53798  -0.53383
 Alpha  occ. eigenvalues --   -0.52655  -0.51596  -0.50972  -0.50682  -0.50365
 Alpha  occ. eigenvalues --   -0.49389  -0.48957  -0.48624  -0.47680  -0.47431
 Alpha  occ. eigenvalues --   -0.46707  -0.46412  -0.46144  -0.45555  -0.45341
 Alpha  occ. eigenvalues --   -0.45106  -0.44856  -0.44631  -0.44399  -0.44192
 Alpha  occ. eigenvalues --   -0.43863  -0.43810  -0.43452  -0.42817  -0.42494
 Alpha  occ. eigenvalues --   -0.42332  -0.42107  -0.41617  -0.41110  -0.41100
 Alpha  occ. eigenvalues --   -0.40871  -0.40598  -0.40443  -0.40053  -0.39749
 Alpha  occ. eigenvalues --   -0.39709  -0.39125  -0.39044  -0.38839  -0.38632
 Alpha  occ. eigenvalues --   -0.38539  -0.38187  -0.38062  -0.37061  -0.37021
 Alpha  occ. eigenvalues --   -0.36403  -0.36199  -0.35733  -0.35696  -0.35197
 Alpha  occ. eigenvalues --   -0.34769  -0.34127  -0.33883  -0.33841  -0.33447
 Alpha  occ. eigenvalues --   -0.33315  -0.32919  -0.30835  -0.30084  -0.29572
 Alpha  occ. eigenvalues --   -0.27603  -0.27559  -0.26785  -0.26546  -0.25488
 Alpha  occ. eigenvalues --   -0.25130  -0.25022  -0.23982  -0.23809  -0.20821
 Alpha  occ. eigenvalues --   -0.17088
 Alpha virt. eigenvalues --   -0.09628  -0.04982  -0.03339  -0.02355  -0.01723
 Alpha virt. eigenvalues --   -0.00647   0.02232   0.03099   0.04078   0.04718
 Alpha virt. eigenvalues --    0.04943   0.05080   0.05427   0.05851   0.06209

 Mulliken charges:
               1
     1  O   -0.131928
     2  O   -0.178772
     3  O   -0.221470
     4  O   -0.170880
     5  O   -0.295920
     6  O   -0.126265
     7  N   -0.183082
     8  N   -0.039021
     9  N   -0.219834
    10  N   -0.356281
    11  C   -0.016161
    12  C   -0.008010
    13  C   -0.192379
    14  C    0.120643
    15  C   -0.102551
    16  C    0.102895
    17  C   -0.068798
    18  C   -0.145905
    19  C    0.174940
    20  C   -0.124497
    21  C    0.081600
    22  C    0.094117
    23  C   -0.011048
    24  C    0.198560
    25  C   -0.117767
    26  C    0.022225
    27  C    0.167633
    28  C    0.067302
    29  C   -0.033016
    30  C    0.149835
    31  C   -0.087555
    32  C    0.014686
    33  C   -0.230651
    34  C    0.092658
    35  C   -0.069800
    36  C   -0.243843
    37  C    0.104465
    38  C    0.246271
    39  C    0.197466
    40  C    0.204099
    41  C    0.139465
    42  C    0.049226
    43  C   -0.013374
    44  H    0.223947
    45  H    0.012511
    46  H    0.032726
    47  H   -0.056454
    48  H    0.076085
    49  H    0.008399
    50  H   -0.004960
    51  H   -0.019829
    52  H    0.103767
    53  H    0.019469
    54  H    0.029037
    55  H    0.045566
    56  H    0.182430
    57  H    0.020880
    58  H   -0.060884
    59  H    0.073255
    60  H    0.041017
    61  H    0.021663
    62  H   -0.005308
    63  H   -0.021129
    64  H   -0.068977
    65  H    0.019474
    66  H    0.028802
    67  H    0.027436
    68  H   -0.002469
    69  H    0.059508
    70  H    0.003966
    71  H   -0.028449
    72  H   -0.049650
    73  H   -0.005688
    74  H    0.010006
    75  H    0.010950
    76  H    0.056818
    77  H    0.010493
    78  H    0.007118
    79  H    0.018818
    80  H    0.160987
    81  H    0.179389
 Sum of Mulliken charges =  -0.00000

 Dipole moment (field-independent basis, Debye):
    X=              0.2258    Y=             -0.7025    Z=              0.9544  Tot=              1.2064
 Quadrupole moment (field-independent basis, Debye-Ang):
   XX=           -250.3401   YY=           -238.2376   ZZ=           -254.0090
   XY=            -12.9599   XZ=             15.5032   YZ=             14.1022

 Normal termination of Gaussian 16 at Tue Jul  2 14:15:30 2019.
