 Gaussian 16, Revision A.03,
 Gaussian 16:  ES64L-G16RevA.03 25-Dec-2016

 --------------------------
 # td=(NStates=1) B3LYP/SVP
 --------------------------

 --
 TD
 --
 Symbolic Z-matrix:
 Charge =  0 Multiplicity = 1

                         Standard orientation:
 ---------------------------------------------------------------------
 Center     Atomic      Atomic             Coordinates (Angstroms)
 Number     Number       Type             X           Y           Z
 ---------------------------------------------------------------------
      1          8           0        4.643921   -4.688411   -1.837973
      2          8           0       -2.640468   -4.850278   -1.363432
      3          8           0       -7.186438   -1.492722   -1.898107
      4          8           0       -3.724583   -3.207358   -0.202852
      5          8           0       -7.622034   -0.826240    0.175959
      6          8           0        2.963302    2.732761    0.247628
      7          7           0        0.206480   -0.625257    0.530598
      8          7           0       -1.523261    1.759567    0.344310
      9          7           0        3.471853   -3.049661   -0.629707
     10          7           0        0.701013    3.013236   -0.042352
     11          6           0       -0.515517   -2.560649    1.305783
     12          6           0       -0.976825   -1.259128    0.976890
     13          6           0        0.840470   -2.671772    1.210351
     14          6           0        1.306160   -1.445628    0.580010
     15          6           0       -3.805453    1.258159    0.392999
     16          6           0       -2.474162    0.768018    0.661828
     17          6           0       -2.257112   -0.631485    0.843725
     18          6           0       -3.643756    2.633535    0.062717
     19          6           0       -1.534779   -3.592971    1.977089
     20          6           0        5.625565   -2.593376   -1.342993
     21          6           0        3.642334   -1.844523   -0.084194
     22          6           0       -2.159706    2.913241   -0.130624
     23          6           0        5.135255   -1.465058   -0.321379
     24          6           0       -5.159107    0.483178    0.546556
     25          6           0        2.648143   -0.989373    0.286974
     26          6           0        1.652504   -3.846672    1.694468
     27          6           0        4.550309   -3.579490   -1.363839
     28          6           0       -1.923332   -4.625180    0.937690
     29          6           0       -5.527101   -0.215692   -0.669121
     30          6           0       -4.729524    3.782853   -0.237491
     31          6           0       -1.467697    4.125142   -0.280660
     32          6           0        7.058424   -3.060696   -0.972286
     33          6           0        5.920083   -0.490315    0.225083
     34          6           0       -0.047651    4.058023   -0.210331
     35          6           0        0.864310    5.282773   -0.535318
     36          6           0        2.126788    4.883825   -0.359838
     37          6           0       -2.769349   -4.078490   -0.260098
     38          6           0        5.427655    0.522293    1.152309
     39          6           0       -6.815198   -0.899830   -0.686165
     40          6           0        3.431425    5.663115   -0.351631
     41          6           0        1.989052    3.395595    0.035947
     42          6           0        0.248065    6.590924   -0.937030
     43          6           0        4.174186    5.631045    0.945624
     44          1           0        0.491797    0.277834    0.194068
     45          1           0       -3.207692   -1.307769    1.227497
     46          1           0       -2.569695   -3.244229    2.363212
     47          1           0       -0.900459   -3.912137    2.868872
     48          1           0        5.545906   -2.304928   -2.399621
     49          1           0       -5.243112   -0.492031    1.203812
     50          1           0       -5.915186    1.247782    0.833173
     51          1           0        2.796043    0.004846    0.284569
     52          1           0       -0.512194    1.751349    0.438705
     53          1           0        1.509843   -4.752670    1.029357
     54          1           0        2.845183   -3.760338    1.816824
     55          1           0        1.164736   -4.184121    2.581356
     56          1           0        2.660418   -3.649299   -0.530208
     57          1           0       -0.905700   -5.021215    0.618669
     58          1           0       -2.431424   -5.409974    1.302964
     59          1           0       -4.742248   -1.068254   -0.719024
     60          1           0       -5.396254    0.357831   -1.712176
     61          1           0       -4.360383    4.814935    0.351975
     62          1           0       -5.798767    3.592932    0.223255
     63          1           0       -4.756756    4.179329   -1.350751
     64          1           0       -1.915531    4.879271   -0.666070
     65          1           0        7.676113   -2.323367   -1.307266
     66          1           0        7.293289   -3.887991   -1.514594
     67          1           0        7.352847   -3.390004    0.055173
     68          1           0        6.901490   -0.412334   -0.013737
     69          1           0        4.843017    1.405922    0.795932
     70          1           0        6.403562    0.980037    1.676193
     71          1           0        4.954167    0.202752    2.114271
     72          1           0        3.247822    6.644675   -0.848091
     73          1           0        4.156185    5.147005   -1.144777
     74          1           0       -0.032736    6.537208   -2.002373
     75          1           0        1.040843    7.650214   -0.780996
     76          1           0       -0.782394    6.889114   -0.022540
     77          1           0        3.720804    6.117505    1.808154
     78          1           0        5.084337    6.358139    0.625303
     79          1           0        4.629089    4.715771    1.480886
     80          1           0       -3.241831   -4.318848   -2.104307
     81          1           0       -8.074075   -2.190498   -1.725687
 ---------------------------------------------------------------------

 SCF Done:  E(RB3LYP) =  -1949.02685981     A.U. after   16 cycles

 Excitation energies and oscillator strengths:

 Excited State   1:      Singlet-A      1.9608 eV  632.32 nm  f=0.4808  <S**2>=0.000
     156 ->157         0.70953
     156 <-157        -0.12180
 This state for optimization and/or second-order correction.
 Total Energy, E(TD-HF/TD-DFT) =  -1948.95480252
 Copying the excited state density for this state as the 1-particle RhoCI density.

 The electronic state is 1-A.
 Alpha  occ. eigenvalues --  -19.21339 -19.16791 -19.14790 -19.11929 -19.11886
 Alpha  occ. eigenvalues --  -19.10302 -14.37995 -14.37915 -14.36207 -14.29063
 Alpha  occ. eigenvalues --  -10.35151 -10.30816 -10.29613 -10.26275 -10.25353
 Alpha  occ. eigenvalues --  -10.24687 -10.24110 -10.23861 -10.23751 -10.23310
 Alpha  occ. eigenvalues --  -10.23198 -10.22868 -10.22784 -10.22726 -10.22463
 Alpha  occ. eigenvalues --  -10.21777 -10.21624 -10.21566 -10.21430 -10.21207
 Alpha  occ. eigenvalues --  -10.21112 -10.20667 -10.20633 -10.20404 -10.20099
 Alpha  occ. eigenvalues --  -10.19775 -10.19269 -10.18780 -10.18765 -10.18562
 Alpha  occ. eigenvalues --  -10.18002 -10.17932 -10.17502  -1.09483  -1.07591
 Alpha  occ. eigenvalues --   -1.04669  -1.02836  -0.98731  -0.98407  -0.97649
 Alpha  occ. eigenvalues --   -0.97068  -0.96250  -0.93292  -0.82941  -0.82080
 Alpha  occ. eigenvalues --   -0.81503  -0.80679  -0.79268  -0.78820  -0.78750
 Alpha  occ. eigenvalues --   -0.77120  -0.76940  -0.75408  -0.74147  -0.72519
 Alpha  occ. eigenvalues --   -0.70152  -0.69955  -0.68137  -0.67791  -0.67434
 Alpha  occ. eigenvalues --   -0.66196  -0.65531  -0.64236  -0.62524  -0.60896
 Alpha  occ. eigenvalues --   -0.60664  -0.59622  -0.58978  -0.57654  -0.56884
 Alpha  occ. eigenvalues --   -0.55968  -0.55259  -0.54850  -0.53825  -0.52353
 Alpha  occ. eigenvalues --   -0.52149  -0.51363  -0.50927  -0.50122  -0.49919
 Alpha  occ. eigenvalues --   -0.49659  -0.49353  -0.49037  -0.48663  -0.47506
 Alpha  occ. eigenvalues --   -0.47372  -0.46609  -0.46173  -0.45788  -0.45350
 Alpha  occ. eigenvalues --   -0.44833  -0.44448  -0.44122  -0.43843  -0.43584
 Alpha  occ. eigenvalues --   -0.43327  -0.43021  -0.42754  -0.42459  -0.42035
 Alpha  occ. eigenvalues --   -0.41823  -0.41455  -0.41157  -0.40817  -0.40541
 Alpha  occ. eigenvalues --   -0.40466  -0.40344  -0.40285  -0.40112  -0.39947
 Alpha  occ. eigenvalues --   -0.39897  -0.39413  -0.39367  -0.38850  -0.38259
 Alpha  occ. eigenvalues --   -0.38007  -0.37444  -0.37228  -0.36906  -0.36153
 Alpha  occ. eigenvalues --   -0.35985  -0.35652  -0.35284  -0.34640  -0.34395
 Alpha  occ. eigenvalues --   -0.33569  -0.33261  -0.33143  -0.32891  -0.32400
 Alpha  occ. eigenvalues --   -0.32225  -0.31736  -0.30981  -0.30150  -0.29571
 Alpha  occ. eigenvalues --   -0.27372  -0.27323  -0.27290  -0.26755  -0.26148
 Alpha  occ. eigenvalues --   -0.25527  -0.24906  -0.24180  -0.23579  -0.22122
 Alpha  occ. eigenvalues --   -0.17716
 Alpha virt. eigenvalues --   -0.10132  -0.05698  -0.04368  -0.03687  -0.00458
 Alpha virt. eigenvalues --    0.00332   0.00818   0.01258   0.01568   0.02497
 Alpha virt. eigenvalues --    0.02779   0.04095   0.04289   0.04615   0.05023

 Mulliken charges:
               1
     1  O   -0.200245
     2  O   -0.220934
     3  O   -0.316911
     4  O   -0.305483
     5  O   -0.196340
     6  O   -0.180941
     7  N   -0.097810
     8  N   -0.130815
     9  N   -0.101967
    10  N   -0.231168
    11  C   -0.115467
    12  C    0.080582
    13  C   -0.142035
    14  C    0.006057
    15  C   -0.090270
    16  C    0.102833
    17  C   -0.073227
    18  C   -0.107033
    19  C    0.025569
    20  C   -0.049699
    21  C    0.088353
    22  C    0.108189
    23  C   -0.023112
    24  C    0.090624
    25  C   -0.000932
    26  C    0.040386
    27  C    0.093640
    28  C    0.069852
    29  C   -0.071018
    30  C   -0.045992
    31  C   -0.017620
    32  C    0.136894
    33  C   -0.064268
    34  C    0.059670
    35  C   -0.062153
    36  C   -0.176348
    37  C    0.193490
    38  C   -0.015499
    39  C    0.144135
    40  C    0.089372
    41  C    0.112206
    42  C   -0.080830
    43  C   -0.044976
    44  H    0.128875
    45  H    0.070386
    46  H    0.039324
    47  H    0.034601
    48  H    0.043260
    49  H    0.041405
    50  H    0.020752
    51  H   -0.052374
    52  H    0.129402
    53  H    0.030219
    54  H    0.066291
    55  H    0.000638
    56  H    0.130460
    57  H    0.031038
    58  H    0.015698
    59  H    0.068541
    60  H    0.056484
    61  H    0.038978
    62  H    0.051554
    63  H    0.056057
    64  H   -0.097723
    65  H   -0.009134
    66  H   -0.014256
    67  H    0.022488
    68  H   -0.039041
    69  H    0.094563
    70  H   -0.003652
    71  H    0.028822
    72  H    0.000890
    73  H    0.018978
    74  H    0.055000
    75  H    0.046161
    76  H    0.053334
    77  H    0.007356
    78  H    0.012700
    79  H    0.051675
    80  H    0.244536
    81  H    0.246952
 Sum of Mulliken charges =  -0.00000

 Dipole moment (field-independent basis, Debye):
    X=             -0.1973    Y=             -1.6864    Z=             -0.1730  Tot=              1.7066
 Quadrupole moment (field-independent basis, Debye-Ang):
   XX=           -258.6941   YY=           -242.5520   ZZ=           -253.7559
   XY=             12.6794   XZ=             12.4853   YZ=            -13.5325

 Normal termination of Gaussian 16 at Mon Jul  1 02:59:01 2019.
