 Gaussian 16, Revision A.03,
 Gaussian 16:  ES64L-G16RevA.03 25-Dec-2016

 --------------------------
 # td=(NStates=1) B3LYP/SVP
 --------------------------

 --
 TD
 --
 Symbolic Z-matrix:
 Charge =  0 Multiplicity = 1

                         Standard orientation:
 ---------------------------------------------------------------------
 Center     Atomic      Atomic             Coordinates (Angstroms)
 Number     Number       Type             X           Y           Z
 ---------------------------------------------------------------------
      1          8           0       -4.698350   -4.550494    1.949563
      2          8           0        2.755010   -4.890837    1.414765
      3          8           0        6.985106   -1.859961    1.851408
      4          8           0        3.612335   -3.324475    0.028949
      5          8           0        7.614526   -0.735505   -0.037176
      6          8           0       -2.812394    2.698206   -0.206040
      7          7           0       -0.407489   -0.499968   -0.780501
      8          7           0        1.664964    1.775944   -0.378995
      9          7           0       -3.711883   -3.053691    0.675422
     10          7           0       -0.502043    2.990183   -0.042082
     11          6           0        0.526343   -2.433646   -1.430315
     12          6           0        0.894629   -1.216962   -0.969069
     13          6           0       -0.934896   -2.668716   -1.296338
     14          6           0       -1.370111   -1.425768   -0.752186
     15          6           0        3.840553    1.131428   -0.404916
     16          6           0        2.490951    0.652195   -0.585404
     17          6           0        2.086795   -0.632376   -0.857391
     18          6           0        3.716203    2.558157   -0.230407
     19          6           0        1.438847   -3.633415   -1.921476
     20          6           0       -5.828352   -2.355798    1.370393
     21          6           0       -3.839857   -1.681703   -0.027712
     22          6           0        2.325401    2.857256   -0.058485
     23          6           0       -5.205114   -1.306017    0.326621
     24          6           0        5.064435    0.400258   -0.451344
     25          6           0       -2.781299   -1.042676   -0.507241
     26          6           0       -1.770749   -3.816568   -1.701269
     27          6           0       -4.715431   -3.481758    1.349365
     28          6           0        1.767455   -4.684711   -0.780758
     29          6           0        5.440558   -0.412516    0.838526
     30          6           0        4.786419    3.444659    0.377650
     31          6           0        1.601543    4.087437    0.215014
     32          6           0       -7.226422   -2.900203    1.118350
     33          6           0       -5.899270   -0.195466   -0.102589
     34          6           0        0.196538    4.182291    0.251538
     35          6           0       -0.659036    5.301878    0.528376
     36          6           0       -1.870557    4.844415    0.362775
     37          6           0        2.744575   -4.185452    0.196020
     38          6           0       -5.308434    0.769827   -1.171461
     39          6           0        6.773361   -1.042103    0.806189
     40          6           0       -3.164552    5.542785    0.481999
     41          6           0       -1.835724    3.420415   -0.082421
     42          6           0       -0.142180    6.645855    0.968884
     43          6           0       -3.897682    5.752623   -0.840363
     44          1           0       -0.580606    0.442860   -0.443977
     45          1           0        2.912651   -1.341701   -0.989029
     46          1           0        2.526047   -3.253660   -2.436499
     47          1           0        0.867438   -4.106316   -2.798549
     48          1           0       -5.798772   -2.063800    2.237961
     49          1           0        5.211623   -0.275230   -1.469646
     50          1           0        5.962311    1.104903   -0.748218
     51          1           0       -2.960524    0.219295   -0.893293
     52          1           0        0.620287    1.910105   -0.557130
     53          1           0       -1.797630   -4.828344   -1.195924
     54          1           0       -2.843414   -3.643175   -2.059210
     55          1           0       -1.258415   -4.308645   -2.566385
     56          1           0       -2.870439   -3.700641    0.389661
     57          1           0        0.713716   -4.895606   -0.269410
     58          1           0        2.349665   -5.517499   -1.088773
     59          1           0        4.639745   -1.054791    1.091923
     60          1           0        5.319551    0.215645    1.857490
     61          1           0        4.942931    4.208888   -0.458854
     62          1           0        5.770609    2.935072    0.312337
     63          1           0        4.521352    3.928872    1.430845
     64          1           0        2.236966    5.061367    0.143496
     65          1           0       -8.001941   -2.097727    1.055783
     66          1           0       -7.561006   -3.500589    2.056785
     67          1           0       -7.137973   -3.356995   -0.009403
     68          1           0       -6.809606    0.007656    0.129317
     69          1           0       -4.893427    1.624678   -0.736543
     70          1           0       -6.191108    0.883802   -2.031942
     71          1           0       -4.505443    0.225071   -1.840950
     72          1           0       -2.774288    6.429850    1.053471
     73          1           0       -3.852782    4.880780    1.099217
     74          1           0        0.597399    6.673585    1.841458
     75          1           0       -0.935068    7.462352    1.202505
     76          1           0        0.357285    7.153891    0.154852
     77          1           0       -3.375245    6.285811   -1.520709
     78          1           0       -4.982085    6.054263   -0.646570
     79          1           0       -4.080801    4.788174   -1.356153
     80          1           0        3.365075   -4.477186    2.030018
     81          1           0        7.871566   -2.111518    1.578076
 ---------------------------------------------------------------------

 SCF Done:  E(RB3LYP) =  -1949.06033561     A.U. after   16 cycles

 Excitation energies and oscillator strengths:

 Excited State   1:      Singlet-A      1.9884 eV  623.53 nm  f=0.3470  <S**2>=0.000
     156 ->157         0.70391
     156 <-157        -0.10724
 This state for optimization and/or second-order correction.
 Total Energy, E(TD-HF/TD-DFT) =  -1948.98726237
 Copying the excited state density for this state as the 1-particle RhoCI density.

 The electronic state is 1-A.
 Alpha  occ. eigenvalues --  -19.19688 -19.18605 -19.14914 -19.13375 -19.09918
 Alpha  occ. eigenvalues --  -19.08274 -14.38436 -14.36528 -14.35352 -14.28392
 Alpha  occ. eigenvalues --  -10.34443 -10.32761 -10.27002 -10.25531 -10.25492
 Alpha  occ. eigenvalues --  -10.25445 -10.24683 -10.24031 -10.23995 -10.23803
 Alpha  occ. eigenvalues --  -10.23596 -10.22745 -10.22393 -10.22101 -10.21829
 Alpha  occ. eigenvalues --  -10.21743 -10.21632 -10.21558 -10.21439 -10.21175
 Alpha  occ. eigenvalues --  -10.20923 -10.20525 -10.20435 -10.20260 -10.20113
 Alpha  occ. eigenvalues --  -10.19681 -10.19613 -10.19389 -10.19268 -10.18974
 Alpha  occ. eigenvalues --  -10.18636 -10.17943 -10.17223  -1.11509  -1.09371
 Alpha  occ. eigenvalues --   -1.01792  -1.01118  -1.00968  -1.00793  -0.98814
 Alpha  occ. eigenvalues --   -0.98072  -0.92322  -0.90971  -0.83758  -0.82452
 Alpha  occ. eigenvalues --   -0.81675  -0.80934  -0.80168  -0.79609  -0.78536
 Alpha  occ. eigenvalues --   -0.77297  -0.76641  -0.75395  -0.74581  -0.73271
 Alpha  occ. eigenvalues --   -0.71702  -0.69855  -0.69139  -0.68894  -0.67966
 Alpha  occ. eigenvalues --   -0.67253  -0.65534  -0.63644  -0.63161  -0.61353
 Alpha  occ. eigenvalues --   -0.60590  -0.59552  -0.58533  -0.58039  -0.57681
 Alpha  occ. eigenvalues --   -0.56420  -0.55460  -0.54783  -0.54239  -0.53579
 Alpha  occ. eigenvalues --   -0.52760  -0.51512  -0.51079  -0.50859  -0.50580
 Alpha  occ. eigenvalues --   -0.50140  -0.49780  -0.49216  -0.47982  -0.47629
 Alpha  occ. eigenvalues --   -0.47452  -0.46906  -0.46025  -0.45675  -0.45433
 Alpha  occ. eigenvalues --   -0.44882  -0.44366  -0.44079  -0.43859  -0.43467
 Alpha  occ. eigenvalues --   -0.43292  -0.42993  -0.42641  -0.42417  -0.41952
 Alpha  occ. eigenvalues --   -0.41681  -0.41458  -0.41249  -0.41078  -0.40787
 Alpha  occ. eigenvalues --   -0.40609  -0.40316  -0.40149  -0.40103  -0.39771
 Alpha  occ. eigenvalues --   -0.39647  -0.38814  -0.38553  -0.38288  -0.38114
 Alpha  occ. eigenvalues --   -0.37919  -0.37776  -0.37559  -0.37219  -0.36791
 Alpha  occ. eigenvalues --   -0.36522  -0.36134  -0.35782  -0.34938  -0.34619
 Alpha  occ. eigenvalues --   -0.34381  -0.33811  -0.33357  -0.33097  -0.32849
 Alpha  occ. eigenvalues --   -0.32311  -0.32099  -0.31930  -0.30750  -0.29836
 Alpha  occ. eigenvalues --   -0.29123  -0.28115  -0.26760  -0.25787  -0.25392
 Alpha  occ. eigenvalues --   -0.24501  -0.23931  -0.23598  -0.23522  -0.22110
 Alpha  occ. eigenvalues --   -0.18936
 Alpha virt. eigenvalues --   -0.10972  -0.06173  -0.04840  -0.02672  -0.01189
 Alpha virt. eigenvalues --    0.00918   0.01904   0.02441   0.03256   0.03488
 Alpha virt. eigenvalues --    0.04303   0.05004   0.05124   0.05337   0.05994

 Mulliken charges:
               1
     1  O   -0.251610
     2  O   -0.222899
     3  O   -0.150308
     4  O   -0.241103
     5  O   -0.253213
     6  O   -0.227455
     7  N   -0.127138
     8  N   -0.066862
     9  N   -0.150070
    10  N   -0.377694
    11  C   -0.089545
    12  C    0.165585
    13  C   -0.098882
    14  C    0.054213
    15  C   -0.025842
    16  C    0.109022
    17  C   -0.102043
    18  C   -0.139650
    19  C   -0.007708
    20  C    0.060875
    21  C    0.163767
    22  C    0.033911
    23  C   -0.015964
    24  C   -0.027799
    25  C   -0.180722
    26  C    0.005737
    27  C    0.067300
    28  C    0.057014
    29  C    0.010169
    30  C    0.048216
    31  C   -0.123380
    32  C   -0.011349
    33  C   -0.043247
    34  C    0.086483
    35  C   -0.023661
    36  C   -0.213700
    37  C    0.134159
    38  C   -0.025041
    39  C    0.162315
    40  C    0.080500
    41  C    0.172141
    42  C    0.063644
    43  C    0.036970
    44  H    0.145856
    45  H    0.008323
    46  H    0.051021
    47  H    0.036756
    48  H   -0.057432
    49  H    0.044978
    50  H    0.038557
    51  H    0.113143
    52  H    0.154108
    53  H    0.034218
    54  H    0.058008
    55  H   -0.001415
    56  H    0.156829
    57  H    0.076530
    58  H    0.048794
    59  H    0.010147
    60  H    0.052771
    61  H    0.020472
    62  H    0.010331
    63  H    0.064705
    64  H    0.003500
    65  H    0.017728
    66  H    0.050466
    67  H    0.035925
    68  H   -0.074916
    69  H    0.069420
    70  H    0.026053
    71  H    0.040088
    72  H   -0.002768
    73  H    0.015147
    74  H    0.038445
    75  H    0.019527
    76  H    0.012997
    77  H   -0.014009
    78  H    0.015418
    79  H    0.018421
    80  H    0.184781
    81  H    0.161935
 Sum of Mulliken charges =  -0.00000

 Dipole moment (field-independent basis, Debye):
    X=              2.9381    Y=              0.1708    Z=             -1.4052  Tot=              3.2613
 Quadrupole moment (field-independent basis, Debye-Ang):
   XX=           -259.4465   YY=           -245.0245   ZZ=           -254.8543
   XY=            -19.3914   XZ=             18.4869   YZ=             18.0809

 Normal termination of Gaussian 16 at Fri Jun 28 07:43:21 2019.
