 Gaussian 16, Revision A.03,
 Gaussian 16:  ES64L-G16RevA.03 25-Dec-2016

 --------------------------
 # td=(NStates=1) B3LYP/SVP
 --------------------------

 --
 TD
 --
 Symbolic Z-matrix:
 Charge =  0 Multiplicity = 1

                         Standard orientation:
 ---------------------------------------------------------------------
 Center     Atomic      Atomic             Coordinates (Angstroms)
 Number     Number       Type             X           Y           Z
 ---------------------------------------------------------------------
      1          8           0       -4.482636   -4.799698    1.961137
      2          8           0        2.856869   -4.820007    1.352116
      3          8           0        7.097040   -1.615319    1.649986
      4          8           0        3.839594   -3.158653    0.090674
      5          8           0        7.820365   -0.254484    0.042299
      6          8           0       -3.007872    2.469735   -0.379419
      7          7           0       -0.375455   -0.637251   -0.609715
      8          7           0        1.532782    1.747854   -0.438476
      9          7           0       -3.431258   -3.170632    0.342444
     10          7           0       -0.775323    2.898999   -0.175993
     11          6           0        0.679580   -2.425597   -1.282777
     12          6           0        0.897543   -1.072896   -0.895571
     13          6           0       -0.699273   -2.738608   -1.199431
     14          6           0       -1.325577   -1.624540   -0.730757
     15          6           0        3.802477    1.452709   -0.284509
     16          6           0        2.509511    0.798287   -0.598337
     17          6           0        2.215298   -0.480495   -0.909000
     18          6           0        3.500378    2.733354    0.035957
     19          6           0        1.654153   -3.437005   -1.838827
     20          6           0       -5.500126   -2.558188    1.413868
     21          6           0       -3.629984   -1.939250   -0.056933
     22          6           0        2.152532    2.985948   -0.032495
     23          6           0       -5.058097   -1.424766    0.387230
     24          6           0        5.211301    0.801078   -0.464151
     25          6           0       -2.723348   -1.077217   -0.491600
     26          6           0       -1.456525   -3.981742   -1.728730
     27          6           0       -4.486912   -3.663194    1.274831
     28          6           0        2.130050   -4.619325   -0.882535
     29          6           0        5.518121   -0.067621    0.855355
     30          6           0        4.520243    3.830519    0.329598
     31          6           0        1.302508    4.062616    0.324860
     32          6           0       -6.877960   -3.119874    1.250341
     33          6           0       -5.815362   -0.566787   -0.186183
     34          6           0       -0.107209    4.023545    0.220457
     35          6           0       -0.973711    5.171856    0.393140
     36          6           0       -2.287206    4.649687    0.290177
     37          6           0        3.068960   -4.089280    0.253186
     38          6           0       -5.541888    0.462185   -1.217692
     39          6           0        6.870269   -0.608088    0.776570
     40          6           0       -3.624114    5.280779    0.563685
     41          6           0       -2.102257    3.225799   -0.121977
     42          6           0       -0.614226    6.513155    0.860657
     43          6           0       -4.391304    5.694979   -0.740010
     44          1           0       -0.618293    0.407542   -0.388975
     45          1           0        2.885575   -1.313491   -1.013546
     46          1           0        2.435782   -2.938608   -2.455134
     47          1           0        1.134839   -4.096864   -2.711354
     48          1           0       -5.341964   -1.911421    2.282192
     49          1           0        5.283286    0.314570   -1.432964
     50          1           0        6.064408    1.547220   -0.442878
     51          1           0       -2.951033    0.055514   -0.824505
     52          1           0        0.529244    1.994371   -0.424924
     53          1           0       -1.634749   -4.798937   -0.981180
     54          1           0       -2.390365   -3.592118   -2.067182
     55          1           0       -1.032587   -4.709043   -2.560306
     56          1           0       -2.458381   -3.706978    0.419177
     57          1           0        1.355805   -4.913284   -0.144774
     58          1           0        2.729061   -5.188103   -1.629954
     59          1           0        5.034416   -0.928198    0.943797
     60          1           0        5.350047    0.576215    1.800268
     61          1           0        4.270836    4.702136   -0.236316
     62          1           0        5.402852    3.705858    0.041133
     63          1           0        4.359065    4.146358    1.327986
     64          1           0        1.779221    4.958917    0.631659
     65          1           0       -7.658723   -2.467764    1.467756
     66          1           0       -7.107532   -3.947843    1.804001
     67          1           0       -7.121513   -3.273888    0.444233
     68          1           0       -6.855524   -0.642711    0.266061
     69          1           0       -5.287895    1.447751   -0.830514
     70          1           0       -6.281179    0.612455   -2.060136
     71          1           0       -4.665682    0.041745   -1.966337
     72          1           0       -3.475249    6.197378    1.231343
     73          1           0       -4.224737    4.336042    1.198311
     74          1           0       -0.066290    6.457073    1.789219
     75          1           0       -1.547654    7.115670    0.755898
     76          1           0        0.307553    6.835735    0.194165
     77          1           0       -4.031103    6.584517   -1.256694
     78          1           0       -5.420674    6.031358   -0.335532
     79          1           0       -4.667126    4.786523   -1.178750
     80          1           0        3.368556   -4.239241    1.927688
     81          1           0        7.998511   -1.783977    1.444510
 ---------------------------------------------------------------------

 SCF Done:  E(RB3LYP) =  -1949.01207902     A.U. after   18 cycles

 Excitation energies and oscillator strengths:

 Excited State   1:      Singlet-A      1.9264 eV  643.60 nm  f=0.3646  <S**2>=0.000
     156 ->157         0.70564
     156 <-157        -0.11579
 This state for optimization and/or second-order correction.
 Total Energy, E(TD-HF/TD-DFT) =  -1948.94128451
 Copying the excited state density for this state as the 1-particle RhoCI density.

 The electronic state is 1-A.
 Alpha  occ. eigenvalues --  -19.21333 -19.18237 -19.15001 -19.12508 -19.12476
 Alpha  occ. eigenvalues --  -19.09968 -14.38428 -14.37340 -14.34628 -14.28819
 Alpha  occ. eigenvalues --  -10.33677 -10.32133 -10.31241 -10.25858 -10.23641
 Alpha  occ. eigenvalues --  -10.23622 -10.23509 -10.22965 -10.22929 -10.22820
 Alpha  occ. eigenvalues --  -10.22057 -10.21821 -10.21820 -10.21349 -10.21284
 Alpha  occ. eigenvalues --  -10.21181 -10.21156 -10.20915 -10.20707 -10.20247
 Alpha  occ. eigenvalues --  -10.20206 -10.19707 -10.19652 -10.19530 -10.19287
 Alpha  occ. eigenvalues --  -10.19249 -10.19105 -10.19098 -10.18958 -10.18929
 Alpha  occ. eigenvalues --  -10.18367 -10.17715 -10.15202  -1.13078  -1.10562
 Alpha  occ. eigenvalues --   -1.03166  -1.02038  -0.99338  -0.98836  -0.97847
 Alpha  occ. eigenvalues --   -0.96743  -0.94493  -0.91890  -0.82300  -0.82062
 Alpha  occ. eigenvalues --   -0.81587  -0.80878  -0.79613  -0.79026  -0.78400
 Alpha  occ. eigenvalues --   -0.77533  -0.76727  -0.75557  -0.74402  -0.72668
 Alpha  occ. eigenvalues --   -0.71777  -0.70571  -0.69641  -0.68633  -0.68448
 Alpha  occ. eigenvalues --   -0.67735  -0.66209  -0.65176  -0.62402  -0.61497
 Alpha  occ. eigenvalues --   -0.60292  -0.59410  -0.58834  -0.58213  -0.56520
 Alpha  occ. eigenvalues --   -0.56477  -0.55392  -0.54584  -0.53175  -0.52941
 Alpha  occ. eigenvalues --   -0.52743  -0.51972  -0.51082  -0.50167  -0.49963
 Alpha  occ. eigenvalues --   -0.49375  -0.49311  -0.49066  -0.48615  -0.47687
 Alpha  occ. eigenvalues --   -0.47371  -0.46628  -0.45923  -0.45740  -0.45434
 Alpha  occ. eigenvalues --   -0.45185  -0.44795  -0.44101  -0.43814  -0.43660
 Alpha  occ. eigenvalues --   -0.43495  -0.43413  -0.43152  -0.42933  -0.42229
 Alpha  occ. eigenvalues --   -0.41961  -0.41769  -0.41558  -0.41479  -0.41229
 Alpha  occ. eigenvalues --   -0.41145  -0.40873  -0.40431  -0.40202  -0.39908
 Alpha  occ. eigenvalues --   -0.39534  -0.38967  -0.38847  -0.38732  -0.38531
 Alpha  occ. eigenvalues --   -0.38257  -0.38122  -0.37619  -0.37360  -0.37175
 Alpha  occ. eigenvalues --   -0.36707  -0.36679  -0.35976  -0.35590  -0.34848
 Alpha  occ. eigenvalues --   -0.34595  -0.34275  -0.34034  -0.33323  -0.33114
 Alpha  occ. eigenvalues --   -0.32286  -0.31816  -0.30104  -0.30026  -0.29083
 Alpha  occ. eigenvalues --   -0.28553  -0.28126  -0.27077  -0.26218  -0.25826
 Alpha  occ. eigenvalues --   -0.25428  -0.24760  -0.24277  -0.22557  -0.21814
 Alpha  occ. eigenvalues --   -0.18272
 Alpha virt. eigenvalues --   -0.10705  -0.05562  -0.03748  -0.01842  -0.01422
 Alpha virt. eigenvalues --   -0.01105   0.01892   0.03176   0.03763   0.04191
 Alpha virt. eigenvalues --    0.04768   0.05206   0.05415   0.06019   0.06524

 Mulliken charges:
               1
     1  O   -0.299901
     2  O   -0.136048
     3  O   -0.154412
     4  O   -0.228077
     5  O   -0.281543
     6  O   -0.201225
     7  N   -0.120279
     8  N   -0.138298
     9  N   -0.174258
    10  N   -0.305933
    11  C   -0.120270
    12  C    0.034264
    13  C   -0.144003
    14  C    0.045629
    15  C   -0.085584
    16  C    0.190439
    17  C   -0.084243
    18  C   -0.148528
    19  C   -0.010671
    20  C   -0.051957
    21  C    0.066544
    22  C    0.061672
    23  C   -0.042929
    24  C    0.084358
    25  C   -0.144947
    26  C    0.041281
    27  C    0.213371
    28  C    0.052471
    29  C    0.070202
    30  C    0.269874
    31  C   -0.082587
    32  C    0.309116
    33  C   -0.134612
    34  C    0.110611
    35  C   -0.139958
    36  C   -0.148902
    37  C    0.114830
    38  C    0.028403
    39  C    0.117032
    40  C   -0.052643
    41  C    0.133542
    42  C    0.109858
    43  C    0.050047
    44  H    0.180310
    45  H   -0.003771
    46  H    0.024370
    47  H    0.021479
    48  H    0.057241
    49  H    0.030990
    50  H    0.032783
    51  H    0.101994
    52  H    0.126862
    53  H    0.018931
    54  H    0.032218
    55  H    0.029820
    56  H    0.191887
    57  H    0.041479
    58  H    0.056276
    59  H   -0.008287
    60  H    0.068706
    61  H   -0.010129
    62  H   -0.066440
    63  H    0.003512
    64  H   -0.060638
    65  H   -0.027607
    66  H    0.001317
    67  H   -0.133155
    68  H   -0.004977
    69  H    0.066745
    70  H    0.013963
    71  H    0.031820
    72  H    0.012594
    73  H    0.048851
    74  H    0.019588
    75  H    0.040945
    76  H    0.019040
    77  H    0.027264
    78  H    0.001440
    79  H    0.018385
    80  H    0.167600
    81  H    0.154858
 Sum of Mulliken charges =  -0.00000

 Dipole moment (field-independent basis, Debye):
    X=              1.7725    Y=              1.4065    Z=              0.4413  Tot=              2.3054
 Quadrupole moment (field-independent basis, Debye-Ang):
   XX=           -256.8377   YY=           -241.8050   ZZ=           -254.0911
   XY=            -14.6067   XZ=             13.9378   YZ=             15.8216

 Normal termination of Gaussian 16 at Sun Jul  7 02:44:16 2019.
