 Gaussian 16, Revision A.03,
 Gaussian 16:  ES64L-G16RevA.03 25-Dec-2016

 --------------------------
 # td=(NStates=1) B3LYP/SVP
 --------------------------

 --
 TD
 --
 Symbolic Z-matrix:
 Charge =  0 Multiplicity = 1

                         Standard orientation:
 ---------------------------------------------------------------------
 Center     Atomic      Atomic             Coordinates (Angstroms)
 Number     Number       Type             X           Y           Z
 ---------------------------------------------------------------------
      1          8           0       -4.528882   -4.691634    1.801714
      2          8           0        2.919983   -4.931894    1.349862
      3          8           0        7.087976   -1.401350    1.937362
      4          8           0        3.565194   -3.052121    0.247815
      5          8           0        7.556672   -0.654737   -0.106917
      6          8           0       -2.951603    2.449499   -0.115088
      7          7           0       -0.266456   -0.532466   -0.624022
      8          7           0        1.590887    1.898894   -0.525900
      9          7           0       -3.389996   -3.093257    0.525125
     10          7           0       -0.702894    2.914603   -0.146429
     11          6           0        0.671100   -2.509542   -1.284773
     12          6           0        0.960041   -1.149422   -0.790071
     13          6           0       -0.691849   -2.684578   -1.225252
     14          6           0       -1.340852   -1.515728   -0.751937
     15          6           0        3.745315    1.388689   -0.289751
     16          6           0        2.477769    0.849829   -0.571983
     17          6           0        2.229755   -0.487641   -0.704826
     18          6           0        3.510758    2.782010   -0.082748
     19          6           0        1.674857   -3.448061   -1.843242
     20          6           0       -5.553793   -2.564841    1.321647
     21          6           0       -3.601119   -1.802535    0.120470
     22          6           0        2.157001    3.000909   -0.160400
     23          6           0       -5.039785   -1.447449    0.338349
     24          6           0        5.070294    0.724135   -0.389377
     25          6           0       -2.652890   -0.955133   -0.452387
     26          6           0       -1.360969   -3.919394   -1.845753
     27          6           0       -4.451948   -3.582457    1.293325
     28          6           0        2.091100   -4.560707   -0.905948
     29          6           0        5.381249   -0.193334    0.686662
     30          6           0        4.613677    3.900244    0.123608
     31          6           0        1.344807    4.087716    0.095810
     32          6           0       -7.042665   -3.062910    1.121997
     33          6           0       -5.847924   -0.581516   -0.309256
     34          6           0       -0.000314    3.988349    0.218150
     35          6           0       -0.984708    5.133816    0.552903
     36          6           0       -2.271715    4.654816    0.440340
     37          6           0        2.929408   -4.101814    0.263237
     38          6           0       -5.347959    0.373950   -1.335321
     39          6           0        6.778864   -0.829236    0.780654
     40          6           0       -3.640053    5.276854    0.619713
     41          6           0       -2.023664    3.190335    0.045524
     42          6           0       -0.528479    6.564457    0.859379
     43          6           0       -4.247269    5.537389   -0.796697
     44          1           0       -0.287891    0.223216    0.035068
     45          1           0        3.056454   -1.280520   -0.760351
     46          1           0        2.645406   -3.019026   -1.961033
     47          1           0        1.180021   -4.015886   -2.779128
     48          1           0       -5.486219   -1.999167    2.157659
     49          1           0        5.123770    0.114088   -1.391292
     50          1           0        6.014786    1.540307   -0.669035
     51          1           0       -2.948935    0.135461   -0.436722
     52          1           0        0.587198    1.828007   -0.668166
     53          1           0       -1.300567   -4.693892   -0.942409
     54          1           0       -2.494369   -3.722103   -2.014797
     55          1           0       -0.538680   -4.376258   -2.480982
     56          1           0       -2.592377   -3.875937    0.525724
     57          1           0        1.239757   -4.994691   -0.473693
     58          1           0        2.600857   -5.474870   -1.356534
     59          1           0        4.637782   -0.856622    0.800999
     60          1           0        5.262762    0.399950    1.576379
     61          1           0        4.257199    4.711375   -0.569112
     62          1           0        5.611987    3.428555   -0.199563
     63          1           0        4.577521    4.245614    1.267187
     64          1           0        1.688886    5.154469    0.237140
     65          1           0       -7.786000   -2.209928    1.101366
     66          1           0       -7.513231   -3.963253    1.756999
     67          1           0       -7.281672   -3.420277    0.078187
     68          1           0       -6.804599   -0.531438   -0.045829
     69          1           0       -4.976262    1.490806   -0.947723
     70          1           0       -6.341773    0.551352   -2.015892
     71          1           0       -4.652040   -0.166186   -1.999063
     72          1           0       -3.469501    6.188019    1.426474
     73          1           0       -4.186760    4.426022    1.001932
     74          1           0        0.000033    6.555182    1.953661
     75          1           0       -1.550167    7.093977    1.116313
     76          1           0       -0.016503    7.223400   -0.089029
     77          1           0       -3.651029    6.227366   -1.226461
     78          1           0       -5.254899    6.130316   -0.772581
     79          1           0       -4.456974    4.592936   -1.258699
     80          1           0        3.388577   -4.339589    2.041661
     81          1           0        7.853702   -1.720496    1.609671
 ---------------------------------------------------------------------

 SCF Done:  E(RB3LYP) =  -1949.08783241     A.U. after   17 cycles

 Excitation energies and oscillator strengths:

 Excited State   1:      Singlet-A      1.9149 eV  647.46 nm  f=0.4433  <S**2>=0.000
     156 ->157         0.71017
     156 <-157        -0.12371
 This state for optimization and/or second-order correction.
 Total Energy, E(TD-HF/TD-DFT) =  -1949.01746007
 Copying the excited state density for this state as the 1-particle RhoCI density.

 The electronic state is 1-A.
 Alpha  occ. eigenvalues --  -19.21099 -19.19239 -19.15679 -19.13160 -19.11463
 Alpha  occ. eigenvalues --  -19.09429 -14.38620 -14.37287 -14.35244 -14.27714
 Alpha  occ. eigenvalues --  -10.34761 -10.32390 -10.29459 -10.25323 -10.25181
 Alpha  occ. eigenvalues --  -10.24608 -10.23505 -10.22888 -10.22739 -10.22604
 Alpha  occ. eigenvalues --  -10.22450 -10.22377 -10.21868 -10.21634 -10.21579
 Alpha  occ. eigenvalues --  -10.21434 -10.21204 -10.20880 -10.20737 -10.20689
 Alpha  occ. eigenvalues --  -10.20633 -10.20511 -10.20142 -10.19770 -10.19702
 Alpha  occ. eigenvalues --  -10.19624 -10.19491 -10.19453 -10.19039 -10.18796
 Alpha  occ. eigenvalues --  -10.18086 -10.17575 -10.17452  -1.14069  -1.11329
 Alpha  occ. eigenvalues --   -1.03600  -1.02902  -1.02453  -1.01964  -1.00599
 Alpha  occ. eigenvalues --   -0.96802  -0.95685  -0.91340  -0.84027  -0.83128
 Alpha  occ. eigenvalues --   -0.81595  -0.81164  -0.79513  -0.78714  -0.78289
 Alpha  occ. eigenvalues --   -0.77851  -0.76214  -0.74817  -0.73618  -0.72547
 Alpha  occ. eigenvalues --   -0.70558  -0.69444  -0.68821  -0.68000  -0.67425
 Alpha  occ. eigenvalues --   -0.66671  -0.65371  -0.63940  -0.62004  -0.61553
 Alpha  occ. eigenvalues --   -0.60619  -0.60179  -0.58672  -0.57856  -0.56990
 Alpha  occ. eigenvalues --   -0.56164  -0.55441  -0.55120  -0.54222  -0.53426
 Alpha  occ. eigenvalues --   -0.53176  -0.51825  -0.51393  -0.51102  -0.50437
 Alpha  occ. eigenvalues --   -0.50365  -0.49888  -0.49269  -0.49128  -0.48260
 Alpha  occ. eigenvalues --   -0.48015  -0.46464  -0.46274  -0.46147  -0.45638
 Alpha  occ. eigenvalues --   -0.45115  -0.44616  -0.44205  -0.43898  -0.43453
 Alpha  occ. eigenvalues --   -0.43235  -0.43064  -0.42925  -0.42581  -0.42254
 Alpha  occ. eigenvalues --   -0.42048  -0.41497  -0.41202  -0.40778  -0.40603
 Alpha  occ. eigenvalues --   -0.40393  -0.40112  -0.39979  -0.39829  -0.39523
 Alpha  occ. eigenvalues --   -0.39521  -0.39219  -0.38895  -0.38447  -0.38123
 Alpha  occ. eigenvalues --   -0.37792  -0.37652  -0.37113  -0.36840  -0.36574
 Alpha  occ. eigenvalues --   -0.36429  -0.36269  -0.35696  -0.35627  -0.35079
 Alpha  occ. eigenvalues --   -0.34759  -0.34493  -0.34239  -0.33746  -0.33322
 Alpha  occ. eigenvalues --   -0.32382  -0.32294  -0.31961  -0.30957  -0.29903
 Alpha  occ. eigenvalues --   -0.28727  -0.26882  -0.26659  -0.26494  -0.26060
 Alpha  occ. eigenvalues --   -0.25350  -0.24865  -0.23276  -0.22971  -0.21293
 Alpha  occ. eigenvalues --   -0.17816
 Alpha virt. eigenvalues --   -0.10398  -0.05104  -0.03649  -0.02862  -0.00032
 Alpha virt. eigenvalues --    0.00322   0.00892   0.01521   0.02501   0.03607
 Alpha virt. eigenvalues --    0.03791   0.04153   0.04839   0.05506   0.05956

 Mulliken charges:
               1
     1  O   -0.219525
     2  O   -0.204628
     3  O   -0.093124
     4  O   -0.244738
     5  O   -0.216025
     6  O   -0.204607
     7  N   -0.114991
     8  N    0.010631
     9  N   -0.171565
    10  N   -0.277416
    11  C   -0.089520
    12  C   -0.020688
    13  C   -0.182027
    14  C    0.115899
    15  C   -0.078248
    16  C    0.129524
    17  C   -0.100453
    18  C   -0.172901
    19  C    0.103281
    20  C    0.046564
    21  C    0.063947
    22  C    0.137928
    23  C   -0.056333
    24  C   -0.004931
    25  C   -0.120379
    26  C    0.077248
    27  C    0.109947
    28  C    0.034949
    29  C    0.084846
    30  C    0.056865
    31  C   -0.175922
    32  C   -0.008214
    33  C   -0.068748
    34  C    0.066502
    35  C   -0.115693
    36  C   -0.182181
    37  C    0.137494
    38  C   -0.025463
    39  C    0.118296
    40  C    0.056755
    41  C    0.114027
    42  C   -0.024882
    43  C    0.035994
    44  H    0.141292
    45  H    0.050168
    46  H    0.006429
    47  H    0.042346
    48  H    0.016508
    49  H    0.026163
    50  H    0.043764
    51  H    0.066582
    52  H    0.116935
    53  H    0.018777
    54  H    0.071365
    55  H    0.012700
    56  H    0.185024
    57  H   -0.003100
    58  H    0.057424
    59  H   -0.012059
    60  H    0.005094
    61  H    0.039234
    62  H    0.031024
    63  H    0.051002
    64  H   -0.016219
    65  H    0.020388
    66  H    0.057213
    67  H    0.008930
    68  H   -0.063012
    69  H    0.117600
    70  H    0.008119
    71  H    0.039783
    72  H    0.035028
    73  H    0.006041
    74  H    0.048795
    75  H    0.015571
    76  H    0.069557
    77  H   -0.010934
    78  H    0.006623
    79  H    0.036534
    80  H    0.211291
    81  H    0.114522
 Sum of Mulliken charges =  -0.00000

 Dipole moment (field-independent basis, Debye):
    X=              2.0506    Y=             -1.8197    Z=              0.2389  Tot=              2.7520
 Quadrupole moment (field-independent basis, Debye-Ang):
   XX=           -256.6470   YY=           -244.3120   ZZ=           -256.8388
   XY=            -16.5508   XZ=             13.4039   YZ=             12.2834

 Normal termination of Gaussian 16 at Tue Jul  2 21:03:50 2019.
