 Gaussian 16, Revision A.03,
 Gaussian 16:  ES64L-G16RevA.03 25-Dec-2016

 --------------------------
 # td=(NStates=1) B3LYP/SVP
 --------------------------

 --
 TD
 --
 Symbolic Z-matrix:
 Charge =  0 Multiplicity = 1

                         Standard orientation:
 ---------------------------------------------------------------------
 Center     Atomic      Atomic             Coordinates (Angstroms)
 Number     Number       Type             X           Y           Z
 ---------------------------------------------------------------------
      1          8           0        4.617702   -4.715015   -1.921487
      2          8           0       -2.849245   -4.939716   -1.276586
      3          8           0       -7.087225   -1.595315   -1.821412
      4          8           0       -3.622924   -3.098731   -0.212993
      5          8           0       -7.680638   -0.477827    0.079722
      6          8           0        2.955106    2.508591    0.078774
      7          7           0        0.344369   -0.654576    0.573595
      8          7           0       -1.536783    1.726391    0.382185
      9          7           0        3.531416   -3.094986   -0.587783
     10          7           0        0.748489    2.904089    0.170511
     11          6           0       -0.557655   -2.594568    1.348420
     12          6           0       -0.928091   -1.256466    0.973457
     13          6           0        0.738078   -2.790449    1.215038
     14          6           0        1.315874   -1.602369    0.734644
     15          6           0       -3.800726    1.358991    0.402318
     16          6           0       -2.427263    0.694729    0.660919
     17          6           0       -2.094615   -0.589122    0.986515
     18          6           0       -3.637216    2.624434   -0.005985
     19          6           0       -1.567385   -3.502295    1.910082
     20          6           0        5.657935   -2.523817   -1.269516
     21          6           0        3.694987   -1.761963   -0.160832
     22          6           0       -2.193128    2.928972   -0.035439
     23          6           0        5.075041   -1.516816   -0.390417
     24          6           0       -5.101214    0.580424    0.431575
     25          6           0        2.712422   -1.060733    0.420628
     26          6           0        1.595676   -3.879543    1.730331
     27          6           0        4.574182   -3.619583   -1.376330
     28          6           0       -2.153855   -4.631314    0.955076
     29          6           0       -5.351432   -0.252919   -0.806979
     30          6           0       -4.691332    3.679862   -0.268002
     31          6           0       -1.395412    4.110215   -0.261499
     32          6           0        7.062570   -3.078936   -1.008828
     33          6           0        5.825640   -0.386764    0.165458
     34          6           0        0.008121    4.101943   -0.227492
     35          6           0        0.931669    5.257737   -0.480803
     36          6           0        2.154035    4.795430   -0.318152
     37          6           0       -2.877071   -4.122200   -0.242466
     38          6           0        5.381845    0.625981    1.185832
     39          6           0       -6.855370   -0.762459   -0.772772
     40          6           0        3.449431    5.600015   -0.424753
     41          6           0        2.021822    3.371397    0.000692
     42          6           0        0.368161    6.645868   -0.948311
     43          6           0        4.036780    5.897198    0.923553
     44          1           0        0.441694    0.347557    0.362971
     45          1           0       -2.925071   -1.151336    1.064077
     46          1           0       -2.432614   -2.895943    2.250135
     47          1           0       -1.249333   -4.352399    2.682240
     48          1           0        5.572441   -2.164626   -2.296731
     49          1           0       -5.024221   -0.073372    1.242363
     50          1           0       -5.763282    1.483170    0.670392
     51          1           0        2.807552   -0.077093    0.501115
     52          1           0       -0.400316    1.741093    0.436761
     53          1           0        2.109021   -4.755713    1.031265
     54          1           0        2.594194   -3.623350    2.210720
     55          1           0        1.084815   -4.370172    2.489478
     56          1           0        2.530732   -3.513762   -0.375852
     57          1           0       -1.175538   -5.000197    0.537919
     58          1           0       -2.683143   -5.399768    1.272966
     59          1           0       -4.474830   -1.151386   -0.892177
     60          1           0       -5.410555    0.273568   -1.731967
     61          1           0       -4.606926    4.514273    0.698932
     62          1           0       -5.720196    3.400619   -0.394286
     63          1           0       -4.751779    4.146525   -1.121756
     64          1           0       -1.948033    4.921342   -0.456601
     65          1           0        8.016871   -2.400414   -1.259609
     66          1           0        7.323946   -3.864240   -1.720286
     67          1           0        6.935462   -3.439222    0.035378
     68          1           0        6.818635   -0.241892   -0.237325
     69          1           0        4.564683    1.229190    1.005519
     70          1           0        6.363519    1.098633    1.778065
     71          1           0        4.883166    0.155434    2.009016
     72          1           0        3.207961    6.390385   -1.025292
     73          1           0        4.144731    4.987929   -1.100820
     74          1           0        0.099811    6.589216   -2.071182
     75          1           0        0.984962    7.580468   -0.812329
     76          1           0       -0.813729    6.714778   -0.274430
     77          1           0        3.335473    6.449069    1.545768
     78          1           0        4.887131    6.449809    0.739092
     79          1           0        4.223624    5.046296    1.462657
     80          1           0       -3.683401   -4.768524   -1.939624
     81          1           0       -7.977128   -1.943539   -1.770030
 ---------------------------------------------------------------------

 SCF Done:  E(RB3LYP) =  -1949.03949995     A.U. after   23 cycles

 Excitation energies and oscillator strengths:

 Excited State   1:      Singlet-A      1.9398 eV  639.14 nm  f=0.4096  <S**2>=0.000
     156 ->157         0.70786
     156 <-157        -0.12285
 This state for optimization and/or second-order correction.
 Total Energy, E(TD-HF/TD-DFT) =  -1948.96821186
 Copying the excited state density for this state as the 1-particle RhoCI density.

 The electronic state is 1-A.
 Alpha  occ. eigenvalues --  -19.21074 -19.18282 -19.13591 -19.12791 -19.11202
 Alpha  occ. eigenvalues --  -19.08051 -14.38212 -14.36788 -14.35704 -14.29168
 Alpha  occ. eigenvalues --  -10.33637 -10.32222 -10.29534 -10.25097 -10.24707
 Alpha  occ. eigenvalues --  -10.24704 -10.23524 -10.23207 -10.23187 -10.23124
 Alpha  occ. eigenvalues --  -10.22919 -10.22394 -10.21603 -10.21156 -10.21062
 Alpha  occ. eigenvalues --  -10.21031 -10.20566 -10.20541 -10.20405 -10.20287
 Alpha  occ. eigenvalues --  -10.20223 -10.20156 -10.20145 -10.20002 -10.19770
 Alpha  occ. eigenvalues --  -10.19757 -10.19388 -10.18657 -10.18353 -10.18339
 Alpha  occ. eigenvalues --  -10.18262 -10.17858 -10.16149  -1.10503  -1.09097
 Alpha  occ. eigenvalues --   -1.02491  -1.00356  -0.99471  -0.97952  -0.97812
 Alpha  occ. eigenvalues --   -0.94865  -0.94701  -0.89076  -0.84003  -0.82008
 Alpha  occ. eigenvalues --   -0.81474  -0.80769  -0.79813  -0.79460  -0.78352
 Alpha  occ. eigenvalues --   -0.77046  -0.76060  -0.74895  -0.74044  -0.73052
 Alpha  occ. eigenvalues --   -0.71387  -0.69775  -0.69556  -0.69009  -0.67725
 Alpha  occ. eigenvalues --   -0.67260  -0.65151  -0.63897  -0.62826  -0.61970
 Alpha  occ. eigenvalues --   -0.61496  -0.59733  -0.59403  -0.58733  -0.57901
 Alpha  occ. eigenvalues --   -0.56387  -0.55195  -0.54235  -0.53967  -0.53223
 Alpha  occ. eigenvalues --   -0.52773  -0.51831  -0.50977  -0.50566  -0.50202
 Alpha  occ. eigenvalues --   -0.48964  -0.48477  -0.48148  -0.47873  -0.47569
 Alpha  occ. eigenvalues --   -0.47417  -0.46471  -0.46134  -0.45742  -0.45323
 Alpha  occ. eigenvalues --   -0.44813  -0.44576  -0.44003  -0.43736  -0.43478
 Alpha  occ. eigenvalues --   -0.43372  -0.42826  -0.42418  -0.42165  -0.41890
 Alpha  occ. eigenvalues --   -0.41673  -0.41488  -0.41312  -0.40944  -0.40649
 Alpha  occ. eigenvalues --   -0.40145  -0.40091  -0.39663  -0.39539  -0.39362
 Alpha  occ. eigenvalues --   -0.39178  -0.38657  -0.38596  -0.38356  -0.37921
 Alpha  occ. eigenvalues --   -0.37560  -0.37194  -0.36725  -0.36372  -0.36251
 Alpha  occ. eigenvalues --   -0.36192  -0.35618  -0.35467  -0.35000  -0.34978
 Alpha  occ. eigenvalues --   -0.34131  -0.34096  -0.33623  -0.33516  -0.33083
 Alpha  occ. eigenvalues --   -0.32938  -0.32482  -0.31949  -0.29484  -0.28842
 Alpha  occ. eigenvalues --   -0.28165  -0.27910  -0.26977  -0.26269  -0.25478
 Alpha  occ. eigenvalues --   -0.25339  -0.24474  -0.23079  -0.22721  -0.21204
 Alpha  occ. eigenvalues --   -0.17892
 Alpha virt. eigenvalues --   -0.10363  -0.05936  -0.04180  -0.02616   0.00183
 Alpha virt. eigenvalues --    0.00322   0.00942   0.01247   0.03083   0.03179
 Alpha virt. eigenvalues --    0.03561   0.04145   0.05080   0.06050   0.06181

 Mulliken charges:
               1
     1  O   -0.211749
     2  O   -0.205233
     3  O   -0.183962
     4  O   -0.286133
     5  O   -0.229872
     6  O   -0.273020
     7  N   -0.128847
     8  N   -0.220255
     9  N   -0.210479
    10  N   -0.330438
    11  C   -0.032968
    12  C    0.106160
    13  C   -0.118441
    14  C    0.067920
    15  C   -0.113639
    16  C    0.064552
    17  C    0.017218
    18  C   -0.091086
    19  C    0.054610
    20  C   -0.024342
    21  C    0.138122
    22  C    0.076812
    23  C   -0.061122
    24  C    0.145771
    25  C   -0.028278
    26  C    0.010152
    27  C    0.136874
    28  C    0.048016
    29  C   -0.052542
    30  C    0.105049
    31  C   -0.049546
    32  C    0.035472
    33  C   -0.072775
    34  C    0.118463
    35  C   -0.035355
    36  C   -0.207949
    37  C    0.145288
    38  C    0.071620
    39  C    0.144814
    40  C    0.123871
    41  C    0.155793
    42  C   -0.029142
    43  C    0.112322
    44  H    0.133516
    45  H   -0.070097
    46  H    0.026544
    47  H    0.035190
    48  H    0.033766
    49  H   -0.006535
    50  H    0.033013
    51  H   -0.076136
    52  H    0.204129
    53  H    0.040686
    54  H    0.040190
    55  H   -0.009583
    56  H    0.163230
    57  H    0.035888
    58  H    0.009765
    59  H    0.111847
    60  H    0.013712
    61  H    0.051809
    62  H   -0.004598
    63  H   -0.028270
    64  H   -0.092190
    65  H    0.031241
    66  H    0.022945
    67  H    0.030834
    68  H   -0.004349
    69  H    0.044610
    70  H    0.028140
    71  H   -0.005012
    72  H   -0.045050
    73  H    0.012417
    74  H    0.054702
    75  H    0.046943
    76  H    0.048461
    77  H   -0.004120
    78  H   -0.006676
    79  H    0.000367
    80  H    0.246834
    81  H    0.170115
 Sum of Mulliken charges =  -0.00000

 Dipole moment (field-independent basis, Debye):
    X=             -3.3205    Y=             -0.5995    Z=             -0.4725  Tot=              3.4071
 Quadrupole moment (field-independent basis, Debye-Ang):
   XX=           -250.3989   YY=           -229.6159   ZZ=           -252.6925
   XY=             23.0610   XZ=             19.6781   YZ=            -14.6211

 Normal termination of Gaussian 16 at Thu Jul  4 04:52:36 2019.
