 Gaussian 16, Revision A.03,
 Gaussian 16:  ES64L-G16RevA.03 25-Dec-2016

 --------------------------
 # td=(NStates=1) B3LYP/SVP
 --------------------------

 --
 TD
 --
 Symbolic Z-matrix:
 Charge =  0 Multiplicity = 1

                         Standard orientation:
 ---------------------------------------------------------------------
 Center     Atomic      Atomic             Coordinates (Angstroms)
 Number     Number       Type             X           Y           Z
 ---------------------------------------------------------------------
      1          8           0       -4.587356   -4.698872    1.880431
      2          8           0        2.982775   -4.995556    1.232263
      3          8           0        7.071936   -1.522478    1.915525
      4          8           0        3.673553   -3.174574    0.101904
      5          8           0        7.575132   -0.845099   -0.142045
      6          8           0       -2.904044    2.448557   -0.337592
      7          7           0       -0.379203   -0.543026   -0.664304
      8          7           0        1.595361    1.770693   -0.427153
      9          7           0       -3.480981   -2.976948    0.696266
     10          7           0       -0.709405    2.954280   -0.147233
     11          6           0        0.612789   -2.469278   -1.339223
     12          6           0        0.889017   -1.184976   -0.970674
     13          6           0       -0.843403   -2.572336   -1.165136
     14          6           0       -1.424838   -1.413572   -0.650326
     15          6           0        3.835765    1.335336   -0.416773
     16          6           0        2.471171    0.799440   -0.629791
     17          6           0        2.096008   -0.516696   -0.888714
     18          6           0        3.756155    2.614931   -0.024859
     19          6           0        1.548893   -3.462218   -1.905384
     20          6           0       -5.653646   -2.491294    1.335100
     21          6           0       -3.704808   -1.809794    0.134916
     22          6           0        2.310149    2.967069   -0.057410
     23          6           0       -5.119461   -1.477868    0.325941
     24          6           0        5.051758    0.542746   -0.466709
     25          6           0       -2.806088   -1.015207   -0.465210
     26          6           0       -1.680358   -3.751094   -1.755977
     27          6           0       -4.633319   -3.596611    1.354413
     28          6           0        1.929589   -4.563308   -0.887914
     29          6           0        5.407442   -0.270320    0.791779
     30          6           0        4.710310    3.651766    0.352399
     31          6           0        1.481745    4.063932    0.301243
     32          6           0       -7.135667   -3.027455    1.150439
     33          6           0       -5.927848   -0.524026   -0.146698
     34          6           0        0.043681    4.010371    0.096910
     35          6           0       -0.800858    5.212836    0.586162
     36          6           0       -2.160031    4.725508    0.410263
     37          6           0        2.912661   -4.094062    0.181897
     38          6           0       -5.381022    0.466732   -1.238560
     39          6           0        6.792680   -0.885233    0.755673
     40          6           0       -3.365438    5.507182    0.491941
     41          6           0       -2.023578    3.277132   -0.070087
     42          6           0       -0.367102    6.579808    0.937618
     43          6           0       -4.001689    5.950394   -0.805846
     44          1           0       -0.608501    0.325491   -0.335363
     45          1           0        2.996812   -1.161834   -0.873593
     46          1           0        2.498106   -2.901381   -2.233331
     47          1           0        1.228588   -3.883970   -2.823633
     48          1           0       -5.434541   -1.851553    2.317129
     49          1           0        4.980564   -0.040523   -1.418684
     50          1           0        5.934312    1.210198   -0.742469
     51          1           0       -2.952278   -0.041589   -0.658083
     52          1           0        0.443850    1.893030   -0.340369
     53          1           0       -1.577488   -4.651788   -1.330473
     54          1           0       -2.875131   -3.581872   -2.012494
     55          1           0       -1.254649   -3.999163   -2.830546
     56          1           0       -2.591966   -3.437916    0.610326
     57          1           0        1.113497   -5.182259   -0.149996
     58          1           0        2.559016   -5.461762   -1.307632
     59          1           0        4.602535   -1.131767    0.776057
     60          1           0        5.282999    0.431201    1.718252
     61          1           0        4.347025    4.671900   -0.152501
     62          1           0        5.801142    3.486210    0.197534
     63          1           0        4.657912    4.005017    1.494574
     64          1           0        1.964432    5.054551    0.724214
     65          1           0       -7.891694   -2.401270    1.230891
     66          1           0       -7.175060   -4.010313    1.598891
     67          1           0       -7.192515   -3.572776    0.123633
     68          1           0       -7.041837   -0.485237   -0.034596
     69          1           0       -4.506524    1.106951   -0.743059
     70          1           0       -6.090849    1.238050   -1.658600
     71          1           0       -4.784439   -0.038290   -1.914132
     72          1           0       -3.557453    6.353162    1.207453
     73          1           0       -4.239022    4.695766    0.761325
     74          1           0        0.328421    6.350662    1.799820
     75          1           0       -1.080069    7.277332    1.022311
     76          1           0        0.310732    7.031738    0.216972
     77          1           0       -3.392392    6.545574   -1.403067
     78          1           0       -4.968323    6.410759   -0.588901
     79          1           0       -4.048914    4.983604   -1.409589
     80          1           0        3.791920   -4.821218    1.910211
     81          1           0        7.821458   -2.024520    1.916202
 ---------------------------------------------------------------------

 SCF Done:  E(RB3LYP) =  -1949.11257702     A.U. after   17 cycles

 Excitation energies and oscillator strengths:

 Excited State   1:      Singlet-A      1.8139 eV  683.53 nm  f=0.3475  <S**2>=0.000
     156 ->157         0.70846
     156 <-157        -0.12627
 This state for optimization and/or second-order correction.
 Total Energy, E(TD-HF/TD-DFT) =  -1949.04591777
 Copying the excited state density for this state as the 1-particle RhoCI density.

 The electronic state is 1-A.
 Alpha  occ. eigenvalues --  -19.18894 -19.17056 -19.14378 -19.12959 -19.12559
 Alpha  occ. eigenvalues --  -19.10388 -14.36917 -14.36189 -14.34877 -14.30089
 Alpha  occ. eigenvalues --  -10.33439 -10.32015 -10.30798 -10.27235 -10.24230
 Alpha  occ. eigenvalues --  -10.24161 -10.23966 -10.23854 -10.23029 -10.22829
 Alpha  occ. eigenvalues --  -10.22656 -10.22179 -10.21816 -10.21580 -10.21564
 Alpha  occ. eigenvalues --  -10.20787 -10.20526 -10.20346 -10.20304 -10.20076
 Alpha  occ. eigenvalues --  -10.20054 -10.20052 -10.19923 -10.19797 -10.19673
 Alpha  occ. eigenvalues --  -10.19465 -10.19430 -10.19197 -10.19147 -10.19033
 Alpha  occ. eigenvalues --  -10.17316 -10.17228 -10.17120  -1.10221  -1.09395
 Alpha  occ. eigenvalues --   -1.04087  -1.01436  -1.01145  -1.00731  -0.97616
 Alpha  occ. eigenvalues --   -0.96893  -0.96337  -0.92397  -0.82783  -0.82301
 Alpha  occ. eigenvalues --   -0.81676  -0.80519  -0.79844  -0.78838  -0.77211
 Alpha  occ. eigenvalues --   -0.76830  -0.76533  -0.75518  -0.73635  -0.71923
 Alpha  occ. eigenvalues --   -0.71054  -0.69758  -0.69262  -0.68844  -0.67868
 Alpha  occ. eigenvalues --   -0.67566  -0.65804  -0.64572  -0.62684  -0.61752
 Alpha  occ. eigenvalues --   -0.60327  -0.60050  -0.58924  -0.58076  -0.56399
 Alpha  occ. eigenvalues --   -0.55768  -0.55482  -0.54542  -0.53830  -0.53223
 Alpha  occ. eigenvalues --   -0.52528  -0.51272  -0.50746  -0.50002  -0.49812
 Alpha  occ. eigenvalues --   -0.49077  -0.48768  -0.48436  -0.47807  -0.47515
 Alpha  occ. eigenvalues --   -0.47191  -0.47000  -0.46373  -0.45710  -0.45510
 Alpha  occ. eigenvalues --   -0.44839  -0.44389  -0.44336  -0.44265  -0.43635
 Alpha  occ. eigenvalues --   -0.43300  -0.43276  -0.43045  -0.42924  -0.42357
 Alpha  occ. eigenvalues --   -0.42141  -0.41326  -0.40811  -0.40624  -0.40524
 Alpha  occ. eigenvalues --   -0.40259  -0.40017  -0.39768  -0.39680  -0.39463
 Alpha  occ. eigenvalues --   -0.38912  -0.38821  -0.38593  -0.38215  -0.38206
 Alpha  occ. eigenvalues --   -0.38086  -0.37925  -0.37586  -0.37137  -0.36744
 Alpha  occ. eigenvalues --   -0.36396  -0.36052  -0.35818  -0.35459  -0.34660
 Alpha  occ. eigenvalues --   -0.34414  -0.33620  -0.33489  -0.33000  -0.32977
 Alpha  occ. eigenvalues --   -0.32599  -0.31605  -0.30787  -0.29895  -0.29347
 Alpha  occ. eigenvalues --   -0.28190  -0.28005  -0.27710  -0.26132  -0.25418
 Alpha  occ. eigenvalues --   -0.25258  -0.24945  -0.23949  -0.22336  -0.21621
 Alpha  occ. eigenvalues --   -0.17517
 Alpha virt. eigenvalues --   -0.10421  -0.05800  -0.03619  -0.01551  -0.01211
 Alpha virt. eigenvalues --    0.00607   0.01499   0.02214   0.03389   0.03748
 Alpha virt. eigenvalues --    0.04118   0.04666   0.05130   0.06103   0.06734

 Mulliken charges:
               1
     1  O   -0.195643
     2  O   -0.276659
     3  O   -0.158301
     4  O   -0.200096
     5  O   -0.197608
     6  O   -0.218517
     7  N   -0.090739
     8  N   -0.188305
     9  N   -0.094478
    10  N   -0.253210
    11  C   -0.065244
    12  C    0.143285
    13  C   -0.172356
    14  C    0.033661
    15  C   -0.090718
    16  C    0.064571
    17  C   -0.096528
    18  C   -0.037666
    19  C    0.157469
    20  C   -0.118188
    21  C    0.143069
    22  C    0.095937
    23  C   -0.015217
    24  C    0.053140
    25  C   -0.059568
    26  C    0.022492
    27  C    0.168578
    28  C   -0.089123
    29  C   -0.045275
    30  C    0.004178
    31  C   -0.154300
    32  C    0.117561
    33  C   -0.147969
    34  C    0.075708
    35  C   -0.140324
    36  C   -0.137335
    37  C    0.147814
    38  C   -0.003390
    39  C    0.133689
    40  C   -0.037657
    41  C    0.166656
    42  C    0.161031
    43  C    0.027184
    44  H    0.092605
    45  H    0.006962
    46  H    0.028175
    47  H   -0.002404
    48  H    0.084048
    49  H    0.017485
    50  H    0.009802
    51  H   -0.070840
    52  H    0.217424
    53  H   -0.013602
    54  H    0.054934
    55  H    0.016291
    56  H    0.123493
    57  H    0.078726
    58  H    0.064760
    59  H    0.083385
    60  H    0.054108
    61  H    0.039589
    62  H    0.028822
    63  H    0.035586
    64  H    0.009058
    65  H    0.001903
    66  H    0.019012
    67  H    0.003340
    68  H    0.011281
    69  H    0.091589
    70  H    0.017692
    71  H    0.003603
    72  H    0.015011
    73  H    0.018142
    74  H    0.033658
    75  H   -0.014619
    76  H    0.013032
    77  H   -0.017686
    78  H    0.016607
    79  H    0.021194
    80  H    0.234005
    81  H    0.142220
 Sum of Mulliken charges =  -0.00000

 Dipole moment (field-independent basis, Debye):
    X=              2.4236    Y=              0.0496    Z=              1.1657  Tot=              2.6898
 Quadrupole moment (field-independent basis, Debye-Ang):
   XX=           -248.0365   YY=           -231.0221   ZZ=           -256.3519
   XY=            -14.1073   XZ=             16.3148   YZ=             11.5860

 Normal termination of Gaussian 16 at Tue Jul  2 19:34:29 2019.
