 Gaussian 16, Revision A.03,
 Gaussian 16:  ES64L-G16RevA.03 25-Dec-2016

 --------------------------
 # td=(NStates=1) B3LYP/SVP
 --------------------------

 --
 TD
 --
 Symbolic Z-matrix:
 Charge =  0 Multiplicity = 1

                         Standard orientation:
 ---------------------------------------------------------------------
 Center     Atomic      Atomic             Coordinates (Angstroms)
 Number     Number       Type             X           Y           Z
 ---------------------------------------------------------------------
      1          8           0        4.499385   -4.710826   -1.865879
      2          8           0       -2.741065   -4.887910   -1.285999
      3          8           0       -6.978933   -1.669181   -1.872098
      4          8           0       -3.586853   -3.146015   -0.099316
      5          8           0       -7.684395   -0.758613    0.059777
      6          8           0        2.975744    2.514184    0.179321
      7          7           0        0.228254   -0.490999    0.581057
      8          7           0       -1.607368    1.781530    0.470618
      9          7           0        3.402943   -3.053098   -0.675024
     10          7           0        0.691793    2.890538    0.237447
     11          6           0       -0.659252   -2.475139    1.427331
     12          6           0       -0.915964   -1.157971    0.953506
     13          6           0        0.769951   -2.533393    1.458981
     14          6           0        1.287572   -1.340955    0.812993
     15          6           0       -3.863496    1.345460    0.401457
     16          6           0       -2.544376    0.786337    0.742185
     17          6           0       -2.204718   -0.619789    0.898649
     18          6           0       -3.685475    2.642006   -0.050549
     19          6           0       -1.399986   -3.644320    1.956447
     20          6           0        5.648935   -2.437699   -1.351899
     21          6           0        3.645975   -1.747358   -0.084265
     22          6           0       -2.209561    2.885751    0.045801
     23          6           0        5.031689   -1.354425   -0.343679
     24          6           0       -5.101476    0.616828    0.457913
     25          6           0        2.680648   -1.013215    0.466284
     26          6           0        1.662764   -3.671672    1.866483
     27          6           0        4.528151   -3.623056   -1.308332
     28          6           0       -1.784915   -4.623778    0.789960
     29          6           0       -5.509152   -0.096849   -0.880374
     30          6           0       -4.869079    3.580830   -0.384737
     31          6           0       -1.405027    4.026145   -0.243426
     32          6           0        7.026396   -2.954852   -1.188400
     33          6           0        5.818508   -0.489251    0.060215
     34          6           0       -0.033709    3.990827   -0.176942
     35          6           0        0.885678    5.155275   -0.516677
     36          6           0        2.097978    4.679286   -0.336177
     37          6           0       -2.696845   -4.072374   -0.253682
     38          6           0        5.504415    0.591080    1.154274
     39          6           0       -6.809398   -0.870692   -0.801730
     40          6           0        3.453775    5.369254   -0.580001
     41          6           0        1.973244    3.295555    0.139366
     42          6           0        0.406903    6.549588   -0.781731
     43          6           0        4.052569    5.752562    0.816605
     44          1           0        0.485377    0.422924    0.051966
     45          1           0       -2.943611   -1.366830    1.022399
     46          1           0       -2.293106   -3.307626    2.580656
     47          1           0       -0.722519   -4.296607    2.600681
     48          1           0        5.599251   -1.908799   -2.386071
     49          1           0       -5.183835   -0.250276    1.350157
     50          1           0       -5.866298    1.454893    0.661442
     51          1           0        2.923025    0.061269    0.679084
     52          1           0       -0.569466    1.879960    0.922646
     53          1           0        1.765947   -4.697896    1.275588
     54          1           0        2.803729   -3.378554    1.567916
     55          1           0        1.528634   -4.087183    2.932234
     56          1           0        2.485652   -3.376856   -0.632662
     57          1           0       -0.743497   -4.825464    0.400147
     58          1           0       -2.370508   -5.505672    1.159262
     59          1           0       -4.661050   -0.908056   -1.073258
     60          1           0       -5.435268    0.487492   -1.782189
     61          1           0       -4.541680    4.715855   -0.167532
     62          1           0       -5.880466    3.268752    0.097788
     63          1           0       -5.230018    3.739837   -1.645096
     64          1           0       -2.017518    4.785853   -0.749792
     65          1           0        7.792990   -2.232183   -1.322655
     66          1           0        7.229547   -3.709661   -2.095723
     67          1           0        7.140465   -3.410794   -0.187673
     68          1           0        6.781001   -0.610256   -0.394721
     69          1           0        5.264368    1.599983    0.720114
     70          1           0        6.449138    0.984809    1.596903
     71          1           0        5.057346    0.074503    2.116068
     72          1           0        3.381555    6.322441   -1.284689
     73          1           0        4.140634    4.861294   -0.968845
     74          1           0       -0.389367    6.328162   -1.618986
     75          1           0        1.302697    7.061486   -1.173964
     76          1           0       -0.087322    7.297389   -0.049002
     77          1           0        3.249071    6.410517    1.324674
     78          1           0        5.160517    6.164347    0.433193
     79          1           0        3.914446    4.891911    1.489423
     80          1           0       -3.317740   -4.724705   -1.880860
     81          1           0       -7.778867   -2.085150   -1.788832
 ---------------------------------------------------------------------

 SCF Done:  E(RB3LYP) =  -1949.06141866     A.U. after   23 cycles

 Excitation energies and oscillator strengths:

 Excited State   1:      Singlet-A      2.0622 eV  601.22 nm  f=0.4072  <S**2>=0.000
     156 ->157         0.70676
     156 <-157        -0.10841
 This state for optimization and/or second-order correction.
 Total Energy, E(TD-HF/TD-DFT) =  -1948.98563373
 Copying the excited state density for this state as the 1-particle RhoCI density.

 The electronic state is 1-A.
 Alpha  occ. eigenvalues --  -19.20303 -19.18056 -19.14372 -19.12503 -19.11622
 Alpha  occ. eigenvalues --  -19.08473 -14.39181 -14.36820 -14.36525 -14.29117
 Alpha  occ. eigenvalues --  -10.35017 -10.32385 -10.30106 -10.25150 -10.24559
 Alpha  occ. eigenvalues --  -10.24546 -10.24483 -10.24051 -10.23644 -10.23586
 Alpha  occ. eigenvalues --  -10.23354 -10.22681 -10.22581 -10.21869 -10.21687
 Alpha  occ. eigenvalues --  -10.21658 -10.21619 -10.21473 -10.21171 -10.21044
 Alpha  occ. eigenvalues --  -10.20666 -10.20496 -10.20298 -10.19305 -10.19246
 Alpha  occ. eigenvalues --  -10.19227 -10.19205 -10.18983 -10.18919 -10.18532
 Alpha  occ. eigenvalues --  -10.18333 -10.17857 -10.17850  -1.14129  -1.10552
 Alpha  occ. eigenvalues --   -1.02845  -0.99950  -0.99799  -0.98993  -0.98465
 Alpha  occ. eigenvalues --   -0.97791  -0.93862  -0.90940  -0.83505  -0.82602
 Alpha  occ. eigenvalues --   -0.82469  -0.80775  -0.79685  -0.79051  -0.78228
 Alpha  occ. eigenvalues --   -0.76638  -0.76513  -0.74845  -0.74253  -0.72873
 Alpha  occ. eigenvalues --   -0.71529  -0.69977  -0.68976  -0.68496  -0.67838
 Alpha  occ. eigenvalues --   -0.66893  -0.65376  -0.65347  -0.64376  -0.61576
 Alpha  occ. eigenvalues --   -0.61125  -0.59906  -0.58566  -0.57841  -0.57057
 Alpha  occ. eigenvalues --   -0.56173  -0.55226  -0.54588  -0.53463  -0.52769
 Alpha  occ. eigenvalues --   -0.52002  -0.51914  -0.51113  -0.50822  -0.50002
 Alpha  occ. eigenvalues --   -0.49829  -0.49180  -0.48916  -0.48158  -0.47940
 Alpha  occ. eigenvalues --   -0.47470  -0.46483  -0.45950  -0.45762  -0.44999
 Alpha  occ. eigenvalues --   -0.44356  -0.44077  -0.43866  -0.43716  -0.43525
 Alpha  occ. eigenvalues --   -0.43073  -0.42896  -0.42648  -0.42126  -0.42012
 Alpha  occ. eigenvalues --   -0.41586  -0.41338  -0.40865  -0.40720  -0.40607
 Alpha  occ. eigenvalues --   -0.40394  -0.40176  -0.39667  -0.39366  -0.39017
 Alpha  occ. eigenvalues --   -0.38968  -0.38797  -0.38653  -0.38126  -0.38027
 Alpha  occ. eigenvalues --   -0.37766  -0.37454  -0.37211  -0.36932  -0.36699
 Alpha  occ. eigenvalues --   -0.36585  -0.36444  -0.35538  -0.35090  -0.33753
 Alpha  occ. eigenvalues --   -0.33466  -0.33217  -0.33008  -0.32808  -0.32232
 Alpha  occ. eigenvalues --   -0.32154  -0.31634  -0.31517  -0.29496  -0.29123
 Alpha  occ. eigenvalues --   -0.28029  -0.27718  -0.27433  -0.26009  -0.25807
 Alpha  occ. eigenvalues --   -0.25581  -0.25039  -0.24079  -0.22864  -0.22064
 Alpha  occ. eigenvalues --   -0.18455
 Alpha virt. eigenvalues --   -0.10263  -0.05470  -0.04175  -0.03240  -0.00452
 Alpha virt. eigenvalues --   -0.00271   0.01366   0.02365   0.02637   0.03553
 Alpha virt. eigenvalues --    0.04156   0.04704   0.05309   0.06285   0.06506

 Mulliken charges:
               1
     1  O   -0.211945
     2  O   -0.056497
     3  O   -0.134848
     4  O   -0.300159
     5  O   -0.248789
     6  O   -0.282632
     7  N   -0.092416
     8  N   -0.124126
     9  N   -0.138852
    10  N   -0.294055
    11  C   -0.090801
    12  C    0.052522
    13  C   -0.100347
    14  C    0.024736
    15  C   -0.063691
    16  C    0.071372
    17  C   -0.008198
    18  C   -0.054373
    19  C    0.099402
    20  C   -0.157605
    21  C    0.113896
    22  C    0.020917
    23  C    0.072234
    24  C    0.013293
    25  C   -0.130846
    26  C   -0.080091
    27  C    0.183727
    28  C   -0.009827
    29  C   -0.037426
    30  C   -0.065279
    31  C   -0.126313
    32  C    0.047859
    33  C   -0.159541
    34  C    0.120090
    35  C   -0.070955
    36  C   -0.162290
    37  C    0.152903
    38  C    0.053025
    39  C    0.150858
    40  C    0.173173
    41  C    0.136172
    42  C    0.035037
    43  C   -0.054334
    44  H    0.193174
    45  H   -0.017873
    46  H    0.031863
    47  H    0.019904
    48  H    0.057021
    49  H    0.057187
    50  H    0.027435
    51  H    0.054894
    52  H    0.211737
    53  H    0.033588
    54  H    0.053017
    55  H    0.045427
    56  H    0.105166
    57  H    0.054548
    58  H    0.067132
    59  H    0.064143
    60  H    0.034946
    61  H    0.048287
    62  H    0.057780
    63  H    0.039299
    64  H   -0.023879
    65  H    0.010248
    66  H    0.047218
    67  H    0.020751
    68  H   -0.031389
    69  H    0.067050
    70  H   -0.018070
    71  H    0.051039
    72  H    0.003988
    73  H   -0.070024
    74  H    0.031521
    75  H    0.013138
    76  H    0.056875
    77  H    0.008375
    78  H    0.046789
    79  H    0.027193
    80  H    0.113873
    81  H    0.141644
 Sum of Mulliken charges =  -0.00000

 Dipole moment (field-independent basis, Debye):
    X=             -2.2458    Y=             -1.2643    Z=             -0.8770  Tot=              2.7223
 Quadrupole moment (field-independent basis, Debye-Ang):
   XX=           -258.5102   YY=           -240.8729   ZZ=           -253.9783
   XY=             15.8975   XZ=             16.1100   YZ=            -12.1867

 Normal termination of Gaussian 16 at Sat Jun 29 02:23:53 2019.
