 Gaussian 16, Revision A.03,
 Gaussian 16:  ES64L-G16RevA.03 25-Dec-2016

 --------------------------
 # td=(NStates=1) B3LYP/SVP
 --------------------------

 --
 TD
 --
 Symbolic Z-matrix:
 Charge =  0 Multiplicity = 1

                         Standard orientation:
 ---------------------------------------------------------------------
 Center     Atomic      Atomic             Coordinates (Angstroms)
 Number     Number       Type             X           Y           Z
 ---------------------------------------------------------------------
      1          8           0       -4.314752   -4.814330    1.898518
      2          8           0        2.903253   -4.722474    1.305283
      3          8           0        7.129208   -1.543857    1.753077
      4          8           0        3.713914   -2.939607    0.212523
      5          8           0        7.658610   -0.574873   -0.195895
      6          8           0       -3.078474    2.538676   -0.354741
      7          7           0       -0.292029   -0.599131   -0.633010
      8          7           0        1.561887    1.829499   -0.493449
      9          7           0       -3.391137   -3.099277    0.581606
     10          7           0       -0.733822    3.014755   -0.189375
     11          6           0        0.628313   -2.491560   -1.289651
     12          6           0        0.955079   -1.092829   -0.970141
     13          6           0       -0.769209   -2.755414   -1.160385
     14          6           0       -1.332953   -1.530645   -0.684222
     15          6           0        3.807509    1.474279   -0.370863
     16          6           0        2.576342    0.833217   -0.604792
     17          6           0        2.282376   -0.578878   -0.878406
     18          6           0        3.614308    2.802335   -0.018537
     19          6           0        1.743344   -3.491243   -1.811160
     20          6           0       -5.556068   -2.696759    1.284630
     21          6           0       -3.749436   -1.839416   -0.034287
     22          6           0        2.076212    2.960748   -0.058729
     23          6           0       -5.127470   -1.521074    0.349037
     24          6           0        5.101465    0.761716   -0.462662
     25          6           0       -2.644804   -1.163516   -0.494419
     26          6           0       -1.519363   -3.993367   -1.651409
     27          6           0       -4.386031   -3.705714    1.290488
     28          6           0        2.193431   -4.474326   -0.881338
     29          6           0        5.576595   -0.008786    0.822249
     30          6           0        4.575715    3.832639    0.483717
     31          6           0        1.293971    4.130405    0.166897
     32          6           0       -6.933962   -3.383279    1.044319
     33          6           0       -5.926659   -0.597853   -0.187423
     34          6           0       -0.116568    4.019434    0.145410
     35          6           0       -1.029211    5.086418    0.534956
     36          6           0       -2.269601    4.747804    0.324238
     37          6           0        3.072408   -3.916814    0.221975
     38          6           0       -5.538541    0.341363   -1.157055
     39          6           0        6.847151   -0.690264    0.759792
     40          6           0       -3.684360    5.344976    0.582490
     41          6           0       -2.183226    3.252567   -0.124176
     42          6           0       -0.660167    6.562217    0.833816
     43          6           0       -4.390408    5.739196   -0.706429
     44          1           0       -0.464372    0.273175   -0.108613
     45          1           0        3.059797   -1.275965   -0.942816
     46          1           0        2.621047   -3.086347   -2.312940
     47          1           0        1.151642   -3.864839   -2.639058
     48          1           0       -5.564472   -2.436317    2.174509
     49          1           0        5.184942    0.025248   -1.259698
     50          1           0        5.876849    1.499707   -0.808838
     51          1           0       -2.877303   -0.103602   -0.783956
     52          1           0        0.486570    1.700010   -0.255667
     53          1           0       -1.801786   -4.938929   -1.073248
     54          1           0       -2.525791   -3.696660   -2.152072
     55          1           0       -0.857382   -4.378147   -2.439215
     56          1           0       -2.315532   -3.461430    0.436698
     57          1           0        1.479791   -5.047320   -0.095481
     58          1           0        2.951867   -5.275494   -1.402969
     59          1           0        4.885277   -0.866720    0.966832
     60          1           0        5.259636    0.573798    1.730615
     61          1           0        4.160354    4.789786   -0.101943
     62          1           0        5.709923    3.738388    0.309250
     63          1           0        4.406930    4.048344    1.511672
     64          1           0        1.745649    5.069109    0.360133
     65          1           0       -7.623194   -2.656488    1.542624
     66          1           0       -6.658381   -4.401671    1.555478
     67          1           0       -6.911618   -3.551341   -0.088360
     68          1           0       -6.835745   -0.612472    0.226214
     69          1           0       -5.326996    1.429560   -0.734795
     70          1           0       -6.401789    0.642489   -1.674505
     71          1           0       -4.669244    0.120715   -1.635953
     72          1           0       -3.548475    6.125039    1.203378
     73          1           0       -4.218695    4.674971    1.276156
     74          1           0        0.274261    6.431366    1.697343
     75          1           0       -1.622949    7.206578    1.293830
     76          1           0       -0.170660    7.031532    0.054593
     77          1           0       -3.782259    6.574532   -1.338389
     78          1           0       -5.275430    6.154123   -0.421717
     79          1           0       -4.493407    4.765065   -1.286220
     80          1           0        3.460079   -4.369961    2.285435
     81          1           0        7.965414   -2.164529    1.333593
 ---------------------------------------------------------------------

 SCF Done:  E(RB3LYP) =  -1949.03056277     A.U. after   16 cycles

 Excitation energies and oscillator strengths:

 Excited State   1:      Singlet-A      1.9037 eV  651.27 nm  f=0.4480  <S**2>=0.000
     156 ->157         0.70726
     156 <-157        -0.12302
 This state for optimization and/or second-order correction.
 Total Energy, E(TD-HF/TD-DFT) =  -1948.96060241
 Copying the excited state density for this state as the 1-particle RhoCI density.

 The electronic state is 1-A.
 Alpha  occ. eigenvalues --  -19.19671 -19.18895 -19.14555 -19.13059 -19.11481
 Alpha  occ. eigenvalues --  -19.10062 -14.38434 -14.37036 -14.36079 -14.28904
 Alpha  occ. eigenvalues --  -10.32806 -10.31798 -10.28548 -10.27886 -10.24598
 Alpha  occ. eigenvalues --  -10.24305 -10.23900 -10.23880 -10.23569 -10.22700
 Alpha  occ. eigenvalues --  -10.21962 -10.21588 -10.21475 -10.21344 -10.21041
 Alpha  occ. eigenvalues --  -10.21037 -10.20978 -10.20944 -10.20802 -10.20774
 Alpha  occ. eigenvalues --  -10.20125 -10.19919 -10.19897 -10.19737 -10.19298
 Alpha  occ. eigenvalues --  -10.19046 -10.18827 -10.18817 -10.18803 -10.18703
 Alpha  occ. eigenvalues --  -10.18185 -10.17954 -10.17617  -1.10625  -1.07962
 Alpha  occ. eigenvalues --   -1.05854  -1.01543  -1.00192  -0.98207  -0.97481
 Alpha  occ. eigenvalues --   -0.97210  -0.94741  -0.93167  -0.82605  -0.82437
 Alpha  occ. eigenvalues --   -0.82170  -0.81049  -0.80042  -0.78555  -0.78111
 Alpha  occ. eigenvalues --   -0.77468  -0.77020  -0.75383  -0.74925  -0.72535
 Alpha  occ. eigenvalues --   -0.71013  -0.70315  -0.68329  -0.68221  -0.67498
 Alpha  occ. eigenvalues --   -0.67101  -0.64918  -0.64763  -0.62674  -0.61469
 Alpha  occ. eigenvalues --   -0.59440  -0.59012  -0.58103  -0.57774  -0.56734
 Alpha  occ. eigenvalues --   -0.56024  -0.55147  -0.55081  -0.53765  -0.53282
 Alpha  occ. eigenvalues --   -0.52957  -0.52312  -0.50786  -0.50410  -0.49849
 Alpha  occ. eigenvalues --   -0.49410  -0.49188  -0.48631  -0.47725  -0.47336
 Alpha  occ. eigenvalues --   -0.47182  -0.47074  -0.46409  -0.46017  -0.45324
 Alpha  occ. eigenvalues --   -0.45027  -0.44778  -0.44439  -0.44139  -0.44000
 Alpha  occ. eigenvalues --   -0.43553  -0.43064  -0.42853  -0.42683  -0.42500
 Alpha  occ. eigenvalues --   -0.41878  -0.41664  -0.41551  -0.41094  -0.40865
 Alpha  occ. eigenvalues --   -0.40733  -0.40475  -0.40242  -0.40017  -0.39583
 Alpha  occ. eigenvalues --   -0.39386  -0.39037  -0.38871  -0.38759  -0.38304
 Alpha  occ. eigenvalues --   -0.38058  -0.37905  -0.37201  -0.37135  -0.36937
 Alpha  occ. eigenvalues --   -0.36801  -0.36085  -0.35579  -0.35162  -0.35038
 Alpha  occ. eigenvalues --   -0.34848  -0.34403  -0.34172  -0.33598  -0.33522
 Alpha  occ. eigenvalues --   -0.33156  -0.32748  -0.30840  -0.29983  -0.29180
 Alpha  occ. eigenvalues --   -0.28405  -0.27088  -0.26600  -0.25825  -0.25563
 Alpha  occ. eigenvalues --   -0.25068  -0.24973  -0.24481  -0.23746  -0.21645
 Alpha  occ. eigenvalues --   -0.17411
 Alpha virt. eigenvalues --   -0.10049  -0.05898  -0.04200  -0.02297  -0.00869
 Alpha virt. eigenvalues --    0.00057   0.01060   0.01511   0.02606   0.03513
 Alpha virt. eigenvalues --    0.03804   0.03914   0.04592   0.05093   0.05520

 Mulliken charges:
               1
     1  O   -0.279888
     2  O   -0.301157
     3  O   -0.249101
     4  O   -0.166754
     5  O   -0.290320
     6  O   -0.133253
     7  N   -0.101909
     8  N   -0.112868
     9  N   -0.208701
    10  N   -0.269314
    11  C   -0.178221
    12  C    0.106140
    13  C   -0.119374
    14  C    0.093991
    15  C   -0.087247
    16  C    0.075891
    17  C   -0.014649
    18  C   -0.111719
    19  C    0.150421
    20  C    0.019284
    21  C    0.084367
    22  C    0.049653
    23  C    0.004200
    24  C    0.096745
    25  C   -0.157740
    26  C    0.017469
    27  C    0.147168
    28  C   -0.071304
    29  C   -0.008712
    30  C    0.050373
    31  C   -0.108571
    32  C   -0.003370
    33  C   -0.093915
    34  C    0.069728
    35  C   -0.107362
    36  C   -0.211151
    37  C    0.129795
    38  C    0.169840
    39  C    0.174657
    40  C    0.150718
    41  C    0.150649
    42  C    0.014283
    43  C    0.009293
    44  H    0.135062
    45  H   -0.017364
    46  H    0.012392
    47  H    0.005077
    48  H   -0.051071
    49  H    0.002192
    50  H    0.018048
    51  H    0.027735
    52  H    0.180357
    53  H    0.057402
    54  H    0.044644
    55  H    0.007603
    56  H    0.188177
    57  H    0.076254
    58  H    0.062354
    59  H    0.039632
    60  H    0.040085
    61  H    0.038716
    62  H    0.045349
    63  H    0.026131
    64  H   -0.052526
    65  H    0.041954
    66  H    0.063184
    67  H    0.032521
    68  H   -0.073149
    69  H    0.055594
    70  H   -0.010552
    71  H    0.002720
    72  H   -0.064745
    73  H    0.008238
    74  H    0.024216
    75  H    0.055382
    76  H    0.022074
    77  H    0.030228
    78  H   -0.005733
    79  H    0.042966
    80  H    0.263276
    81  H    0.247511
 Sum of Mulliken charges =  -0.00000

 Dipole moment (field-independent basis, Debye):
    X=              1.1753    Y=              1.2229    Z=              0.8401  Tot=              1.8927
 Quadrupole moment (field-independent basis, Debye-Ang):
   XX=           -256.9625   YY=           -246.7544   ZZ=           -255.1383
   XY=            -29.7220   XZ=             16.5782   YZ=             14.7382

 Normal termination of Gaussian 16 at Sun Jun 30 05:53:57 2019.
