 Gaussian 16, Revision A.03,
 Gaussian 16:  ES64L-G16RevA.03 25-Dec-2016

 --------------------------
 # td=(NStates=1) B3LYP/SVP
 --------------------------

 --
 TD
 --
 Symbolic Z-matrix:
 Charge =  0 Multiplicity = 1

                         Standard orientation:
 ---------------------------------------------------------------------
 Center     Atomic      Atomic             Coordinates (Angstroms)
 Number     Number       Type             X           Y           Z
 ---------------------------------------------------------------------
      1          8           0       -4.458835   -4.823585    1.912239
      2          8           0        3.373832   -4.655221    1.400324
      3          8           0        7.242048   -1.283427    1.769333
      4          8           0        3.967636   -2.952433    0.038415
      5          8           0        7.639695   -0.437813   -0.292574
      6          8           0       -3.144305    2.293208   -0.257786
      7          7           0       -0.295217   -0.555266   -0.572562
      8          7           0        1.444394    1.894007   -0.376775
      9          7           0       -3.344244   -3.226086    0.571204
     10          7           0       -0.914702    2.785025   -0.004281
     11          6           0        0.806872   -2.415245   -1.232338
     12          6           0        0.974590   -1.047309   -0.866948
     13          6           0       -0.567805   -2.655947   -1.157173
     14          6           0       -1.237283   -1.521182   -0.703865
     15          6           0        3.684451    1.597179   -0.336758
     16          6           0        2.437977    0.944221   -0.568136
     17          6           0        2.251522   -0.367744   -0.945167
     18          6           0        3.479309    2.912352   -0.039674
     19          6           0        1.806695   -3.461365   -1.898845
     20          6           0       -5.624386   -2.588328    1.305211
     21          6           0       -3.608899   -1.926171    0.076399
     22          6           0        1.983227    3.126083    0.004862
     23          6           0       -5.057828   -1.665209    0.265099
     24          6           0        4.965255    0.840170   -0.419551
     25          6           0       -2.656782   -1.233460   -0.549072
     26          6           0       -1.282554   -3.916755   -1.677539
     27          6           0       -4.382705   -3.696601    1.370168
     28          6           0        2.236705   -4.456237   -0.806775
     29          6           0        5.455164    0.065739    0.807450
     30          6           0        4.493938    3.910579    0.448233
     31          6           0        1.165019    4.132839    0.203587
     32          6           0       -6.943247   -3.277177    1.040453
     33          6           0       -5.807846   -0.725656   -0.236053
     34          6           0       -0.218115    3.962066    0.251434
     35          6           0       -1.177641    5.071013    0.466779
     36          6           0       -2.437500    4.551859    0.397115
     37          6           0        3.260436   -3.988992    0.245471
     38          6           0       -5.441783    0.257188   -1.300425
     39          6           0        6.890847   -0.529960    0.652382
     40          6           0       -3.817429    5.191723    0.515522
     41          6           0       -2.276270    3.091874    0.032206
     42          6           0       -0.717287    6.509279    0.738964
     43          6           0       -4.562539    5.404004   -0.841598
     44          1           0       -0.498891    0.359726   -0.351645
     45          1           0        3.075957   -1.210863   -1.043394
     46          1           0        2.771299   -2.858754   -2.149371
     47          1           0        1.355170   -3.853483   -2.727930
     48          1           0       -5.497004   -2.242884    2.351566
     49          1           0        4.832954    0.028247   -1.163949
     50          1           0        5.870455    1.533936   -0.764284
     51          1           0       -2.878306   -0.182102   -0.607560
     52          1           0        0.535099    1.974443   -0.578681
     53          1           0       -1.551245   -4.612939   -0.751333
     54          1           0       -2.218648   -3.753909   -2.209007
     55          1           0       -0.619696   -4.443100   -2.391778
     56          1           0       -2.434126   -3.637523    0.701666
     57          1           0        1.249712   -4.888453   -0.335064
     58          1           0        2.717815   -5.376773   -1.395260
     59          1           0        4.974218   -0.814172    0.721786
     60          1           0        5.438036    0.576977    1.821892
     61          1           0        4.140120    5.030228    0.166437
     62          1           0        5.497347    3.521469   -0.018861
     63          1           0        4.597295    3.830798    1.620350
     64          1           0        1.543149    5.069541    0.857445
     65          1           0       -7.834752   -2.588955    0.955182
     66          1           0       -7.020764   -4.140134    1.814485
     67          1           0       -6.881089   -3.575121   -0.048189
     68          1           0       -6.752789   -0.949585    0.268986
     69          1           0       -5.093816    1.177829   -1.144818
     70          1           0       -6.359246    0.644005   -1.905181
     71          1           0       -4.893371   -0.207146   -1.930873
     72          1           0       -3.579172    6.040596    1.205995
     73          1           0       -4.410135    4.524316    1.129784
     74          1           0        0.071486    6.444481    1.643953
     75          1           0       -1.699566    6.973423    0.809743
     76          1           0       -0.228491    6.877108   -0.134829
     77          1           0       -3.952868    6.303960   -1.161652
     78          1           0       -5.492653    5.887633   -0.673462
     79          1           0       -4.576214    4.646960   -1.398155
     80          1           0        3.991423   -4.381962    2.037790
     81          1           0        8.174480   -1.706396    1.446975
 ---------------------------------------------------------------------

 SCF Done:  E(RB3LYP) =  -1949.10877121     A.U. after   16 cycles

 Excitation energies and oscillator strengths:

 Excited State   1:      Singlet-A      1.9312 eV  642.02 nm  f=0.3500  <S**2>=0.000
     156 ->157         0.70777
     156 <-157        -0.11526
 This state for optimization and/or second-order correction.
 Total Energy, E(TD-HF/TD-DFT) =  -1949.03780203
 Copying the excited state density for this state as the 1-particle RhoCI density.

 The electronic state is 1-A.
 Alpha  occ. eigenvalues --  -19.20594 -19.18299 -19.14357 -19.13237 -19.10974
 Alpha  occ. eigenvalues --  -19.10826 -14.37315 -14.37123 -14.35192 -14.28842
 Alpha  occ. eigenvalues --  -10.35566 -10.32198 -10.29220 -10.26423 -10.24343
 Alpha  occ. eigenvalues --  -10.24054 -10.24026 -10.23398 -10.23143 -10.23123
 Alpha  occ. eigenvalues --  -10.23009 -10.22200 -10.21975 -10.21901 -10.20925
 Alpha  occ. eigenvalues --  -10.20620 -10.20618 -10.20530 -10.20480 -10.20432
 Alpha  occ. eigenvalues --  -10.20271 -10.19967 -10.19755 -10.19560 -10.19305
 Alpha  occ. eigenvalues --  -10.19248 -10.19157 -10.18976 -10.18970 -10.18848
 Alpha  occ. eigenvalues --  -10.18350 -10.17147 -10.16239  -1.11486  -1.08051
 Alpha  occ. eigenvalues --   -1.01930  -1.01179  -1.00410  -0.99315  -0.98852
 Alpha  occ. eigenvalues --   -0.97876  -0.94338  -0.90763  -0.83195  -0.82708
 Alpha  occ. eigenvalues --   -0.81963  -0.81096  -0.79413  -0.78998  -0.77874
 Alpha  occ. eigenvalues --   -0.77763  -0.76643  -0.75485  -0.74867  -0.72588
 Alpha  occ. eigenvalues --   -0.70687  -0.70218  -0.69767  -0.69377  -0.67673
 Alpha  occ. eigenvalues --   -0.67468  -0.65957  -0.65405  -0.63465  -0.62942
 Alpha  occ. eigenvalues --   -0.61822  -0.59052  -0.58334  -0.57619  -0.57119
 Alpha  occ. eigenvalues --   -0.55822  -0.55452  -0.54799  -0.53468  -0.53013
 Alpha  occ. eigenvalues --   -0.52056  -0.51614  -0.51313  -0.50355  -0.49905
 Alpha  occ. eigenvalues --   -0.48902  -0.48656  -0.48506  -0.47838  -0.47700
 Alpha  occ. eigenvalues --   -0.47154  -0.46622  -0.46229  -0.45873  -0.45407
 Alpha  occ. eigenvalues --   -0.44881  -0.44351  -0.44116  -0.43798  -0.43740
 Alpha  occ. eigenvalues --   -0.43518  -0.43059  -0.42893  -0.42522  -0.42286
 Alpha  occ. eigenvalues --   -0.42045  -0.41878  -0.41099  -0.40899  -0.40644
 Alpha  occ. eigenvalues --   -0.40475  -0.40310  -0.40128  -0.39907  -0.39750
 Alpha  occ. eigenvalues --   -0.39617  -0.39522  -0.39280  -0.38852  -0.38545
 Alpha  occ. eigenvalues --   -0.38170  -0.37934  -0.37683  -0.37279  -0.37106
 Alpha  occ. eigenvalues --   -0.36156  -0.35929  -0.35719  -0.34781  -0.34403
 Alpha  occ. eigenvalues --   -0.34254  -0.34169  -0.33752  -0.33573  -0.33419
 Alpha  occ. eigenvalues --   -0.33050  -0.32638  -0.32196  -0.30006  -0.29535
 Alpha  occ. eigenvalues --   -0.28150  -0.27489  -0.26910  -0.26432  -0.25693
 Alpha  occ. eigenvalues --   -0.25233  -0.24369  -0.24269  -0.23411  -0.22293
 Alpha  occ. eigenvalues --   -0.18078
 Alpha virt. eigenvalues --   -0.10487  -0.05906  -0.03645  -0.03062   0.00307
 Alpha virt. eigenvalues --    0.00572   0.02224   0.02667   0.02924   0.03500
 Alpha virt. eigenvalues --    0.03757   0.04224   0.04851   0.05449   0.06169

 Mulliken charges:
               1
     1  O   -0.251865
     2  O   -0.138029
     3  O   -0.271505
     4  O   -0.280993
     5  O   -0.222564
     6  O   -0.191781
     7  N   -0.016373
     8  N   -0.056309
     9  N   -0.115329
    10  N   -0.334709
    11  C   -0.139283
    12  C    0.010438
    13  C   -0.172791
    14  C    0.043686
    15  C   -0.022253
    16  C    0.156075
    17  C   -0.126413
    18  C   -0.116946
    19  C    0.147990
    20  C   -0.075806
    21  C    0.118835
    22  C    0.116926
    23  C   -0.034307
    24  C    0.003083
    25  C   -0.105951
    26  C    0.065163
    27  C    0.114334
    28  C   -0.062076
    29  C    0.089146
    30  C   -0.002909
    31  C   -0.167651
    32  C    0.016156
    33  C   -0.087806
    34  C    0.062998
    35  C   -0.148097
    36  C   -0.205521
    37  C    0.188525
    38  C    0.207750
    39  C    0.123053
    40  C    0.048698
    41  C    0.150185
    42  C    0.128438
    43  C    0.134819
    44  H    0.094068
    45  H    0.075661
    46  H    0.028465
    47  H   -0.002026
    48  H    0.041333
    49  H    0.020128
    50  H    0.041571
    51  H    0.006365
    52  H    0.069946
    53  H    0.025104
    54  H    0.031497
    55  H    0.004423
    56  H    0.134641
    57  H    0.060004
    58  H    0.064348
    59  H   -0.001493
    60  H    0.050123
    61  H    0.051558
    62  H    0.039901
    63  H    0.051919
    64  H    0.019521
    65  H    0.032210
    66  H    0.063687
    67  H    0.016322
    68  H   -0.031428
    69  H    0.007253
    70  H   -0.009995
    71  H   -0.032036
    72  H    0.002189
    73  H   -0.001083
    74  H    0.053235
    75  H    0.012325
    76  H    0.019252
    77  H    0.001296
    78  H    0.001203
    79  H   -0.020936
    80  H    0.182585
    81  H    0.217833
 Sum of Mulliken charges =  -0.00000

 Dipole moment (field-independent basis, Debye):
    X=              3.0130    Y=              0.8331    Z=              0.5047  Tot=              3.1665
 Quadrupole moment (field-independent basis, Debye-Ang):
   XX=           -257.6375   YY=           -239.1569   ZZ=           -254.1652
   XY=            -25.9269   XZ=             18.4827   YZ=             13.0809

 Normal termination of Gaussian 16 at Sun Jun 30 14:13:29 2019.
