 Gaussian 16, Revision A.03,
 Gaussian 16:  ES64L-G16RevA.03 25-Dec-2016

 --------------------------
 # td=(NStates=1) B3LYP/SVP
 --------------------------

 --
 TD
 --
 Symbolic Z-matrix:
 Charge =  0 Multiplicity = 1

                         Standard orientation:
 ---------------------------------------------------------------------
 Center     Atomic      Atomic             Coordinates (Angstroms)
 Number     Number       Type             X           Y           Z
 ---------------------------------------------------------------------
      1          8           0        4.622152   -4.833927   -1.702314
      2          8           0       -2.878769   -4.716241   -1.133882
      3          8           0       -7.049668   -1.586308   -1.876737
      4          8           0       -3.896590   -3.049311    0.080530
      5          8           0       -7.624769   -0.728075    0.150386
      6          8           0        3.138901    2.474398    0.124317
      7          7           0        0.257138   -0.514105    0.502748
      8          7           0       -1.538212    1.766210    0.468732
      9          7           0        3.460449   -3.129856   -0.635504
     10          7           0        0.751007    2.907346    0.085466
     11          6           0       -0.669315   -2.401445    1.253687
     12          6           0       -0.889733   -1.107333    0.850727
     13          6           0        0.697730   -2.649979    1.122000
     14          6           0        1.289084   -1.426863    0.577190
     15          6           0       -3.750734    1.414955    0.310737
     16          6           0       -2.471980    0.773608    0.497066
     17          6           0       -2.201493   -0.473393    0.836747
     18          6           0       -3.550669    2.777505   -0.011104
     19          6           0       -1.619761   -3.369460    1.949781
     20          6           0        5.635770   -2.579477   -1.332046
     21          6           0        3.704795   -1.862877   -0.059640
     22          6           0       -2.106315    3.000293    0.087572
     23          6           0        5.135172   -1.513241   -0.413582
     24          6           0       -5.093185    0.677396    0.326413
     25          6           0        2.686952   -1.104426    0.392768
     26          6           0        1.457714   -3.819761    1.547175
     27          6           0        4.602830   -3.690385   -1.304567
     28          6           0       -2.054132   -4.537663    1.025159
     29          6           0       -5.437332   -0.237711   -0.888170
     30          6           0       -4.634513    3.841430   -0.351041
     31          6           0       -1.331555    4.139028   -0.284036
     32          6           0        6.965341   -3.291281   -1.039638
     33          6           0        5.789744   -0.487216    0.186934
     34          6           0        0.115570    3.971522   -0.198988
     35          6           0        0.985640    5.168080   -0.426593
     36          6           0        2.300837    4.719052   -0.383337
     37          6           0       -3.120442   -3.992776   -0.057985
     38          6           0        5.312088    0.502400    1.180936
     39          6           0       -6.854050   -0.835004   -0.841673
     40          6           0        3.599472    5.357004   -0.454627
     41          6           0        2.223342    3.243790   -0.006413
     42          6           0        0.437769    6.479198   -0.830458
     43          6           0        4.066912    5.789869    1.015727
     44          1           0        0.299750    0.463677   -0.159683
     45          1           0       -3.229116   -1.249775    1.039062
     46          1           0       -2.626949   -2.885545    2.379272
     47          1           0       -0.974591   -3.989298    2.811589
     48          1           0        5.617548   -2.167423   -2.206683
     49          1           0       -5.127814    0.022580    1.297329
     50          1           0       -5.884057    1.446390    0.486430
     51          1           0        3.032881   -0.080433    0.488501
     52          1           0       -0.402308    1.726882    0.450046
     53          1           0        1.644583   -4.278967    0.749262
     54          1           0        2.396031   -3.701622    2.071926
     55          1           0        0.957888   -4.496171    2.267552
     56          1           0        2.755040   -3.743757   -0.489157
     57          1           0       -1.046911   -5.037766    0.621013
     58          1           0       -2.610983   -5.169812    1.636677
     59          1           0       -4.857193   -1.126093   -0.888296
     60          1           0       -5.371539    0.198293   -1.923480
     61          1           0       -4.702664    4.559029    0.361998
     62          1           0       -5.534611    3.360380   -0.225582
     63          1           0       -4.514346    4.254319   -1.406372
     64          1           0       -1.661114    5.170521   -0.451695
     65          1           0        7.933623   -2.726516   -0.955380
     66          1           0        7.220866   -4.050630   -1.789260
     67          1           0        6.862619   -3.722742   -0.019696
     68          1           0        6.880718   -0.497857    0.015195
     69          1           0        4.651960    1.232842    0.529973
     70          1           0        6.039408    1.083737    1.843494
     71          1           0        4.566927   -0.079269    1.964477
     72          1           0        3.549536    6.362900   -1.139897
     73          1           0        4.374678    4.802599   -0.939184
     74          1           0       -0.215531    6.520101   -1.701769
     75          1           0        1.239924    7.167529   -1.072924
     76          1           0       -0.065928    6.901674   -0.038844
     77          1           0        3.248997    6.426345    1.236457
     78          1           0        4.947890    6.381139    1.208063
     79          1           0        3.928639    4.954241    1.680626
     80          1           0       -3.800831   -4.561215   -1.776696
     81          1           0       -7.855070   -2.010770   -1.703179
 ---------------------------------------------------------------------

 SCF Done:  E(RB3LYP) =  -1949.10659683     A.U. after   16 cycles

 Excitation energies and oscillator strengths:

 Excited State   1:      Singlet-A      1.8321 eV  676.73 nm  f=0.2984  <S**2>=0.000
     156 ->157         0.70692
     156 <-157        -0.10163
 This state for optimization and/or second-order correction.
 Total Energy, E(TD-HF/TD-DFT) =  -1949.03926774
 Copying the excited state density for this state as the 1-particle RhoCI density.

 The electronic state is 1-A.
 Alpha  occ. eigenvalues --  -19.21911 -19.19992 -19.15591 -19.12843 -19.11870
 Alpha  occ. eigenvalues --  -19.11463 -14.38271 -14.35028 -14.34833 -14.29878
 Alpha  occ. eigenvalues --  -10.34438 -10.32036 -10.29053 -10.28474 -10.23942
 Alpha  occ. eigenvalues --  -10.23443 -10.22971 -10.22427 -10.22343 -10.21953
 Alpha  occ. eigenvalues --  -10.21935 -10.21532 -10.20966 -10.20620 -10.20608
 Alpha  occ. eigenvalues --  -10.20188 -10.20112 -10.20072 -10.20054 -10.19946
 Alpha  occ. eigenvalues --  -10.19636 -10.19618 -10.19600 -10.19156 -10.18892
 Alpha  occ. eigenvalues --  -10.18833 -10.18810 -10.18804 -10.18691 -10.18600
 Alpha  occ. eigenvalues --  -10.17907 -10.17854 -10.17640  -1.12948  -1.10997
 Alpha  occ. eigenvalues --   -1.03874  -1.03510  -1.02357  -0.98709  -0.98318
 Alpha  occ. eigenvalues --   -0.95961  -0.93813  -0.92398  -0.82047  -0.81496
 Alpha  occ. eigenvalues --   -0.80815  -0.80241  -0.79884  -0.78423  -0.77228
 Alpha  occ. eigenvalues --   -0.76429  -0.76375  -0.75335  -0.73694  -0.72518
 Alpha  occ. eigenvalues --   -0.71488  -0.69669  -0.69226  -0.67867  -0.67730
 Alpha  occ. eigenvalues --   -0.65741  -0.64607  -0.64009  -0.62874  -0.61388
 Alpha  occ. eigenvalues --   -0.60484  -0.59671  -0.58489  -0.57472  -0.56670
 Alpha  occ. eigenvalues --   -0.55709  -0.54532  -0.53774  -0.53065  -0.52417
 Alpha  occ. eigenvalues --   -0.52145  -0.51378  -0.51236  -0.50251  -0.49569
 Alpha  occ. eigenvalues --   -0.49336  -0.48801  -0.48711  -0.48165  -0.48101
 Alpha  occ. eigenvalues --   -0.47161  -0.46928  -0.46355  -0.46138  -0.45589
 Alpha  occ. eigenvalues --   -0.44704  -0.44374  -0.44063  -0.43852  -0.43679
 Alpha  occ. eigenvalues --   -0.43070  -0.42949  -0.42757  -0.42424  -0.42020
 Alpha  occ. eigenvalues --   -0.41876  -0.41754  -0.41367  -0.41058  -0.40916
 Alpha  occ. eigenvalues --   -0.40663  -0.40239  -0.40127  -0.39954  -0.39675
 Alpha  occ. eigenvalues --   -0.39557  -0.39035  -0.38646  -0.38382  -0.38123
 Alpha  occ. eigenvalues --   -0.37584  -0.37209  -0.37163  -0.36910  -0.36117
 Alpha  occ. eigenvalues --   -0.36061  -0.35587  -0.35501  -0.35388  -0.35033
 Alpha  occ. eigenvalues --   -0.34509  -0.34469  -0.34194  -0.33884  -0.33801
 Alpha  occ. eigenvalues --   -0.33291  -0.31868  -0.31373  -0.30204  -0.29502
 Alpha  occ. eigenvalues --   -0.29238  -0.27177  -0.26485  -0.25687  -0.25081
 Alpha  occ. eigenvalues --   -0.24909  -0.24807  -0.24396  -0.23707  -0.21021
 Alpha  occ. eigenvalues --   -0.17094
 Alpha virt. eigenvalues --   -0.09658  -0.05709  -0.02925  -0.02144  -0.00878
 Alpha virt. eigenvalues --    0.00593   0.00745   0.02711   0.03252   0.04482
 Alpha virt. eigenvalues --    0.04782   0.04954   0.05227   0.05689   0.06190

 Mulliken charges:
               1
     1  O   -0.200002
     2  O   -0.205106
     3  O   -0.091145
     4  O   -0.231161
     5  O   -0.286383
     6  O   -0.164474
     7  N   -0.102715
     8  N   -0.192139
     9  N   -0.137140
    10  N   -0.322423
    11  C   -0.061757
    12  C    0.029078
    13  C   -0.166980
    14  C    0.074820
    15  C   -0.079124
    16  C    0.115381
    17  C   -0.165143
    18  C   -0.174581
    19  C   -0.029821
    20  C    0.114564
    21  C    0.074585
    22  C    0.139633
    23  C   -0.043347
    24  C    0.067296
    25  C   -0.091983
    26  C    0.201210
    27  C    0.098018
    28  C    0.007880
    29  C    0.031645
    30  C    0.203412
    31  C   -0.118091
    32  C    0.029420
    33  C   -0.142617
    34  C    0.038622
    35  C   -0.119123
    36  C   -0.176361
    37  C    0.163752
    38  C   -0.042086
    39  C    0.106873
    40  C    0.028819
    41  C    0.194615
    42  C    0.166108
    43  C    0.048000
    44  H    0.203508
    45  H    0.094979
    46  H    0.044152
    47  H    0.035358
    48  H   -0.018795
    49  H    0.035101
    50  H    0.014537
    51  H   -0.016743
    52  H    0.188644
    53  H   -0.049615
    54  H    0.017856
    55  H   -0.008320
    56  H    0.077064
    57  H    0.062983
    58  H    0.019112
    59  H    0.023314
    60  H    0.029036
    61  H   -0.006803
    62  H   -0.037677
    63  H    0.036857
    64  H   -0.020652
    65  H    0.012019
    66  H    0.031970
    67  H    0.014078
    68  H   -0.011276
    69  H    0.115468
    70  H    0.028159
    71  H    0.046834
    72  H    0.009091
    73  H    0.009315
    74  H    0.029424
    75  H   -0.004321
    76  H   -0.000365
    77  H   -0.015190
    78  H    0.018414
    79  H    0.014252
    80  H    0.237440
    81  H    0.150766
 Sum of Mulliken charges =  -0.00000

 Dipole moment (field-independent basis, Debye):
    X=             -2.3571    Y=              0.5265    Z=             -1.5980  Tot=              2.8960
 Quadrupole moment (field-independent basis, Debye-Ang):
   XX=           -252.1645   YY=           -229.8543   ZZ=           -253.5598
   XY=             24.0261   XZ=             21.0436   YZ=             -9.1368

 Normal termination of Gaussian 16 at Thu Jun 27 15:11:16 2019.
