 Gaussian 16, Revision A.03,
 Gaussian 16:  ES64L-G16RevA.03 25-Dec-2016

 --------------------------
 # td=(NStates=1) B3LYP/SVP
 --------------------------

 --
 TD
 --
 Symbolic Z-matrix:
 Charge =  0 Multiplicity = 1

                         Standard orientation:
 ---------------------------------------------------------------------
 Center     Atomic      Atomic             Coordinates (Angstroms)
 Number     Number       Type             X           Y           Z
 ---------------------------------------------------------------------
      1          8           0       -4.336446   -4.624009    2.162676
      2          8           0        2.999367   -4.626036    1.360691
      3          8           0        7.130189   -1.353780    1.767123
      4          8           0        3.895065   -3.044430    0.010308
      5          8           0        7.695078   -0.312669    0.026005
      6          8           0       -3.169400    2.400222   -0.308442
      7          7           0       -0.242519   -0.711447   -0.640703
      8          7           0        1.568607    1.845715   -0.497196
      9          7           0       -3.329696   -3.091103    0.704685
     10          7           0       -0.843209    2.930091   -0.228198
     11          6           0        0.713792   -2.537328   -1.426531
     12          6           0        1.022841   -1.166330   -0.948477
     13          6           0       -0.675815   -2.722203   -1.311862
     14          6           0       -1.326671   -1.562587   -0.773659
     15          6           0        3.768936    1.434631   -0.375289
     16          6           0        2.454107    0.860709   -0.671913
     17          6           0        2.236701   -0.430216   -0.978516
     18          6           0        3.520687    2.788812   -0.054734
     19          6           0        1.703815   -3.455309   -1.894743
     20          6           0       -5.580891   -2.630546    1.305635
     21          6           0       -3.646090   -1.893901   -0.029928
     22          6           0        2.074830    3.065582   -0.183930
     23          6           0       -5.017941   -1.587756    0.260392
     24          6           0        5.091076    0.794391   -0.390781
     25          6           0       -2.688972   -1.138278   -0.507741
     26          6           0       -1.314709   -4.050859   -1.582221
     27          6           0       -4.461969   -3.620084    1.481622
     28          6           0        2.232022   -4.472685   -0.844429
     29          6           0        5.379153   -0.003060    0.836578
     30          6           0        4.456588    3.894086    0.405954
     31          6           0        1.228369    4.131042    0.138853
     32          6           0       -6.896543   -3.292692    1.099431
     33          6           0       -5.792517   -0.711969   -0.380572
     34          6           0       -0.115150    4.020646    0.173624
     35          6           0       -1.165930    5.064709    0.559653
     36          6           0       -2.373713    4.610514    0.446604
     37          6           0        3.139936   -3.962241    0.229366
     38          6           0       -5.355699    0.258888   -1.337341
     39          6           0        6.812787   -0.502674    0.826924
     40          6           0       -3.701623    5.206981    0.554038
     41          6           0       -2.209476    3.192215   -0.059740
     42          6           0       -0.724298    6.460274    0.977723
     43          6           0       -4.546704    5.530460   -0.768414
     44          1           0       -0.406662    0.177207   -0.199009
     45          1           0        3.139835   -1.044385   -1.129539
     46          1           0        2.546068   -3.068361   -2.266542
     47          1           0        1.538841   -4.092777   -2.671247
     48          1           0       -5.466387   -2.174889    2.252209
     49          1           0        5.154049    0.027044   -1.224013
     50          1           0        5.831396    1.454768   -0.609142
     51          1           0       -2.898305   -0.080483   -0.678288
     52          1           0        0.510032    1.855721   -0.513866
     53          1           0       -1.525118   -4.597500   -0.494176
     54          1           0       -2.236266   -4.001459   -2.084226
     55          1           0       -0.581388   -4.966703   -2.178122
     56          1           0       -2.324159   -3.424811    0.690256
     57          1           0        1.298509   -4.705697   -0.341181
     58          1           0        2.839438   -5.297209   -1.370715
     59          1           0        4.590959   -0.935900    0.829830
     60          1           0        5.071593    0.558323    1.757971
     61          1           0        4.731842    4.919273   -0.065212
     62          1           0        5.437018    3.445968    0.418089
     63          1           0        4.122625    3.978287    1.468081
     64          1           0        1.684489    4.904712    0.361553
     65          1           0       -7.602873   -2.497897    1.157581
     66          1           0       -7.153369   -3.961865    1.966630
     67          1           0       -6.911577   -3.741101    0.125737
     68          1           0       -6.784378   -0.703110   -0.265817
     69          1           0       -4.942191    1.228612   -0.881916
     70          1           0       -6.169811    0.702733   -1.918433
     71          1           0       -4.579974   -0.002856   -2.183261
     72          1           0       -3.586296    6.161427    0.999780
     73          1           0       -4.346807    4.492663    1.344449
     74          1           0        0.211687    6.464214    1.538703
     75          1           0       -1.675604    7.239734    1.483009
     76          1           0       -0.356759    7.092568   -0.065234
     77          1           0       -4.007416    6.204128   -1.522503
     78          1           0       -5.589037    5.794606   -0.403927
     79          1           0       -4.554172    4.731287   -1.313950
     80          1           0        3.630650   -4.214329    2.143877
     81          1           0        8.130830   -1.688452    1.672106
 ---------------------------------------------------------------------

 SCF Done:  E(RB3LYP) =  -1949.08212187     A.U. after   16 cycles

 Excitation energies and oscillator strengths:

 Excited State   1:      Singlet-A      1.9631 eV  631.59 nm  f=0.4158  <S**2>=0.000
     156 ->157         0.70749
     156 <-157        -0.11541
 This state for optimization and/or second-order correction.
 Total Energy, E(TD-HF/TD-DFT) =  -1949.00998109
 Copying the excited state density for this state as the 1-particle RhoCI density.

 The electronic state is 1-A.
 Alpha  occ. eigenvalues --  -19.20939 -19.17533 -19.13721 -19.11589 -19.11295
 Alpha  occ. eigenvalues --  -19.09927 -14.38098 -14.35998 -14.35913 -14.28922
 Alpha  occ. eigenvalues --  -10.32919 -10.31435 -10.29736 -10.26321 -10.24476
 Alpha  occ. eigenvalues --  -10.24014 -10.23837 -10.23640 -10.23236 -10.22854
 Alpha  occ. eigenvalues --  -10.22242 -10.22120 -10.21704 -10.21617 -10.21200
 Alpha  occ. eigenvalues --  -10.20912 -10.20844 -10.20824 -10.20314 -10.20192
 Alpha  occ. eigenvalues --  -10.20161 -10.20059 -10.19462 -10.19370 -10.19359
 Alpha  occ. eigenvalues --  -10.18947 -10.18934 -10.18632 -10.18471 -10.17710
 Alpha  occ. eigenvalues --  -10.17572 -10.17519 -10.17470  -1.10890  -1.10249
 Alpha  occ. eigenvalues --   -1.02854  -1.02036  -0.99253  -0.98487  -0.98464
 Alpha  occ. eigenvalues --   -0.98090  -0.92951  -0.90809  -0.83299  -0.82996
 Alpha  occ. eigenvalues --   -0.82147  -0.81784  -0.80096  -0.79349  -0.78286
 Alpha  occ. eigenvalues --   -0.77628  -0.77345  -0.76011  -0.73801  -0.72886
 Alpha  occ. eigenvalues --   -0.71105  -0.70182  -0.69176  -0.68438  -0.68269
 Alpha  occ. eigenvalues --   -0.67384  -0.65935  -0.64846  -0.62381  -0.61818
 Alpha  occ. eigenvalues --   -0.61021  -0.60353  -0.59478  -0.58001  -0.57323
 Alpha  occ. eigenvalues --   -0.56331  -0.55757  -0.55732  -0.53995  -0.53408
 Alpha  occ. eigenvalues --   -0.52457  -0.51679  -0.51344  -0.50620  -0.50267
 Alpha  occ. eigenvalues --   -0.49965  -0.49815  -0.48833  -0.48631  -0.47612
 Alpha  occ. eigenvalues --   -0.47414  -0.46929  -0.46429  -0.46079  -0.45418
 Alpha  occ. eigenvalues --   -0.44946  -0.44716  -0.44345  -0.44029  -0.43860
 Alpha  occ. eigenvalues --   -0.43136  -0.43044  -0.42694  -0.42528  -0.42158
 Alpha  occ. eigenvalues --   -0.41903  -0.41549  -0.41428  -0.41258  -0.41024
 Alpha  occ. eigenvalues --   -0.40741  -0.40293  -0.40094  -0.39595  -0.39405
 Alpha  occ. eigenvalues --   -0.39248  -0.38651  -0.38470  -0.38112  -0.37795
 Alpha  occ. eigenvalues --   -0.37653  -0.37571  -0.37465  -0.37128  -0.36593
 Alpha  occ. eigenvalues --   -0.36238  -0.35946  -0.35652  -0.35518  -0.34912
 Alpha  occ. eigenvalues --   -0.34543  -0.34300  -0.34240  -0.33589  -0.33353
 Alpha  occ. eigenvalues --   -0.32955  -0.32756  -0.31137  -0.29846  -0.28874
 Alpha  occ. eigenvalues --   -0.27270  -0.26767  -0.26558  -0.25957  -0.25474
 Alpha  occ. eigenvalues --   -0.25074  -0.24894  -0.23881  -0.23590  -0.21857
 Alpha  occ. eigenvalues --   -0.18272
 Alpha virt. eigenvalues --   -0.10575  -0.05502  -0.03745  -0.00991   0.00313
 Alpha virt. eigenvalues --    0.00409   0.00747   0.01867   0.02441   0.03092
 Alpha virt. eigenvalues --    0.03708   0.04081   0.04608   0.05069   0.05884

 Mulliken charges:
               1
     1  O   -0.203365
     2  O   -0.207957
     3  O   -0.205994
     4  O   -0.230392
     5  O   -0.243716
     6  O   -0.265613
     7  N   -0.066224
     8  N   -0.056220
     9  N   -0.241765
    10  N   -0.333600
    11  C   -0.060772
    12  C    0.027222
    13  C   -0.133588
    14  C    0.071378
    15  C   -0.089585
    16  C    0.117969
    17  C   -0.061213
    18  C   -0.141703
    19  C    0.223005
    20  C   -0.003280
    21  C    0.150717
    22  C    0.058177
    23  C   -0.013905
    24  C    0.141321
    25  C   -0.111101
    26  C   -0.022251
    27  C    0.127198
    28  C   -0.026239
    29  C   -0.086010
    30  C    0.068488
    31  C    0.002347
    32  C    0.111846
    33  C   -0.080013
    34  C    0.155413
    35  C   -0.034745
    36  C   -0.161272
    37  C    0.113989
    38  C    0.005505
    39  C    0.142651
    40  C    0.039125
    41  C    0.171910
    42  C   -0.031395
    43  C    0.062568
    44  H    0.119105
    45  H    0.016576
    46  H   -0.053543
    47  H   -0.046951
    48  H    0.023035
    49  H    0.018293
    50  H   -0.013653
    51  H    0.034719
    52  H    0.137443
    53  H    0.039863
    54  H    0.025760
    55  H    0.042369
    56  H    0.145291
    57  H    0.020755
    58  H    0.056432
    59  H    0.082566
    60  H    0.037630
    61  H    0.055506
    62  H   -0.008912
    63  H    0.029743
    64  H   -0.161931
    65  H    0.005181
    66  H    0.037982
    67  H    0.018110
    68  H   -0.060484
    69  H    0.086150
    70  H   -0.013757
    71  H    0.041769
    72  H   -0.026869
    73  H    0.032706
    74  H    0.027417
    75  H    0.056070
    76  H    0.037067
    77  H    0.013579
    78  H    0.030285
    79  H   -0.031418
    80  H    0.241760
    81  H    0.225447
 Sum of Mulliken charges =  -0.00000

 Dipole moment (field-independent basis, Debye):
    X=              2.0882    Y=             -0.4251    Z=              1.1772  Tot=              2.4346
 Quadrupole moment (field-independent basis, Debye-Ang):
   XX=           -245.8000   YY=           -245.9683   ZZ=           -253.6971
   XY=            -13.8456   XZ=             17.2500   YZ=             11.7759

 Normal termination of Gaussian 16 at Tue Jul  2 10:00:04 2019.
