 Gaussian 16, Revision A.03,
 Gaussian 16:  ES64L-G16RevA.03 25-Dec-2016

 --------------------------
 # td=(NStates=1) B3LYP/SVP
 --------------------------

 --
 TD
 --
 Symbolic Z-matrix:
 Charge =  0 Multiplicity = 1

                         Standard orientation:
 ---------------------------------------------------------------------
 Center     Atomic      Atomic             Coordinates (Angstroms)
 Number     Number       Type             X           Y           Z
 ---------------------------------------------------------------------
      1          8           0        4.656594   -4.680843   -1.800964
      2          8           0       -2.921709   -4.793305   -1.338844
      3          8           0       -6.943772   -1.661549   -1.827531
      4          8           0       -3.536001   -3.100661   -0.074515
      5          8           0       -7.722311   -0.786524    0.048672
      6          8           0        2.856110    2.458530    0.125194
      7          7           0        0.274327   -0.604078    0.575279
      8          7           0       -1.543410    1.709170    0.389753
      9          7           0        3.484210   -3.114090   -0.528902
     10          7           0        0.601725    2.952552    0.094847
     11          6           0       -0.567125   -2.519706    1.304427
     12          6           0       -0.887204   -1.233328    0.986224
     13          6           0        0.839279   -2.778097    1.196369
     14          6           0        1.364063   -1.400524    0.752149
     15          6           0       -3.758285    1.196891    0.364277
     16          6           0       -2.471277    0.716064    0.478408
     17          6           0       -2.220826   -0.627917    0.844272
     18          6           0       -3.601932    2.572296    0.041128
     19          6           0       -1.583491   -3.515855    1.849094
     20          6           0        5.582433   -2.578662   -1.229515
     21          6           0        3.656284   -1.806529   -0.076297
     22          6           0       -2.166292    2.904491    0.050225
     23          6           0        5.102196   -1.490101   -0.413792
     24          6           0       -5.186063    0.565611    0.540395
     25          6           0        2.688566   -0.951188    0.375361
     26          6           0        1.587705   -3.963225    1.732069
     27          6           0        4.528819   -3.574292   -1.215056
     28          6           0       -1.808391   -4.562552    0.769426
     29          6           0       -5.549127   -0.116540   -0.774275
     30          6           0       -4.691657    3.696053   -0.144558
     31          6           0       -1.463898    4.077202   -0.187878
     32          6           0        7.074135   -3.079569   -0.998605
     33          6           0        5.776695   -0.368924    0.049646
     34          6           0       -0.055463    4.086728   -0.182877
     35          6           0        0.862251    5.283980   -0.449003
     36          6           0        2.160766    4.815068   -0.333448
     37          6           0       -2.855065   -4.046219   -0.194739
     38          6           0        5.390775    0.666952    1.038422
     39          6           0       -6.827164   -0.774493   -0.854064
     40          6           0        3.484607    5.442733   -0.487621
     41          6           0        1.992504    3.337537    0.006816
     42          6           0        0.348970    6.636672   -0.883471
     43          6           0        4.228562    5.735899    0.879518
     44          1           0        0.377298    0.569267    0.217443
     45          1           0       -2.970791   -1.342575    1.174239
     46          1           0       -2.475483   -3.076388    2.041980
     47          1           0       -1.166966   -3.977342    2.737825
     48          1           0        5.492943   -2.173030   -2.215884
     49          1           0       -5.173858   -0.061017    1.458692
     50          1           0       -5.908078    1.254142    0.780370
     51          1           0        2.891917    0.115575    0.655003
     52          1           0       -0.453312    1.981517    0.513597
     53          1           0        1.699337   -4.802044    0.927978
     54          1           0        2.605800   -3.557628    1.869573
     55          1           0        1.257381   -4.360084    2.710623
     56          1           0        2.536604   -3.603036   -0.485426
     57          1           0       -0.951624   -4.850799    0.228888
     58          1           0       -2.221282   -5.303813    1.180225
     59          1           0       -4.564120   -0.638058   -1.014943
     60          1           0       -5.367593    0.915923   -1.569372
     61          1           0       -4.306898    4.519808    0.400084
     62          1           0       -5.834368    3.423311    0.185008
     63          1           0       -4.857332    3.842348   -1.314477
     64          1           0       -2.080869    4.947068   -0.555819
     65          1           0        7.897322   -2.376021   -1.136114
     66          1           0        7.404620   -3.882941   -1.683400
     67          1           0        7.273912   -3.373420    0.142047
     68          1           0        7.052125   -0.366779   -0.093817
     69          1           0        4.845782    1.528024    0.743761
     70          1           0        6.290001    1.339595    1.465069
     71          1           0        4.678433    0.465291    1.964978
     72          1           0        3.299092    6.508564   -0.955125
     73          1           0        4.121394    4.905807   -1.278495
     74          1           0       -0.449577    6.573957   -1.822425
     75          1           0        1.108793    7.359184   -1.252040
     76          1           0       -0.365339    6.700311    0.065597
     77          1           0        3.599192    6.368940    1.556230
     78          1           0        5.324999    6.045423    0.688373
     79          1           0        4.272938    4.647235    1.335015
     80          1           0       -3.734857   -4.519874   -1.789600
     81          1           0       -7.828892   -1.915232   -1.646744
 ---------------------------------------------------------------------

 SCF Done:  E(RB3LYP) =  -1949.08027602     A.U. after   16 cycles

 Excitation energies and oscillator strengths:

 Excited State   1:      Singlet-A      1.8972 eV  653.51 nm  f=0.3657  <S**2>=0.000
     156 ->157         0.70691
     156 <-157        -0.11312
 This state for optimization and/or second-order correction.
 Total Energy, E(TD-HF/TD-DFT) =  -1949.01055501
 Copying the excited state density for this state as the 1-particle RhoCI density.

 The electronic state is 1-A.
 Alpha  occ. eigenvalues --  -19.18899 -19.18282 -19.14538 -19.12503 -19.11173
 Alpha  occ. eigenvalues --  -19.09506 -14.38721 -14.38324 -14.34724 -14.30753
 Alpha  occ. eigenvalues --  -10.32878 -10.32672 -10.28449 -10.28007 -10.24960
 Alpha  occ. eigenvalues --  -10.24689 -10.23822 -10.23469 -10.23192 -10.22667
 Alpha  occ. eigenvalues --  -10.22488 -10.22479 -10.22115 -10.21962 -10.21859
 Alpha  occ. eigenvalues --  -10.21436 -10.21201 -10.21022 -10.20670 -10.20635
 Alpha  occ. eigenvalues --  -10.20372 -10.20245 -10.20239 -10.20167 -10.20165
 Alpha  occ. eigenvalues --  -10.20096 -10.19885 -10.19787 -10.19747 -10.19583
 Alpha  occ. eigenvalues --  -10.19558 -10.19263 -10.18949  -1.11996  -1.11789
 Alpha  occ. eigenvalues --   -1.02570  -1.02323  -1.01407  -0.98271  -0.97742
 Alpha  occ. eigenvalues --   -0.96869  -0.95224  -0.92011  -0.83450  -0.82160
 Alpha  occ. eigenvalues --   -0.82071  -0.80562  -0.80153  -0.78615  -0.78057
 Alpha  occ. eigenvalues --   -0.77008  -0.76223  -0.75177  -0.73946  -0.72626
 Alpha  occ. eigenvalues --   -0.70650  -0.69263  -0.69067  -0.68393  -0.68019
 Alpha  occ. eigenvalues --   -0.67151  -0.65450  -0.64296  -0.62389  -0.61498
 Alpha  occ. eigenvalues --   -0.60462  -0.59563  -0.59317  -0.58680  -0.57058
 Alpha  occ. eigenvalues --   -0.56063  -0.54927  -0.54708  -0.53362  -0.53172
 Alpha  occ. eigenvalues --   -0.52500  -0.52270  -0.51467  -0.50895  -0.50504
 Alpha  occ. eigenvalues --   -0.50038  -0.49520  -0.49097  -0.48818  -0.47917
 Alpha  occ. eigenvalues --   -0.47150  -0.46711  -0.46147  -0.45691  -0.45235
 Alpha  occ. eigenvalues --   -0.44625  -0.44470  -0.44352  -0.43929  -0.43578
 Alpha  occ. eigenvalues --   -0.43390  -0.42862  -0.42504  -0.42338  -0.42227
 Alpha  occ. eigenvalues --   -0.41879  -0.41726  -0.41197  -0.40940  -0.40786
 Alpha  occ. eigenvalues --   -0.40522  -0.40485  -0.39908  -0.39850  -0.39395
 Alpha  occ. eigenvalues --   -0.39276  -0.39168  -0.38679  -0.38400  -0.38177
 Alpha  occ. eigenvalues --   -0.37945  -0.37589  -0.37527  -0.37006  -0.36832
 Alpha  occ. eigenvalues --   -0.36305  -0.36056  -0.35836  -0.35233  -0.34984
 Alpha  occ. eigenvalues --   -0.34526  -0.33967  -0.33743  -0.33276  -0.33112
 Alpha  occ. eigenvalues --   -0.32627  -0.31872  -0.31385  -0.30224  -0.29775
 Alpha  occ. eigenvalues --   -0.29259  -0.28250  -0.26573  -0.25482  -0.25279
 Alpha  occ. eigenvalues --   -0.25000  -0.24696  -0.24325  -0.24034  -0.21759
 Alpha  occ. eigenvalues --   -0.17921
 Alpha virt. eigenvalues --   -0.10384  -0.06315  -0.04391  -0.03243  -0.00057
 Alpha virt. eigenvalues --    0.00118   0.02475   0.02992   0.03079   0.03382
 Alpha virt. eigenvalues --    0.03865   0.04191   0.04580   0.04842   0.05269

 Mulliken charges:
               1
     1  O   -0.264961
     2  O   -0.198418
     3  O   -0.117455
     4  O   -0.185097
     5  O   -0.299384
     6  O   -0.216187
     7  N   -0.169785
     8  N   -0.170912
     9  N   -0.094067
    10  N   -0.339203
    11  C   -0.146826
    12  C    0.047382
    13  C   -0.187376
    14  C    0.033051
    15  C   -0.149301
    16  C    0.138654
    17  C   -0.055917
    18  C   -0.121567
    19  C    0.181959
    20  C    0.063680
    21  C    0.086020
    22  C    0.052976
    23  C   -0.052463
    24  C    0.201460
    25  C   -0.083324
    26  C    0.045390
    27  C    0.074461
    28  C    0.164288
    29  C   -0.111881
    30  C    0.016492
    31  C   -0.131906
    32  C    0.029616
    33  C   -0.131806
    34  C    0.094608
    35  C   -0.058990
    36  C   -0.160745
    37  C    0.075814
    38  C   -0.012822
    39  C    0.209977
    40  C    0.013334
    41  C    0.183236
    42  C   -0.003213
    43  C   -0.046544
    44  H    0.233939
    45  H    0.011048
    46  H   -0.034927
    47  H   -0.005098
    48  H    0.042349
    49  H    0.017258
    50  H   -0.027630
    51  H    0.039225
    52  H    0.192990
    53  H    0.038558
    54  H    0.033737
    55  H    0.038071
    56  H    0.158442
    57  H    0.024099
    58  H   -0.041170
    59  H    0.070223
    60  H    0.069969
    61  H    0.034927
    62  H    0.041079
    63  H    0.042022
    64  H   -0.011309
    65  H    0.008096
    66  H    0.032932
    67  H    0.028700
    68  H    0.037967
    69  H    0.030615
    70  H    0.009560
    71  H    0.037355
    72  H   -0.000302
    73  H    0.040433
    74  H    0.052462
    75  H    0.044506
    76  H    0.065116
    77  H    0.033357
    78  H    0.038648
    79  H    0.039884
    80  H    0.179179
    81  H    0.151442
 Sum of Mulliken charges =  -0.00000

 Dipole moment (field-independent basis, Debye):
    X=             -1.9089    Y=              2.2199    Z=              0.2854  Tot=              2.9417
 Quadrupole moment (field-independent basis, Debye-Ang):
   XX=           -261.9397   YY=           -239.0467   ZZ=           -255.6639
   XY=             21.4439   XZ=             15.6035   YZ=            -16.9901

 Normal termination of Gaussian 16 at Fri Jul  5 20:15:22 2019.
