 Gaussian 16, Revision A.03,
 Gaussian 16:  ES64L-G16RevA.03 25-Dec-2016

 --------------------------
 # td=(NStates=1) B3LYP/SVP
 --------------------------

 --
 TD
 --
 Symbolic Z-matrix:
 Charge =  0 Multiplicity = 1

                         Standard orientation:
 ---------------------------------------------------------------------
 Center     Atomic      Atomic             Coordinates (Angstroms)
 Number     Number       Type             X           Y           Z
 ---------------------------------------------------------------------
      1          8           0       -4.510702   -4.545235    2.031901
      2          8           0        2.809915   -4.559410    1.438517
      3          8           0        6.979900   -1.381923    1.883619
      4          8           0        3.889773   -3.188269   -0.017370
      5          8           0        7.770162   -0.392981    0.103256
      6          8           0       -3.027226    2.453627   -0.321544
      7          7           0       -0.278733   -0.744906   -0.508334
      8          7           0        1.551621    1.753210   -0.408056
      9          7           0       -3.445018   -3.069201    0.642632
     10          7           0       -0.796108    2.919165   -0.287414
     11          6           0        0.601301   -2.625450   -1.345188
     12          6           0        0.918264   -1.267495   -0.930153
     13          6           0       -0.752628   -2.793045   -1.196030
     14          6           0       -1.274913   -1.577649   -0.660594
     15          6           0        3.758896    1.335742   -0.422908
     16          6           0        2.436205    0.661314   -0.576908
     17          6           0        2.080747   -0.552779   -0.876997
     18          6           0        3.560698    2.608275   -0.065940
     19          6           0        1.653847   -3.579737   -1.889669
     20          6           0       -5.574370   -2.368743    1.285195
     21          6           0       -3.641017   -1.782160    0.127053
     22          6           0        2.105469    2.875610   -0.117592
     23          6           0       -5.080837   -1.365474    0.294533
     24          6           0        5.148212    0.594724   -0.618218
     25          6           0       -2.603412   -1.133235   -0.456209
     26          6           0       -1.493255   -4.002391   -1.662936
     27          6           0       -4.534998   -3.515014    1.356745
     28          6           0        2.007464   -4.546854   -0.807275
     29          6           0        5.477078   -0.066879    0.768750
     30          6           0        4.555760    3.731515    0.130521
     31          6           0        1.369774    4.011702    0.212910
     32          6           0       -7.021409   -2.973043    1.125171
     33          6           0       -5.762257   -0.547831   -0.350793
     34          6           0       -0.122801    3.968100    0.253764
     35          6           0       -0.908620    5.186576    0.579257
     36          6           0       -2.230374    4.593873    0.385428
     37          6           0        3.023722   -3.980988    0.203485
     38          6           0       -5.363614    0.385198   -1.401458
     39          6           0        6.831566   -0.559325    0.827570
     40          6           0       -3.524616    5.383992    0.628874
     41          6           0       -2.102720    3.200620   -0.081219
     42          6           0       -0.493268    6.446353    0.914112
     43          6           0       -4.211523    5.805668   -0.766981
     44          1           0       -0.527164    0.143097   -0.242656
     45          1           0        2.922586   -1.355438   -1.228955
     46          1           0        2.508868   -3.065687   -2.109100
     47          1           0        0.989287   -4.007568   -2.785457
     48          1           0       -5.607308   -1.860961    2.394531
     49          1           0        5.227704   -0.122222   -1.366214
     50          1           0        5.861284    1.460919   -1.042428
     51          1           0       -2.920769   -0.130494   -0.903070
     52          1           0        0.512790    1.618287   -0.673195
     53          1           0       -1.449049   -4.858125   -0.866220
     54          1           0       -2.582714   -3.908443   -1.835128
     55          1           0       -1.120596   -4.503059   -2.629100
     56          1           0       -2.447536   -3.593348    0.789136
     57          1           0        1.160830   -4.988353   -0.297336
     58          1           0        2.571192   -5.391012   -1.343071
     59          1           0        4.640662   -0.746614    1.085467
     60          1           0        5.156989    0.524338    1.683101
     61          1           0        4.243692    4.699419   -0.319723
     62          1           0        5.651021    3.549740   -0.248059
     63          1           0        4.516551    3.950339    1.363763
     64          1           0        1.830440    5.010316    0.513207
     65          1           0       -7.825475   -2.328376    1.722484
     66          1           0       -7.040891   -3.841375    1.753814
     67          1           0       -7.227513   -3.167984   -0.030834
     68          1           0       -6.824298   -0.659078    0.045379
     69          1           0       -4.945017    1.343122   -1.006347
     70          1           0       -6.152811    0.612990   -2.190701
     71          1           0       -4.728877   -0.117956   -2.072605
     72          1           0       -3.266140    6.294340    1.136486
     73          1           0       -4.123011    4.685423    1.423472
     74          1           0        0.035818    6.374588    1.776983
     75          1           0       -1.478018    7.060106    1.026508
     76          1           0        0.321619    6.875586   -0.071748
     77          1           0       -3.327658    6.394309   -1.328808
     78          1           0       -5.146324    6.426756   -0.697539
     79          1           0       -4.355191    4.979379   -1.579163
     80          1           0        3.518037   -4.260046    1.957561
     81          1           0        7.915871   -1.498296    1.978943
 ---------------------------------------------------------------------

 SCF Done:  E(RB3LYP) =  -1949.08882588     A.U. after   16 cycles

 Excitation energies and oscillator strengths:

 Excited State   1:      Singlet-A      2.0140 eV  615.62 nm  f=0.3259  <S**2>=0.000
     156 ->157         0.70276
 This state for optimization and/or second-order correction.
 Total Energy, E(TD-HF/TD-DFT) =  -1949.01481384
 Copying the excited state density for this state as the 1-particle RhoCI density.

 The electronic state is 1-A.
 Alpha  occ. eigenvalues --  -19.19190 -19.16816 -19.15395 -19.12344 -19.10819
 Alpha  occ. eigenvalues --  -19.09726 -14.37875 -14.37474 -14.36377 -14.28406
 Alpha  occ. eigenvalues --  -10.34047 -10.31443 -10.29027 -10.25609 -10.24086
 Alpha  occ. eigenvalues --  -10.24049 -10.23420 -10.23247 -10.22885 -10.22720
 Alpha  occ. eigenvalues --  -10.22103 -10.21959 -10.21717 -10.21422 -10.21305
 Alpha  occ. eigenvalues --  -10.21162 -10.21158 -10.21120 -10.21076 -10.20961
 Alpha  occ. eigenvalues --  -10.20502 -10.20286 -10.20208 -10.20157 -10.20105
 Alpha  occ. eigenvalues --  -10.19898 -10.19625 -10.19437 -10.19246 -10.19158
 Alpha  occ. eigenvalues --  -10.18631 -10.18479 -10.17683  -1.11528  -1.10388
 Alpha  occ. eigenvalues --   -1.03436  -1.02526  -1.01602  -1.01196  -1.00358
 Alpha  occ. eigenvalues --   -0.99218  -0.94455  -0.91633  -0.83991  -0.82848
 Alpha  occ. eigenvalues --   -0.82648  -0.81669  -0.80383  -0.79243  -0.78537
 Alpha  occ. eigenvalues --   -0.77946  -0.76364  -0.75248  -0.74324  -0.72122
 Alpha  occ. eigenvalues --   -0.70617  -0.69640  -0.69467  -0.68286  -0.68193
 Alpha  occ. eigenvalues --   -0.67469  -0.65504  -0.65112  -0.62702  -0.61721
 Alpha  occ. eigenvalues --   -0.60802  -0.59346  -0.58714  -0.58287  -0.57118
 Alpha  occ. eigenvalues --   -0.56356  -0.55663  -0.55213  -0.54069  -0.53023
 Alpha  occ. eigenvalues --   -0.52858  -0.52471  -0.51344  -0.51131  -0.50530
 Alpha  occ. eigenvalues --   -0.49601  -0.49130  -0.48272  -0.47934  -0.47357
 Alpha  occ. eigenvalues --   -0.46849  -0.46791  -0.46281  -0.46250  -0.45562
 Alpha  occ. eigenvalues --   -0.44781  -0.44432  -0.44159  -0.44118  -0.43956
 Alpha  occ. eigenvalues --   -0.43756  -0.43198  -0.42819  -0.42566  -0.42004
 Alpha  occ. eigenvalues --   -0.41883  -0.41711  -0.41492  -0.41241  -0.41008
 Alpha  occ. eigenvalues --   -0.40713  -0.40474  -0.40071  -0.39950  -0.39833
 Alpha  occ. eigenvalues --   -0.39555  -0.39367  -0.39130  -0.38924  -0.38664
 Alpha  occ. eigenvalues --   -0.38438  -0.37843  -0.36873  -0.36564  -0.36541
 Alpha  occ. eigenvalues --   -0.35937  -0.35747  -0.35320  -0.34830  -0.34593
 Alpha  occ. eigenvalues --   -0.34494  -0.33939  -0.33237  -0.32951  -0.32507
 Alpha  occ. eigenvalues --   -0.32062  -0.31964  -0.31705  -0.30642  -0.30335
 Alpha  occ. eigenvalues --   -0.28475  -0.27908  -0.27299  -0.26134  -0.26094
 Alpha  occ. eigenvalues --   -0.25664  -0.25014  -0.23826  -0.22399  -0.21599
 Alpha  occ. eigenvalues --   -0.18055
 Alpha virt. eigenvalues --   -0.09930  -0.05968  -0.02763  -0.01677  -0.00799
 Alpha virt. eigenvalues --   -0.00047   0.01505   0.02166   0.02903   0.04017
 Alpha virt. eigenvalues --    0.04312   0.04873   0.05165   0.05489   0.06219

 Mulliken charges:
               1
     1  O   -0.233532
     2  O   -0.167719
     3  O   -0.176721
     4  O   -0.198003
     5  O   -0.211677
     6  O   -0.194803
     7  N    0.041168
     8  N   -0.066148
     9  N   -0.169168
    10  N   -0.281468
    11  C   -0.121665
    12  C   -0.041311
    13  C   -0.120987
    14  C    0.027752
    15  C   -0.107140
    16  C    0.071941
    17  C   -0.044045
    18  C   -0.102009
    19  C    0.149166
    20  C   -0.148226
    21  C    0.047091
    22  C    0.106091
    23  C    0.091735
    24  C    0.128729
    25  C   -0.164395
    26  C    0.009638
    27  C    0.148820
    28  C    0.043269
    29  C   -0.026813
    30  C    0.004776
    31  C   -0.167955
    32  C    0.008000
    33  C   -0.185077
    34  C    0.054859
    35  C   -0.077792
    36  C   -0.221560
    37  C    0.112343
    38  C    0.099438
    39  C    0.153239
    40  C    0.070703
    41  C    0.139679
    42  C    0.051120
    43  C   -0.068939
    44  H    0.083669
    45  H    0.047008
    46  H   -0.021316
    47  H    0.040006
    48  H    0.070908
    49  H    0.001097
    50  H    0.038332
    51  H    0.040848
    52  H    0.164429
    53  H    0.026326
    54  H    0.029842
    55  H    0.028361
    56  H    0.186913
    57  H    0.024939
    58  H    0.053375
    59  H    0.035289
    60  H    0.039900
    61  H    0.034444
    62  H    0.048041
    63  H    0.040088
    64  H   -0.012135
    65  H    0.026435
    66  H    0.025708
    67  H    0.047085
    68  H   -0.005790
    69  H    0.088076
    70  H    0.000669
    71  H    0.001929
    72  H   -0.012343
    73  H    0.040919
    74  H    0.015450
    75  H    0.040914
    76  H    0.055383
    77  H    0.018243
    78  H    0.035821
    79  H    0.044588
    80  H    0.155909
    81  H    0.158238
 Sum of Mulliken charges =  -0.00000

 Dipole moment (field-independent basis, Debye):
    X=              2.0378    Y=              0.6792    Z=              0.2549  Tot=              2.1631
 Quadrupole moment (field-independent basis, Debye-Ang):
   XX=           -265.1972   YY=           -243.2422   ZZ=           -251.5993
   XY=            -12.1455   XZ=             16.7001   YZ=             16.0258

 Normal termination of Gaussian 16 at Thu Jul  4 18:22:46 2019.
