 Gaussian 16, Revision A.03,
 Gaussian 16:  ES64L-G16RevA.03 25-Dec-2016

 --------------------------
 # td=(NStates=1) B3LYP/SVP
 --------------------------

 --
 TD
 --
 Symbolic Z-matrix:
 Charge =  0 Multiplicity = 1

                         Standard orientation:
 ---------------------------------------------------------------------
 Center     Atomic      Atomic             Coordinates (Angstroms)
 Number     Number       Type             X           Y           Z
 ---------------------------------------------------------------------
      1          8           0        4.586582   -4.847929   -1.867212
      2          8           0       -3.075310   -4.901257   -1.175138
      3          8           0       -6.808852   -1.712658   -1.932921
      4          8           0       -3.855675   -3.094368    0.050457
      5          8           0       -7.784447   -0.502548   -0.132905
      6          8           0        2.985812    2.484986    0.249113
      7          7           0        0.289690   -0.553661    0.645427
      8          7           0       -1.556605    1.854991    0.499854
      9          7           0        3.474147   -3.172271   -0.668919
     10          7           0        0.736027    3.043185    0.148939
     11          6           0       -0.719247   -2.488850    1.379366
     12          6           0       -0.962645   -1.080520    1.063776
     13          6           0        0.658514   -2.710880    1.324638
     14          6           0        1.240543   -1.511015    0.694688
     15          6           0       -3.734675    1.424578    0.345433
     16          6           0       -2.510997    0.888026    0.623234
     17          6           0       -2.248781   -0.488414    0.836819
     18          6           0       -3.526876    2.785106    0.016333
     19          6           0       -1.659737   -3.412362    1.994415
     20          6           0        5.650315   -2.623229   -1.364205
     21          6           0        3.610482   -1.922437   -0.147102
     22          6           0       -2.066935    2.943152    0.083328
     23          6           0        5.107966   -1.571146   -0.445097
     24          6           0       -5.115904    0.704239    0.346953
     25          6           0        2.689870   -1.125401    0.390516
     26          6           0        1.429605   -4.007344    1.818060
     27          6           0        4.537987   -3.755311   -1.347110
     28          6           0       -2.049331   -4.478723    1.054722
     29          6           0       -5.346283   -0.131890   -0.895058
     30          6           0       -4.606247    3.831899   -0.297691
     31          6           0       -1.336365    4.173845   -0.300379
     32          6           0        7.002687   -3.260081   -1.149942
     33          6           0        5.851948   -0.586264    0.209218
     34          6           0        0.067355    4.148658   -0.187475
     35          6           0        0.937962    5.253879   -0.471655
     36          6           0        2.199493    4.817003   -0.342317
     37          6           0       -3.066069   -4.092000   -0.065121
     38          6           0        5.417196    0.437984    1.212272
     39          6           0       -6.790119   -0.684356   -0.912474
     40          6           0        3.517066    5.355472   -0.447323
     41          6           0        2.135047    3.308457   -0.017099
     42          6           0        0.553528    6.668820   -0.797239
     43          6           0        4.301700    5.794715    0.814626
     44          1           0        0.368000    0.129991   -0.105650
     45          1           0       -3.017031   -1.357834    0.957545
     46          1           0       -2.649419   -3.134552    2.168613
     47          1           0       -1.133060   -4.185785    2.696971
     48          1           0        5.565080   -2.474168   -2.401141
     49          1           0       -5.100148    0.239741    1.351040
     50          1           0       -5.961072    1.264923    0.496414
     51          1           0        3.128858   -0.020142    0.687408
     52          1           0       -0.523407    1.717333    0.464172
     53          1           0        1.560186   -4.659624    0.959282
     54          1           0        2.385429   -3.579634    2.278821
     55          1           0        0.773865   -4.427383    2.434900
     56          1           0        2.561853   -3.612656   -0.672239
     57          1           0       -1.382618   -4.887065    0.265860
     58          1           0       -2.624275   -5.350351    1.526840
     59          1           0       -4.640945   -1.156670   -0.885072
     60          1           0       -5.342962    0.507870   -1.742770
     61          1           0       -4.351588    4.708087    0.228161
     62          1           0       -5.644899    3.418787   -0.244734
     63          1           0       -4.704084    4.006570   -1.537052
     64          1           0       -1.992764    5.073411   -0.639513
     65          1           0        7.724679   -2.429458   -1.390990
     66          1           0        7.199025   -4.095951   -2.002362
     67          1           0        7.165620   -3.752186   -0.179199
     68          1           0        6.819617   -0.427796   -0.199371
     69          1           0        4.902843    1.164039    0.529742
     70          1           0        6.552156    0.712641    1.828251
     71          1           0        4.772874   -0.030370    1.951846
     72          1           0        3.542740    6.411349   -1.000046
     73          1           0        4.239570    4.576880   -0.771483
     74          1           0        0.099533    6.650868   -1.824384
     75          1           0        1.432510    7.333601   -1.006559
     76          1           0        0.076469    7.195985    0.037007
     77          1           0        3.874375    6.714119    1.393649
     78          1           0        5.377460    6.224455    0.520639
     79          1           0        4.366528    4.881637    1.537547
     80          1           0       -3.616504   -4.521858   -1.749475
     81          1           0       -7.806480   -2.077969   -1.997604
 ---------------------------------------------------------------------

 SCF Done:  E(RB3LYP) =  -1949.06948933     A.U. after   17 cycles

 Excitation energies and oscillator strengths:

 Excited State   1:      Singlet-A      1.9501 eV  635.80 nm  f=0.3828  <S**2>=0.000
     156 ->157         0.70378
     156 <-157        -0.12107
 This state for optimization and/or second-order correction.
 Total Energy, E(TD-HF/TD-DFT) =  -1948.99782610
 Copying the excited state density for this state as the 1-particle RhoCI density.

 The electronic state is 1-A.
 Alpha  occ. eigenvalues --  -19.21080 -19.17919 -19.15677 -19.13956 -19.12186
 Alpha  occ. eigenvalues --  -19.10417 -14.38974 -14.37741 -14.36277 -14.26948
 Alpha  occ. eigenvalues --  -10.35436 -10.33195 -10.29889 -10.25859 -10.25330
 Alpha  occ. eigenvalues --  -10.24732 -10.24004 -10.23659 -10.23608 -10.22827
 Alpha  occ. eigenvalues --  -10.22478 -10.22069 -10.21986 -10.21305 -10.21265
 Alpha  occ. eigenvalues --  -10.21265 -10.20919 -10.20888 -10.20882 -10.20409
 Alpha  occ. eigenvalues --  -10.20363 -10.20174 -10.20147 -10.19814 -10.19777
 Alpha  occ. eigenvalues --  -10.19670 -10.19532 -10.19493 -10.19172 -10.19025
 Alpha  occ. eigenvalues --  -10.18893 -10.18477 -10.17855  -1.12688  -1.04576
 Alpha  occ. eigenvalues --   -1.04276  -1.01545  -1.01281  -1.00925  -0.98679
 Alpha  occ. eigenvalues --   -0.97300  -0.96396  -0.90648  -0.85394  -0.82217
 Alpha  occ. eigenvalues --   -0.81303  -0.80254  -0.79456  -0.79246  -0.78145
 Alpha  occ. eigenvalues --   -0.77360  -0.75985  -0.74881  -0.74336  -0.72670
 Alpha  occ. eigenvalues --   -0.71117  -0.70989  -0.69219  -0.68227  -0.67602
 Alpha  occ. eigenvalues --   -0.67133  -0.65354  -0.64131  -0.62840  -0.62111
 Alpha  occ. eigenvalues --   -0.60366  -0.58815  -0.58230  -0.58173  -0.57068
 Alpha  occ. eigenvalues --   -0.56630  -0.55990  -0.55383  -0.53894  -0.53288
 Alpha  occ. eigenvalues --   -0.52891  -0.51637  -0.51107  -0.50781  -0.50253
 Alpha  occ. eigenvalues --   -0.49274  -0.48621  -0.48144  -0.47755  -0.47148
 Alpha  occ. eigenvalues --   -0.46919  -0.46493  -0.45998  -0.45757  -0.45340
 Alpha  occ. eigenvalues --   -0.45086  -0.44671  -0.44268  -0.44213  -0.44139
 Alpha  occ. eigenvalues --   -0.43771  -0.43529  -0.43290  -0.42814  -0.42339
 Alpha  occ. eigenvalues --   -0.42221  -0.41901  -0.41520  -0.41243  -0.40851
 Alpha  occ. eigenvalues --   -0.40479  -0.40199  -0.39894  -0.39411  -0.39319
 Alpha  occ. eigenvalues --   -0.39074  -0.38926  -0.38867  -0.38556  -0.38380
 Alpha  occ. eigenvalues --   -0.38007  -0.37435  -0.37113  -0.36895  -0.36580
 Alpha  occ. eigenvalues --   -0.36472  -0.36173  -0.35720  -0.35377  -0.35128
 Alpha  occ. eigenvalues --   -0.34414  -0.33929  -0.33421  -0.32886  -0.32832
 Alpha  occ. eigenvalues --   -0.32368  -0.32314  -0.31428  -0.30120  -0.29941
 Alpha  occ. eigenvalues --   -0.28189  -0.27083  -0.26796  -0.26692  -0.26084
 Alpha  occ. eigenvalues --   -0.25103  -0.24260  -0.23327  -0.22602  -0.21243
 Alpha  occ. eigenvalues --   -0.17716
 Alpha virt. eigenvalues --   -0.10083  -0.05389  -0.04125  -0.03418  -0.02194
 Alpha virt. eigenvalues --    0.00185   0.00825   0.01611   0.03174   0.04021
 Alpha virt. eigenvalues --    0.04199   0.04636   0.04694   0.05287   0.05716

 Mulliken charges:
               1
     1  O   -0.197892
     2  O   -0.119602
     3  O   -0.300519
     4  O   -0.283665
     5  O   -0.268233
     6  O   -0.198726
     7  N   -0.071393
     8  N    0.049815
     9  N   -0.095929
    10  N   -0.333049
    11  C   -0.095399
    12  C    0.024268
    13  C   -0.217283
    14  C   -0.011486
    15  C   -0.096449
    16  C    0.096879
    17  C   -0.113333
    18  C   -0.154974
    19  C    0.192738
    20  C   -0.035371
    21  C    0.091686
    22  C   -0.012752
    23  C   -0.017616
    24  C    0.137568
    25  C   -0.165875
    26  C    0.184236
    27  C    0.100117
    28  C   -0.066322
    29  C   -0.011013
    30  C    0.073895
    31  C   -0.150915
    32  C    0.014688
    33  C   -0.149420
    34  C    0.116391
    35  C   -0.110951
    36  C   -0.130211
    37  C    0.138796
    38  C    0.010688
    39  C    0.196627
    40  C    0.043670
    41  C    0.155596
    42  C    0.106411
    43  C   -0.091593
    44  H    0.156764
    45  H    0.063395
    46  H    0.006615
    47  H    0.042652
    48  H    0.018317
    49  H    0.013291
    50  H   -0.026278
    51  H    0.087730
    52  H    0.127216
    53  H    0.025905
    54  H    0.062723
    55  H   -0.048518
    56  H    0.119089
    57  H    0.036420
    58  H    0.062732
    59  H    0.113410
    60  H    0.028945
    61  H    0.034916
    62  H    0.018668
    63  H    0.026444
    64  H    0.006259
    65  H    0.022720
    66  H    0.043144
    67  H    0.023902
    68  H   -0.009885
    69  H    0.108213
    70  H    0.038389
    71  H    0.041980
    72  H    0.009350
    73  H    0.019259
    74  H    0.027469
    75  H   -0.007371
    76  H    0.033253
    77  H    0.014679
    78  H    0.026546
    79  H    0.040858
    80  H    0.139370
    81  H    0.217332
 Sum of Mulliken charges =  -0.00000

 Dipole moment (field-independent basis, Debye):
    X=             -1.9372    Y=             -2.0320    Z=             -0.9461  Tot=              2.9626
 Quadrupole moment (field-independent basis, Debye-Ang):
   XX=           -263.0012   YY=           -241.9216   ZZ=           -254.0438
   XY=             16.4945   XZ=             14.8307   YZ=            -13.6945

 Normal termination of Gaussian 16 at Fri Jun 28 00:30:49 2019.
