 Gaussian 16, Revision A.03,
 Gaussian 16:  ES64L-G16RevA.03 25-Dec-2016

 --------------------------
 # td=(NStates=1) B3LYP/SVP
 --------------------------

 --
 TD
 --
 Symbolic Z-matrix:
 Charge =  0 Multiplicity = 1

                         Standard orientation:
 ---------------------------------------------------------------------
 Center     Atomic      Atomic             Coordinates (Angstroms)
 Number     Number       Type             X           Y           Z
 ---------------------------------------------------------------------
      1          8           0       -4.319976   -4.849239    1.981381
      2          8           0        3.123010   -4.743990    1.247793
      3          8           0        6.944086   -1.404003    1.835539
      4          8           0        3.821241   -2.978791    0.159861
      5          8           0        7.560464   -0.597987   -0.086665
      6          8           0       -3.111993    2.622916   -0.504886
      7          7           0       -0.240288   -0.513671   -0.823052
      8          7           0        1.453398    1.895279   -0.386884
      9          7           0       -3.311069   -3.230403    0.601543
     10          7           0       -0.881647    2.897929   -0.095247
     11          6           0        0.701609   -2.471962   -1.381983
     12          6           0        0.971580   -1.132982   -1.007335
     13          6           0       -0.623616   -2.664130   -1.308501
     14          6           0       -1.194285   -1.497524   -0.878789
     15          6           0        3.687542    1.537918   -0.395146
     16          6           0        2.506296    0.933504   -0.602969
     17          6           0        2.191003   -0.392493   -0.935881
     18          6           0        3.455003    2.839993    0.012267
     19          6           0        1.758540   -3.464821   -1.862961
     20          6           0       -5.379404   -2.731970    1.454216
     21          6           0       -3.592546   -1.978015    0.034464
     22          6           0        2.065999    3.058875   -0.100877
     23          6           0       -4.909423   -1.624036    0.432891
     24          6           0        5.018147    0.845021   -0.441070
     25          6           0       -2.622658   -1.104160   -0.632934
     26          6           0       -1.323701   -3.943886   -1.650462
     27          6           0       -4.312828   -3.731577    1.443048
     28          6           0        2.149488   -4.541672   -0.876404
     29          6           0        5.273117   -0.044365    0.827454
     30          6           0        4.370798    3.878445    0.509228
     31          6           0        1.213882    4.165035    0.244756
     32          6           0       -6.755540   -3.317547    1.326028
     33          6           0       -5.743705   -0.840944   -0.186776
     34          6           0       -0.220791    3.999063    0.324448
     35          6           0       -1.059865    5.189021    0.519667
     36          6           0       -2.364087    4.695094    0.374139
     37          6           0        3.072395   -3.900836    0.135849
     38          6           0       -5.326770    0.110058   -1.267840
     39          6           0        6.733021   -0.650435    0.843239
     40          6           0       -3.730224    5.223103    0.565033
     41          6           0       -2.190720    3.279350   -0.137432
     42          6           0       -0.687380    6.509381    0.903070
     43          6           0       -4.296587    5.701600   -0.861634
     44          1           0       -0.490570    0.387591   -0.259007
     45          1           0        3.072565   -1.081691   -0.914095
     46          1           0        2.558353   -2.805153   -2.200457
     47          1           0        1.414026   -4.026316   -2.704036
     48          1           0       -5.360841   -2.021675    2.321226
     49          1           0        5.296718    0.285991   -1.486016
     50          1           0        5.745725    1.696619   -0.471482
     51          1           0       -3.036128   -0.070944   -0.702373
     52          1           0        0.414138    2.029292   -0.596928
     53          1           0       -1.295869   -4.852938   -1.000399
     54          1           0       -2.426092   -3.810241   -2.076172
     55          1           0       -0.869385   -4.401296   -2.657987
     56          1           0       -2.345846   -3.669975    0.586810
     57          1           0        1.157380   -5.162257   -0.608861
     58          1           0        2.712681   -5.296027   -1.304715
     59          1           0        4.569596   -0.871573    0.847486
     60          1           0        5.137610    0.625806    1.652179
     61          1           0        4.099084    4.975093    0.105428
     62          1           0        5.270878    3.668748    0.429892
     63          1           0        4.198567    3.986279    1.647167
     64          1           0        1.755321    5.091217    0.689204
     65          1           0       -7.396463   -2.372680    1.101406
     66          1           0       -7.174531   -4.014818    1.949456
     67          1           0       -6.975865   -3.811426    0.371902
     68          1           0       -6.699215   -0.936537    0.135271
     69          1           0       -4.970265    0.922580   -0.932441
     70          1           0       -6.214632    0.356756   -1.753443
     71          1           0       -4.878978   -0.335445   -2.134327
     72          1           0       -3.861873    5.921367    1.468687
     73          1           0       -4.253529    4.311835    0.816494
     74          1           0       -0.039540    6.361838    1.890697
     75          1           0       -1.474974    7.250625    0.984376
     76          1           0        0.048249    6.799091    0.101421
     77          1           0       -3.835686    6.770146   -1.203415
     78          1           0       -5.440558    5.745866   -0.786530
     79          1           0       -4.329066    4.917829   -1.620916
     80          1           0        3.725598   -4.042533    1.792431
     81          1           0        7.910258   -1.848853    1.858573
 ---------------------------------------------------------------------

 SCF Done:  E(RB3LYP) =  -1949.09058530     A.U. after   16 cycles

 Excitation energies and oscillator strengths:

 Excited State   1:      Singlet-A      1.9330 eV  641.42 nm  f=0.4489  <S**2>=0.000
     156 ->157         0.70978
     156 <-157        -0.11832
 This state for optimization and/or second-order correction.
 Total Energy, E(TD-HF/TD-DFT) =  -1949.01955005
 Copying the excited state density for this state as the 1-particle RhoCI density.

 The electronic state is 1-A.
 Alpha  occ. eigenvalues --  -19.19727 -19.18320 -19.16356 -19.11258 -19.10962
 Alpha  occ. eigenvalues --  -19.09465 -14.38111 -14.37982 -14.34310 -14.28624
 Alpha  occ. eigenvalues --  -10.34235 -10.31809 -10.29532 -10.25335 -10.25140
 Alpha  occ. eigenvalues --  -10.23984 -10.23419 -10.23189 -10.22721 -10.22664
 Alpha  occ. eigenvalues --  -10.22626 -10.22148 -10.21721 -10.21104 -10.21005
 Alpha  occ. eigenvalues --  -10.20942 -10.20867 -10.20543 -10.20238 -10.19804
 Alpha  occ. eigenvalues --  -10.19598 -10.19588 -10.19496 -10.19346 -10.19324
 Alpha  occ. eigenvalues --  -10.19189 -10.19017 -10.18952 -10.18901 -10.18860
 Alpha  occ. eigenvalues --  -10.18674 -10.17630 -10.15940  -1.11909  -1.11470
 Alpha  occ. eigenvalues --   -1.02519  -1.02516  -1.00790  -0.99396  -0.97903
 Alpha  occ. eigenvalues --   -0.97276  -0.95154  -0.91777  -0.83888  -0.83120
 Alpha  occ. eigenvalues --   -0.82497  -0.80992  -0.79444  -0.79382  -0.78553
 Alpha  occ. eigenvalues --   -0.77195  -0.76418  -0.75150  -0.73867  -0.72003
 Alpha  occ. eigenvalues --   -0.71577  -0.70486  -0.68895  -0.68421  -0.67814
 Alpha  occ. eigenvalues --   -0.67243  -0.66964  -0.65114  -0.62506  -0.61904
 Alpha  occ. eigenvalues --   -0.60435  -0.59445  -0.58579  -0.58344  -0.57348
 Alpha  occ. eigenvalues --   -0.56045  -0.54939  -0.54667  -0.53902  -0.53298
 Alpha  occ. eigenvalues --   -0.52185  -0.51939  -0.51213  -0.50957  -0.50263
 Alpha  occ. eigenvalues --   -0.49928  -0.49415  -0.49249  -0.47826  -0.47670
 Alpha  occ. eigenvalues --   -0.47419  -0.46697  -0.45997  -0.45745  -0.45414
 Alpha  occ. eigenvalues --   -0.45136  -0.44525  -0.44388  -0.44214  -0.44040
 Alpha  occ. eigenvalues --   -0.43957  -0.43306  -0.43273  -0.42636  -0.42465
 Alpha  occ. eigenvalues --   -0.42339  -0.41940  -0.41860  -0.41614  -0.41384
 Alpha  occ. eigenvalues --   -0.41229  -0.41160  -0.40217  -0.40093  -0.39692
 Alpha  occ. eigenvalues --   -0.39434  -0.39177  -0.38526  -0.38289  -0.38234
 Alpha  occ. eigenvalues --   -0.37922  -0.37708  -0.37420  -0.37357  -0.36984
 Alpha  occ. eigenvalues --   -0.36275  -0.36132  -0.35526  -0.35416  -0.34652
 Alpha  occ. eigenvalues --   -0.34532  -0.34246  -0.33777  -0.33334  -0.32683
 Alpha  occ. eigenvalues --   -0.32521  -0.32368  -0.31270  -0.31016  -0.29928
 Alpha  occ. eigenvalues --   -0.28305  -0.27317  -0.27127  -0.26918  -0.26259
 Alpha  occ. eigenvalues --   -0.25919  -0.24330  -0.23519  -0.21888  -0.21308
 Alpha  occ. eigenvalues --   -0.17841
 Alpha virt. eigenvalues --   -0.10287  -0.05690  -0.04355  -0.02432  -0.00594
 Alpha virt. eigenvalues --    0.00963   0.01377   0.02054   0.02395   0.03706
 Alpha virt. eigenvalues --    0.04067   0.04617   0.05052   0.05537   0.05940

 Mulliken charges:
               1
     1  O   -0.232569
     2  O   -0.262258
     3  O   -0.156630
     4  O   -0.199542
     5  O   -0.281712
     6  O   -0.188315
     7  N   -0.101449
     8  N   -0.149066
     9  N   -0.160119
    10  N   -0.289196
    11  C   -0.084929
    12  C    0.031491
    13  C   -0.095563
    14  C    0.062676
    15  C   -0.054309
    16  C    0.106995
    17  C   -0.075381
    18  C   -0.143634
    19  C    0.129195
    20  C   -0.047766
    21  C    0.041329
    22  C    0.055812
    23  C   -0.040668
    24  C    0.020209
    25  C   -0.084734
    26  C   -0.044532
    27  C    0.162475
    28  C    0.036689
    29  C    0.023662
    30  C    0.184572
    31  C   -0.151982
    32  C    0.087166
    33  C   -0.143268
    34  C    0.096723
    35  C   -0.141517
    36  C   -0.172369
    37  C    0.164197
    38  C    0.238007
    39  C    0.119999
    40  C    0.086403
    41  C    0.109587
    42  C    0.085452
    43  C   -0.036726
    44  H    0.190287
    45  H    0.020568
    46  H    0.012998
    47  H   -0.015716
    48  H    0.058682
    49  H    0.050194
    50  H    0.010274
    51  H    0.040046
    52  H    0.162627
    53  H    0.048360
    54  H    0.051909
    55  H    0.021545
    56  H    0.156364
    57  H    0.065918
    58  H    0.025031
    59  H    0.050038
    60  H    0.021070
    61  H    0.041739
    62  H   -0.081586
    63  H    0.022983
    64  H   -0.003672
    65  H    0.007265
    66  H    0.017390
    67  H   -0.006058
    68  H   -0.059636
    69  H    0.001833
    70  H   -0.038353
    71  H    0.017647
    72  H    0.016044
    73  H   -0.002736
    74  H    0.036979
    75  H    0.019937
    76  H    0.028958
    77  H    0.039865
    78  H    0.003236
    79  H    0.026748
    80  H    0.203457
    81  H    0.233358
 Sum of Mulliken charges =  -0.00000

 Dipole moment (field-independent basis, Debye):
    X=              1.6734    Y=             -0.8645    Z=              0.7763  Tot=              2.0372
 Quadrupole moment (field-independent basis, Debye-Ang):
   XX=           -247.4674   YY=           -248.0061   ZZ=           -254.2939
   XY=            -11.6285   XZ=             20.3977   YZ=             19.9606

 Normal termination of Gaussian 16 at Sun Jun 30 14:34:54 2019.
