 Gaussian 16, Revision A.03,
 Gaussian 16:  ES64L-G16RevA.03 25-Dec-2016

 --------------------------
 # td=(NStates=1) B3LYP/SVP
 --------------------------

 --
 TD
 --
 Symbolic Z-matrix:
 Charge =  0 Multiplicity = 1

                         Standard orientation:
 ---------------------------------------------------------------------
 Center     Atomic      Atomic             Coordinates (Angstroms)
 Number     Number       Type             X           Y           Z
 ---------------------------------------------------------------------
      1          8           0       -4.711182   -4.697345    1.923734
      2          8           0        2.656007   -4.601867    1.358874
      3          8           0        6.990200   -1.688444    2.006060
      4          8           0        3.728266   -3.221819   -0.067464
      5          8           0        7.647206   -0.695832    0.016979
      6          8           0       -3.044680    2.457441   -0.073383
      7          7           0       -0.269101   -0.587689   -0.711622
      8          7           0        1.596440    1.755787   -0.340004
      9          7           0       -3.478410   -3.064604    0.630534
     10          7           0       -0.681468    2.875093   -0.075554
     11          6           0        0.639094   -2.568493   -1.240873
     12          6           0        0.969340   -1.251400   -0.974560
     13          6           0       -0.751985   -2.721460   -1.180097
     14          6           0       -1.349654   -1.499733   -0.684666
     15          6           0        3.880623    1.390750   -0.393764
     16          6           0        2.542525    0.801475   -0.645808
     17          6           0        2.253501   -0.540911   -0.928367
     18          6           0        3.669461    2.726576   -0.061188
     19          6           0        1.591702   -3.514807   -1.871046
     20          6           0       -5.590919   -2.489417    1.314149
     21          6           0       -3.778897   -1.822315    0.118783
     22          6           0        2.250613    2.928025   -0.140371
     23          6           0       -5.129082   -1.473401    0.330250
     24          6           0        5.195090    0.549353   -0.474423
     25          6           0       -2.687261   -1.004165   -0.453312
     26          6           0       -1.544140   -3.824227   -1.804603
     27          6           0       -4.590980   -3.669354    1.338013
     28          6           0        1.985877   -4.619021   -0.959971
     29          6           0        5.458951   -0.169423    0.821697
     30          6           0        4.591753    3.758607    0.387868
     31          6           0        1.401824    4.074541    0.057093
     32          6           0       -7.046097   -2.949158    1.030634
     33          6           0       -5.794023   -0.464351   -0.207719
     34          6           0       -0.080184    3.994478    0.149950
     35          6           0       -0.890961    5.164824    0.438057
     36          6           0       -2.220335    4.714875    0.423456
     37          6           0        2.928792   -4.097423    0.105314
     38          6           0       -5.385452    0.574864   -1.274386
     39          6           0        6.798325   -0.840724    0.867047
     40          6           0       -3.532550    5.365985    0.500468
     41          6           0       -2.038456    3.269944   -0.007044
     42          6           0       -0.322371    6.523685    0.818805
     43          6           0       -3.956792    5.888047   -0.837642
     44          1           0       -0.499556    0.256697   -0.204557
     45          1           0        2.990261   -1.296721   -0.842197
     46          1           0        2.450160   -3.074938   -2.343587
     47          1           0        1.131357   -4.106425   -2.539152
     48          1           0       -5.728496   -2.043511    2.340967
     49          1           0        4.881599   -0.198229   -1.256483
     50          1           0        5.967325    1.268846   -0.940947
     51          1           0       -2.838413   -0.157993   -0.619693
     52          1           0        0.475230    1.724099   -0.321972
     53          1           0       -1.877385   -4.571441   -1.134310
     54          1           0       -2.346646   -3.273756   -2.291073
     55          1           0       -0.832511   -4.086756   -2.598856
     56          1           0       -2.621434   -3.468925    0.549689
     57          1           0        1.170741   -5.053217   -0.553049
     58          1           0        2.606224   -5.327088   -1.372272
     59          1           0        4.774820   -0.939331    0.979027
     60          1           0        5.371367    0.421825    1.792911
     61          1           0        4.455331    4.757330   -0.190078
     62          1           0        5.611989    3.468610    0.359908
     63          1           0        4.557135    4.066747    1.391930
     64          1           0        1.900682    5.104595    0.354269
     65          1           0       -7.837624   -2.206245    1.042277
     66          1           0       -7.343568   -3.737984    1.840352
     67          1           0       -7.101177   -3.429181    0.021058
     68          1           0       -6.828354   -0.437714    0.249698
     69          1           0       -4.854522    1.419506   -0.701382
     70          1           0       -6.318704    0.900173   -1.749602
     71          1           0       -4.566061    0.166751   -1.861386
     72          1           0       -3.475758    6.115531    1.281349
     73          1           0       -4.197803    4.677742    0.964147
     74          1           0        0.568570    6.492307    1.532433
     75          1           0       -1.225449    7.162295    1.403543
     76          1           0        0.019934    6.996340   -0.269492
     77          1           0       -3.232510    6.558008   -1.284358
     78          1           0       -5.010959    6.385225   -0.622670
     79          1           0       -4.254791    5.211560   -1.504339
     80          1           0        3.204116   -4.097261    2.045617
     81          1           0        7.752122   -2.152127    1.839940
 ---------------------------------------------------------------------

 SCF Done:  E(RB3LYP) =  -1949.12189042     A.U. after   17 cycles

 Excitation energies and oscillator strengths:

 Excited State   1:      Singlet-A      1.7441 eV  710.88 nm  f=0.3495  <S**2>=0.000
     156 ->157         0.71036
     156 <-157        -0.12771
 This state for optimization and/or second-order correction.
 Total Energy, E(TD-HF/TD-DFT) =  -1949.05779651
 Copying the excited state density for this state as the 1-particle RhoCI density.

 The electronic state is 1-A.
 Alpha  occ. eigenvalues --  -19.18939 -19.16920 -19.14402 -19.13457 -19.13391
 Alpha  occ. eigenvalues --  -19.10251 -14.37425 -14.36671 -14.35295 -14.30071
 Alpha  occ. eigenvalues --  -10.32970 -10.32350 -10.30922 -10.27075 -10.25011
 Alpha  occ. eigenvalues --  -10.23650 -10.23322 -10.23234 -10.23209 -10.22952
 Alpha  occ. eigenvalues --  -10.22599 -10.21420 -10.21090 -10.20895 -10.20871
 Alpha  occ. eigenvalues --  -10.20804 -10.20385 -10.20294 -10.20103 -10.19907
 Alpha  occ. eigenvalues --  -10.19649 -10.19481 -10.19398 -10.19374 -10.19336
 Alpha  occ. eigenvalues --  -10.19317 -10.19259 -10.19172 -10.19156 -10.18625
 Alpha  occ. eigenvalues --  -10.18333 -10.17877 -10.17747  -1.09972  -1.08193
 Alpha  occ. eigenvalues --   -1.05814  -1.01533  -1.00793  -0.98636  -0.97349
 Alpha  occ. eigenvalues --   -0.96855  -0.95874  -0.92608  -0.84227  -0.82816
 Alpha  occ. eigenvalues --   -0.81849  -0.80601  -0.80251  -0.79059  -0.78576
 Alpha  occ. eigenvalues --   -0.77310  -0.75929  -0.75546  -0.73544  -0.72148
 Alpha  occ. eigenvalues --   -0.71530  -0.70315  -0.69135  -0.68640  -0.67603
 Alpha  occ. eigenvalues --   -0.66991  -0.65923  -0.64519  -0.63475  -0.62307
 Alpha  occ. eigenvalues --   -0.60524  -0.59063  -0.58787  -0.58155  -0.56976
 Alpha  occ. eigenvalues --   -0.55802  -0.55303  -0.54930  -0.54231  -0.53131
 Alpha  occ. eigenvalues --   -0.52408  -0.52054  -0.50822  -0.50691  -0.50244
 Alpha  occ. eigenvalues --   -0.49967  -0.49277  -0.48713  -0.48236  -0.47780
 Alpha  occ. eigenvalues --   -0.47421  -0.46535  -0.46266  -0.46000  -0.45423
 Alpha  occ. eigenvalues --   -0.45040  -0.44807  -0.44457  -0.44384  -0.43978
 Alpha  occ. eigenvalues --   -0.43746  -0.43485  -0.43014  -0.42835  -0.42450
 Alpha  occ. eigenvalues --   -0.42085  -0.41807  -0.41485  -0.41205  -0.40859
 Alpha  occ. eigenvalues --   -0.40435  -0.40351  -0.40093  -0.39853  -0.39578
 Alpha  occ. eigenvalues --   -0.39360  -0.39233  -0.39151  -0.38811  -0.38281
 Alpha  occ. eigenvalues --   -0.38119  -0.37890  -0.37697  -0.37437  -0.36892
 Alpha  occ. eigenvalues --   -0.36697  -0.36287  -0.36078  -0.35599  -0.35426
 Alpha  occ. eigenvalues --   -0.35121  -0.34671  -0.34525  -0.33518  -0.33272
 Alpha  occ. eigenvalues --   -0.33053  -0.32474  -0.31984  -0.29704  -0.29461
 Alpha  occ. eigenvalues --   -0.28999  -0.28486  -0.28067  -0.26520  -0.25797
 Alpha  occ. eigenvalues --   -0.25339  -0.24604  -0.24193  -0.23590  -0.20928
 Alpha  occ. eigenvalues --   -0.17161
 Alpha virt. eigenvalues --   -0.10332  -0.06565  -0.04533  -0.00978  -0.00944
 Alpha virt. eigenvalues --   -0.00262   0.02344   0.03394   0.03613   0.04383
 Alpha virt. eigenvalues --    0.04926   0.05107   0.05408   0.06489   0.06638

 Mulliken charges:
               1
     1  O   -0.155805
     2  O   -0.225722
     3  O   -0.214220
     4  O   -0.213146
     5  O   -0.210454
     6  O   -0.284325
     7  N   -0.151578
     8  N   -0.141963
     9  N   -0.118844
    10  N   -0.254896
    11  C   -0.076551
    12  C    0.015902
    13  C   -0.226931
    14  C    0.063463
    15  C   -0.142787
    16  C    0.135698
    17  C   -0.048692
    18  C   -0.101975
    19  C    0.190232
    20  C   -0.101771
    21  C    0.028931
    22  C    0.099604
    23  C    0.036239
    24  C    0.101803
    25  C    0.138464
    26  C    0.145341
    27  C    0.206421
    28  C    0.136048
    29  C    0.065175
    30  C    0.114005
    31  C   -0.154698
    32  C   -0.005402
    33  C   -0.182159
    34  C    0.053042
    35  C   -0.097463
    36  C   -0.203089
    37  C    0.095135
    38  C    0.088216
    39  C    0.142634
    40  C    0.157743
    41  C    0.180240
    42  C   -0.017526
    43  C    0.064330
    44  H    0.142232
    45  H   -0.007907
    46  H    0.008256
    47  H   -0.052491
    48  H    0.055872
    49  H    0.029252
    50  H    0.048475
    51  H   -0.235882
    52  H    0.194456
    53  H    0.021800
    54  H    0.022827
    55  H    0.007958
    56  H    0.093066
    57  H   -0.016346
    58  H    0.005384
    59  H    0.008846
    60  H    0.045259
    61  H    0.030586
    62  H   -0.011897
    63  H    0.003869
    64  H   -0.004819
    65  H    0.019512
    66  H    0.035902
    67  H    0.014638
    68  H   -0.010794
    69  H    0.088535
    70  H    0.023513
    71  H    0.024711
    72  H   -0.020834
    73  H   -0.012395
    74  H    0.052316
    75  H    0.048932
    76  H    0.060055
    77  H    0.015691
    78  H    0.008056
    79  H   -0.014475
    80  H    0.203933
    81  H    0.145240
 Sum of Mulliken charges =  -0.00000

 Dipole moment (field-independent basis, Debye):
    X=              0.9884    Y=              0.5258    Z=              0.6290  Tot=              1.2841
 Quadrupole moment (field-independent basis, Debye-Ang):
   XX=           -256.3562   YY=           -238.6833   ZZ=           -253.6061
   XY=            -13.3759   XZ=             13.1307   YZ=             13.3377

 Normal termination of Gaussian 16 at Fri Jun 28 18:02:10 2019.
