 Gaussian 16, Revision A.03,
 Gaussian 16:  ES64L-G16RevA.03 25-Dec-2016

 --------------------------
 # td=(NStates=1) B3LYP/SVP
 --------------------------

 --
 TD
 --
 Symbolic Z-matrix:
 Charge =  0 Multiplicity = 1

                         Standard orientation:
 ---------------------------------------------------------------------
 Center     Atomic      Atomic             Coordinates (Angstroms)
 Number     Number       Type             X           Y           Z
 ---------------------------------------------------------------------
      1          8           0       -4.885043   -4.463838    1.899420
      2          8           0        2.486076   -4.930597    1.422118
      3          8           0        7.149245   -1.599939    1.772834
      4          8           0        3.646353   -3.320445    0.068986
      5          8           0        7.749299   -0.673766   -0.224831
      6          8           0       -2.910642    2.408900   -0.232812
      7          7           0       -0.232457   -0.586148   -0.467948
      8          7           0        1.656599    1.736568   -0.329143
      9          7           0       -3.645215   -2.939888    0.602250
     10          7           0       -0.591918    2.982233   -0.204521
     11          6           0        0.572166   -2.598242   -1.262207
     12          6           0        0.929279   -1.270004   -0.845011
     13          6           0       -0.797658   -2.719537   -1.146326
     14          6           0       -1.287550   -1.468100   -0.733932
     15          6           0        3.888890    1.306892   -0.350082
     16          6           0        2.533510    0.698583   -0.584797
     17          6           0        2.225608   -0.610091   -0.766033
     18          6           0        3.753444    2.650224   -0.061436
     19          6           0        1.436798   -3.640025   -1.816857
     20          6           0       -5.718693   -2.263832    1.306855
     21          6           0       -3.655129   -1.681063    0.136760
     22          6           0        2.251464    2.958390    0.042537
     23          6           0       -5.092368   -1.311926    0.290506
     24          6           0        5.158736    0.606154   -0.524393
     25          6           0       -2.607523   -0.969178   -0.472003
     26          6           0       -1.765618   -3.761537   -1.599794
     27          6           0       -4.723958   -3.422392    1.292363
     28          6           0        1.834074   -4.702835   -0.736785
     29          6           0        5.484770   -0.388451    0.605829
     30          6           0        4.741977    3.638711    0.359491
     31          6           0        1.496182    4.015221    0.316538
     32          6           0       -7.223309   -2.728265    1.016167
     33          6           0       -5.809112   -0.407683   -0.384044
     34          6           0        0.112728    4.035931    0.259572
     35          6           0       -0.845091    5.125992    0.477247
     36          6           0       -2.114752    4.726631    0.294414
     37          6           0        2.842806   -4.206176    0.199374
     38          6           0       -5.376128    0.566874   -1.456106
     39          6           0        6.920990   -0.883553    0.620885
     40          6           0       -3.352919    5.342554    0.525312
     41          6           0       -1.919189    3.211126   -0.113979
     42          6           0       -0.368378    6.559609    0.931164
     43          6           0       -3.883607    5.890394   -0.842338
     44          1           0       -0.406042    0.319958   -0.171504
     45          1           0        3.004880   -1.302761   -1.047095
     46          1           0        2.248390   -3.237935   -2.050468
     47          1           0        1.025016   -4.148439   -2.537165
     48          1           0       -5.804791   -1.986695    2.364721
     49          1           0        5.157300   -0.003513   -1.547502
     50          1           0        5.848038    1.406660   -0.571995
     51          1           0       -2.785688    0.087986   -0.774244
     52          1           0        0.661927    1.784202   -0.562867
     53          1           0       -2.094013   -4.606571   -0.693894
     54          1           0       -2.771186   -3.382452   -1.920897
     55          1           0       -1.291080   -4.384683   -2.454932
     56          1           0       -2.779831   -3.381163    0.639352
     57          1           0        0.885905   -5.215163   -0.293732
     58          1           0        2.464867   -5.651193   -1.106151
     59          1           0        4.906075   -1.167040    0.592632
     60          1           0        5.368026    0.163468    1.443838
     61          1           0        4.775181    4.637615   -0.289591
     62          1           0        5.749038    3.225910    0.520265
     63          1           0        4.573148    3.981387    1.383384
     64          1           0        2.118090    4.918440    0.916873
     65          1           0       -7.924292   -1.800884    1.152614
     66          1           0       -7.661784   -3.493499    1.631648
     67          1           0       -7.371487   -3.169966    0.087934
     68          1           0       -6.855933   -0.280200    0.061817
     69          1           0       -4.943164    1.503163   -0.811404
     70          1           0       -6.240624    0.899976   -1.898690
     71          1           0       -4.670276    0.098630   -2.365156
     72          1           0       -3.361292    6.200245    1.260341
     73          1           0       -3.974771    4.640927    0.843858
     74          1           0        0.345301    6.362598    1.881531
     75          1           0       -1.268770    7.153993    1.152277
     76          1           0        0.249251    7.026089    0.343249
     77          1           0       -3.167575    6.476729   -1.366298
     78          1           0       -4.866792    6.480060   -0.731906
     79          1           0       -4.310008    4.993598   -1.581973
     80          1           0        3.017811   -4.689217    2.078667
     81          1           0        8.105139   -1.974489    1.698924
 ---------------------------------------------------------------------

 SCF Done:  E(RB3LYP) =  -1949.09128356     A.U. after   16 cycles

 Excitation energies and oscillator strengths:

 Excited State   1:      Singlet-A      1.8403 eV  673.70 nm  f=0.3272  <S**2>=0.000
     156 ->157         0.70669
     156 <-157        -0.10811
 This state for optimization and/or second-order correction.
 Total Energy, E(TD-HF/TD-DFT) =  -1949.02365247
 Copying the excited state density for this state as the 1-particle RhoCI density.

 The electronic state is 1-A.
 Alpha  occ. eigenvalues --  -19.18512 -19.17027 -19.16454 -19.13134 -19.11063
 Alpha  occ. eigenvalues --  -19.10719 -14.37353 -14.37158 -14.35816 -14.29373
 Alpha  occ. eigenvalues --  -10.34255 -10.32066 -10.29062 -10.27218 -10.24895
 Alpha  occ. eigenvalues --  -10.24332 -10.23777 -10.23684 -10.23625 -10.22926
 Alpha  occ. eigenvalues --  -10.22733 -10.22150 -10.21264 -10.21186 -10.21073
 Alpha  occ. eigenvalues --  -10.20816 -10.20308 -10.20268 -10.20258 -10.20197
 Alpha  occ. eigenvalues --  -10.19564 -10.19452 -10.19350 -10.19342 -10.19228
 Alpha  occ. eigenvalues --  -10.19220 -10.19087 -10.18755 -10.18634 -10.18578
 Alpha  occ. eigenvalues --  -10.18497 -10.18427 -10.18063  -1.09413  -1.08688
 Alpha  occ. eigenvalues --   -1.03686  -1.03090  -1.00525  -0.98998  -0.97934
 Alpha  occ. eigenvalues --   -0.97262  -0.96617  -0.92332  -0.84080  -0.83091
 Alpha  occ. eigenvalues --   -0.81682  -0.80907  -0.80663  -0.79545  -0.78318
 Alpha  occ. eigenvalues --   -0.78099  -0.76367  -0.74904  -0.73999  -0.72833
 Alpha  occ. eigenvalues --   -0.72015  -0.70573  -0.69217  -0.68707  -0.68194
 Alpha  occ. eigenvalues --   -0.67635  -0.66398  -0.64484  -0.63271  -0.62219
 Alpha  occ. eigenvalues --   -0.60624  -0.59510  -0.59178  -0.59025  -0.57879
 Alpha  occ. eigenvalues --   -0.56145  -0.55533  -0.55170  -0.53632  -0.53142
 Alpha  occ. eigenvalues --   -0.52501  -0.52233  -0.51291  -0.51050  -0.50294
 Alpha  occ. eigenvalues --   -0.49765  -0.49018  -0.48980  -0.48167  -0.47928
 Alpha  occ. eigenvalues --   -0.47740  -0.47287  -0.46267  -0.45938  -0.44955
 Alpha  occ. eigenvalues --   -0.44811  -0.44523  -0.44124  -0.43850  -0.43699
 Alpha  occ. eigenvalues --   -0.43184  -0.42901  -0.42770  -0.42552  -0.42420
 Alpha  occ. eigenvalues --   -0.42204  -0.41884  -0.41739  -0.41122  -0.41031
 Alpha  occ. eigenvalues --   -0.40551  -0.40307  -0.39951  -0.39608  -0.39331
 Alpha  occ. eigenvalues --   -0.39232  -0.38847  -0.38741  -0.38492  -0.38321
 Alpha  occ. eigenvalues --   -0.38048  -0.37765  -0.37331  -0.36994  -0.36797
 Alpha  occ. eigenvalues --   -0.36277  -0.36090  -0.35905  -0.35762  -0.35513
 Alpha  occ. eigenvalues --   -0.35425  -0.35056  -0.33929  -0.33856  -0.33437
 Alpha  occ. eigenvalues --   -0.32917  -0.32784  -0.32717  -0.30956  -0.29680
 Alpha  occ. eigenvalues --   -0.28405  -0.27249  -0.26523  -0.26030  -0.25733
 Alpha  occ. eigenvalues --   -0.25434  -0.24691  -0.24001  -0.23213  -0.22052
 Alpha  occ. eigenvalues --   -0.18055
 Alpha virt. eigenvalues --   -0.10701  -0.05761  -0.03430  -0.02459   0.00029
 Alpha virt. eigenvalues --    0.00713   0.01620   0.02776   0.03158   0.03622
 Alpha virt. eigenvalues --    0.04113   0.04659   0.05054   0.05528   0.06442

 Mulliken charges:
               1
     1  O   -0.208112
     2  O   -0.215977
     3  O   -0.237974
     4  O   -0.183394
     5  O   -0.209967
     6  O   -0.273473
     7  N   -0.069001
     8  N   -0.129273
     9  N   -0.033792
    10  N   -0.283695
    11  C   -0.140066
    12  C    0.034649
    13  C   -0.101989
    14  C    0.052080
    15  C   -0.110421
    16  C    0.126061
    17  C   -0.026054
    18  C   -0.072779
    19  C    0.398587
    20  C   -0.078376
    21  C    0.040361
    22  C    0.089998
    23  C   -0.004823
    24  C    0.082535
    25  C   -0.100619
    26  C   -0.034104
    27  C    0.123580
    28  C   -0.087651
    29  C    0.139382
    30  C    0.051069
    31  C   -0.157788
    32  C    0.044409
    33  C   -0.167054
    34  C    0.114282
    35  C   -0.115017
    36  C   -0.178261
    37  C    0.167433
    38  C    0.038717
    39  C    0.125330
    40  C    0.162551
    41  C    0.177862
    42  C    0.150891
    43  C   -0.072559
    44  H    0.099096
    45  H   -0.010448
    46  H   -0.092420
    47  H   -0.060506
    48  H    0.042517
    49  H    0.038562
    50  H   -0.008826
    51  H    0.041622
    52  H    0.135757
    53  H    0.035184
    54  H    0.055822
    55  H    0.029145
    56  H    0.104423
    57  H    0.067773
    58  H    0.058924
    59  H   -0.015712
    60  H   -0.007480
    61  H    0.047050
    62  H    0.007764
    63  H    0.020260
    64  H    0.027061
    65  H    0.024852
    66  H    0.015205
    67  H   -0.009854
    68  H    0.004128
    69  H    0.101752
    70  H   -0.015291
    71  H    0.053784
    72  H    0.010112
    73  H   -0.035108
    74  H    0.017657
    75  H    0.016229
    76  H   -0.026897
    77  H    0.016710
    78  H    0.015297
    79  H    0.039987
    80  H    0.123966
    81  H    0.204343
 Sum of Mulliken charges =  -0.00000

 Dipole moment (field-independent basis, Debye):
    X=              2.9699    Y=              0.8156    Z=              0.3633  Tot=              3.1012
 Quadrupole moment (field-independent basis, Debye-Ang):
   XX=           -253.2824   YY=           -238.8519   ZZ=           -254.5572
   XY=            -16.8692   XZ=             18.5258   YZ=             15.3519

 Normal termination of Gaussian 16 at Tue Jul  2 05:37:23 2019.
