 Gaussian 16, Revision A.03,
 Gaussian 16:  ES64L-G16RevA.03 25-Dec-2016

 --------------------------
 # td=(NStates=1) B3LYP/SVP
 --------------------------

 --
 TD
 --
 Symbolic Z-matrix:
 Charge =  0 Multiplicity = 1

                         Standard orientation:
 ---------------------------------------------------------------------
 Center     Atomic      Atomic             Coordinates (Angstroms)
 Number     Number       Type             X           Y           Z
 ---------------------------------------------------------------------
      1          8           0        4.404799   -4.705283   -1.976080
      2          8           0       -2.963380   -4.765696   -1.446534
      3          8           0       -7.246392   -1.397405   -1.634500
      4          8           0       -3.807065   -3.117533   -0.168299
      5          8           0       -7.532065   -0.628679    0.456418
      6          8           0        3.016440    2.287671    0.275815
      7          7           0        0.319588   -0.591434    0.543644
      8          7           0       -1.563860    1.822556    0.284719
      9          7           0        3.438010   -3.198910   -0.637533
     10          7           0        0.772874    2.914020    0.089991
     11          6           0       -0.630783   -2.470670    1.332152
     12          6           0       -0.909544   -1.084155    0.927659
     13          6           0        0.711814   -2.708455    1.289047
     14          6           0        1.348868   -1.532327    0.775105
     15          6           0       -3.813923    1.604454    0.180698
     16          6           0       -2.468647    0.880327    0.510804
     17          6           0       -2.207797   -0.437527    0.767369
     18          6           0       -3.486693    2.897669   -0.116106
     19          6           0       -1.720348   -3.386434    1.848667
     20          6           0        5.560742   -2.649992   -1.345515
     21          6           0        3.628600   -1.871740   -0.128307
     22          6           0       -2.081726    2.993399   -0.128643
     23          6           0        5.007246   -1.511347   -0.352623
     24          6           0       -5.058024    0.814721    0.374645
     25          6           0        2.661787   -1.098656    0.454183
     26          6           0        1.380047   -3.927414    1.848827
     27          6           0        4.428065   -3.620697   -1.347577
     28          6           0       -2.180864   -4.563226    0.844241
     29          6           0       -5.407200   -0.131935   -0.726401
     30          6           0       -4.464647    3.941547   -0.423000
     31          6           0       -1.301072    4.146285   -0.436339
     32          6           0        6.908998   -3.220598   -1.054252
     33          6           0        5.843778   -0.556384    0.263132
     34          6           0        0.107060    4.011594   -0.314934
     35          6           0        1.030015    5.208715   -0.608315
     36          6           0        2.238913    4.671026   -0.310598
     37          6           0       -3.017707   -4.041962   -0.278622
     38          6           0        5.481814    0.433608    1.307909
     39          6           0       -6.805024   -0.724246   -0.498237
     40          6           0        3.731814    5.194963   -0.343304
     41          6           0        2.112242    3.113946    0.016245
     42          6           0        0.724030    6.549388   -0.784372
     43          6           0        4.287165    5.546625    1.019134
     44          1           0        0.479657    0.354912    0.223418
     45          1           0       -3.196032   -1.308640    0.826973
     46          1           0       -2.640266   -2.989993    2.151052
     47          1           0       -1.372771   -3.921795    2.764174
     48          1           0        5.624998   -2.454468   -2.388082
     49          1           0       -5.000938    0.235780    1.446983
     50          1           0       -6.015423    1.522328    0.376287
     51          1           0        2.826508   -0.187038    0.834790
     52          1           0       -0.494467    1.765166    0.407436
     53          1           0        1.545658   -4.844514    1.290695
     54          1           0        2.470738   -3.787443    2.255668
     55          1           0        0.646933   -4.426570    2.569248
     56          1           0        2.441413   -3.507256   -0.812797
     57          1           0       -1.297610   -5.071572    0.405486
     58          1           0       -2.915018   -5.168248    1.420117
     59          1           0       -4.768037   -1.072654   -0.971908
     60          1           0       -5.555214    0.174277   -1.801722
     61          1           0       -4.533075    4.879847    0.504856
     62          1           0       -5.501488    3.656675   -0.532327
     63          1           0       -4.169833    4.463417   -1.333720
     64          1           0       -1.725336    5.191041   -0.658039
     65          1           0        7.774179   -2.575458   -1.281528
     66          1           0        6.943329   -4.007367   -1.739991
     67          1           0        7.103453   -3.455920    0.148163
     68          1           0        6.872600   -0.631281   -0.259682
     69          1           0        4.932096    1.449201    0.904068
     70          1           0        6.355614    0.896096    2.075099
     71          1           0        4.647648   -0.126148    2.022658
     72          1           0        3.791979    6.043498   -1.173539
     73          1           0        4.277541    4.338508   -0.720952
     74          1           0       -0.136906    6.457414   -1.570501
     75          1           0        1.589256    7.204465   -1.058251
     76          1           0        0.217005    6.941589    0.049200
     77          1           0        3.674833    6.467607    1.369489
     78          1           0        5.368539    5.700243    0.566930
     79          1           0        4.165370    4.891267    1.759784
     80          1           0       -3.796916   -4.350846   -1.836126
     81          1           0       -8.208981   -1.577349   -1.629749
 ---------------------------------------------------------------------

 SCF Done:  E(RB3LYP) =  -1949.10756929     A.U. after   16 cycles

 Excitation energies and oscillator strengths:

 Excited State   1:      Singlet-A      1.9335 eV  641.26 nm  f=0.3827  <S**2>=0.000
     156 ->157         0.70766
     156 <-157        -0.10676
 This state for optimization and/or second-order correction.
 Total Energy, E(TD-HF/TD-DFT) =  -1949.03651590
 Copying the excited state density for this state as the 1-particle RhoCI density.

 The electronic state is 1-A.
 Alpha  occ. eigenvalues --  -19.20201 -19.17021 -19.15285 -19.12954 -19.10845
 Alpha  occ. eigenvalues --  -19.08751 -14.38464 -14.37514 -14.36831 -14.29677
 Alpha  occ. eigenvalues --  -10.34120 -10.32115 -10.27558 -10.27056 -10.24820
 Alpha  occ. eigenvalues --  -10.24404 -10.24073 -10.23963 -10.23904 -10.23771
 Alpha  occ. eigenvalues --  -10.23181 -10.22893 -10.22703 -10.21766 -10.21752
 Alpha  occ. eigenvalues --  -10.21610 -10.21511 -10.21408 -10.21197 -10.20793
 Alpha  occ. eigenvalues --  -10.20596 -10.20515 -10.20505 -10.20446 -10.20198
 Alpha  occ. eigenvalues --  -10.19988 -10.19612 -10.19271 -10.19094 -10.18879
 Alpha  occ. eigenvalues --  -10.18614 -10.18530 -10.18228  -1.11379  -1.08255
 Alpha  occ. eigenvalues --   -1.02437  -1.01974  -1.00386  -0.99920  -0.99836
 Alpha  occ. eigenvalues --   -0.97853  -0.94214  -0.92010  -0.82933  -0.82547
 Alpha  occ. eigenvalues --   -0.81787  -0.81043  -0.80428  -0.79984  -0.78501
 Alpha  occ. eigenvalues --   -0.78004  -0.76582  -0.75771  -0.74411  -0.72295
 Alpha  occ. eigenvalues --   -0.71374  -0.69960  -0.69246  -0.68923  -0.68239
 Alpha  occ. eigenvalues --   -0.67614  -0.65775  -0.63731  -0.61985  -0.60819
 Alpha  occ. eigenvalues --   -0.60176  -0.59554  -0.58778  -0.58471  -0.57864
 Alpha  occ. eigenvalues --   -0.56435  -0.55250  -0.54886  -0.54539  -0.52682
 Alpha  occ. eigenvalues --   -0.52112  -0.51914  -0.51610  -0.50953  -0.50009
 Alpha  occ. eigenvalues --   -0.49595  -0.49167  -0.48639  -0.47331  -0.47149
 Alpha  occ. eigenvalues --   -0.46947  -0.46758  -0.46258  -0.45929  -0.45636
 Alpha  occ. eigenvalues --   -0.45372  -0.45125  -0.44442  -0.44149  -0.43982
 Alpha  occ. eigenvalues --   -0.43742  -0.43605  -0.43388  -0.42703  -0.42574
 Alpha  occ. eigenvalues --   -0.41927  -0.41692  -0.41536  -0.41282  -0.40975
 Alpha  occ. eigenvalues --   -0.40933  -0.40496  -0.40347  -0.40142  -0.39792
 Alpha  occ. eigenvalues --   -0.39456  -0.39062  -0.38720  -0.38375  -0.38229
 Alpha  occ. eigenvalues --   -0.38132  -0.37740  -0.37575  -0.37363  -0.37089
 Alpha  occ. eigenvalues --   -0.36628  -0.36207  -0.35662  -0.34738  -0.34083
 Alpha  occ. eigenvalues --   -0.33586  -0.33323  -0.33201  -0.32884  -0.32832
 Alpha  occ. eigenvalues --   -0.32320  -0.31994  -0.31040  -0.30474  -0.29782
 Alpha  occ. eigenvalues --   -0.28192  -0.27969  -0.26274  -0.26138  -0.25773
 Alpha  occ. eigenvalues --   -0.25115  -0.24184  -0.23989  -0.23206  -0.22146
 Alpha  occ. eigenvalues --   -0.18406
 Alpha virt. eigenvalues --   -0.10696  -0.05896  -0.04264  -0.02712   0.00232
 Alpha virt. eigenvalues --    0.00613   0.01362   0.02773   0.02950   0.03595
 Alpha virt. eigenvalues --    0.03973   0.04100   0.04625   0.05400   0.05814

 Mulliken charges:
               1
     1  O   -0.272264
     2  O   -0.197674
     3  O   -0.245401
     4  O   -0.250322
     5  O   -0.210668
     6  O   -0.248324
     7  N   -0.090955
     8  N   -0.046838
     9  N   -0.044895
    10  N   -0.289722
    11  C   -0.077320
    12  C    0.022844
    13  C   -0.093851
    14  C    0.058605
    15  C   -0.037072
    16  C    0.036613
    17  C   -0.114501
    18  C   -0.095579
    19  C    0.078560
    20  C   -0.019070
    21  C    0.080026
    22  C    0.113683
    23  C   -0.029676
    24  C    0.034301
    25  C   -0.048534
    26  C    0.038689
    27  C    0.042942
    28  C    0.026484
    29  C   -0.049166
    30  C    0.039440
    31  C   -0.161135
    32  C    0.024724
    33  C   -0.055130
    34  C    0.077240
    35  C   -0.097254
    36  C   -0.213865
    37  C    0.136502
    38  C   -0.094729
    39  C    0.131442
    40  C    0.029464
    41  C    0.179497
    42  C    0.092553
    43  C    0.039881
    44  H    0.118340
    45  H    0.116316
    46  H   -0.008149
    47  H    0.012463
    48  H    0.021043
    49  H    0.070739
    50  H    0.033123
    51  H   -0.036118
    52  H    0.165104
    53  H    0.013973
    54  H    0.048537
    55  H    0.003279
    56  H    0.157255
    57  H    0.040175
    58  H    0.058064
    59  H    0.066647
    60  H    0.034986
    61  H    0.037523
    62  H    0.013981
    63  H    0.024749
    64  H    0.008827
    65  H    0.013021
    66  H    0.016239
    67  H    0.031262
    68  H    0.013079
    69  H    0.115837
    70  H    0.040358
    71  H    0.049325
    72  H    0.013805
    73  H    0.009026
    74  H    0.021758
    75  H    0.033345
    76  H    0.016317
    77  H    0.011790
    78  H    0.038196
    79  H   -0.004653
    80  H    0.194045
    81  H    0.186848
 Sum of Mulliken charges =  -0.00000

 Dipole moment (field-independent basis, Debye):
    X=             -4.2614    Y=              1.8351    Z=             -0.0023  Tot=              4.6398
 Quadrupole moment (field-independent basis, Debye-Ang):
   XX=           -253.0947   YY=           -246.2432   ZZ=           -257.9974
   XY=             17.0902   XZ=             17.8436   YZ=            -16.7253

 Normal termination of Gaussian 16 at Thu Jun 27 16:28:07 2019.
