 Gaussian 16, Revision A.03,
 Gaussian 16:  ES64L-G16RevA.03 25-Dec-2016

 --------------------------
 # td=(NStates=1) B3LYP/SVP
 --------------------------

 --
 TD
 --
 Symbolic Z-matrix:
 Charge =  0 Multiplicity = 1

                         Standard orientation:
 ---------------------------------------------------------------------
 Center     Atomic      Atomic             Coordinates (Angstroms)
 Number     Number       Type             X           Y           Z
 ---------------------------------------------------------------------
      1          8           0        4.685253   -4.537831   -1.895657
      2          8           0       -2.525910   -4.958508   -1.387289
      3          8           0       -7.127089   -1.612471   -1.879279
      4          8           0       -3.412175   -3.243981   -0.317289
      5          8           0       -7.677335   -0.725842    0.153780
      6          8           0        2.948998    2.521280    0.302292
      7          7           0        0.239122   -0.644323    0.587768
      8          7           0       -1.574631    1.799571    0.398034
      9          7           0        3.474216   -2.987812   -0.633731
     10          7           0        0.643458    2.924693    0.134026
     11          6           0       -0.611636   -2.536201    1.391074
     12          6           0       -0.937713   -1.206561    0.937099
     13          6           0        0.802560   -2.688341    1.156985
     14          6           0        1.266494   -1.483962    0.661499
     15          6           0       -3.785818    1.387321    0.350674
     16          6           0       -2.536946    0.726478    0.649410
     17          6           0       -2.211164   -0.561371    0.907601
     18          6           0       -3.615133    2.657242    0.009679
     19          6           0       -1.595702   -3.506924    1.960721
     20          6           0        5.586412   -2.368067   -1.354969
     21          6           0        3.670988   -1.760677   -0.075532
     22          6           0       -2.277589    2.891001    0.130035
     23          6           0        5.024418   -1.350241   -0.351544
     24          6           0       -5.082189    0.646509    0.484350
     25          6           0        2.626216   -1.033395    0.451673
     26          6           0        1.595358   -3.713229    1.784515
     27          6           0        4.602210   -3.516066   -1.397921
     28          6           0       -1.945527   -4.642220    0.969761
     29          6           0       -5.507022   -0.233786   -0.738112
     30          6           0       -4.776874    3.628878   -0.345050
     31          6           0       -1.479386    4.049733   -0.241443
     32          6           0        7.010198   -2.990339   -1.064051
     33          6           0        5.797000   -0.435401    0.313620
     34          6           0       -0.045067    4.016753   -0.300488
     35          6           0        0.829392    5.186148   -0.455068
     36          6           0        2.115479    4.749355   -0.349846
     37          6           0       -2.666488   -4.189277   -0.295720
     38          6           0        5.406442    0.543503    1.304776
     39          6           0       -6.894127   -0.851167   -0.762574
     40          6           0        3.406206    5.510055   -0.540010
     41          6           0        2.050673    3.205764    0.006960
     42          6           0        0.303973    6.555992   -0.831503
     43          6           0        4.271970    5.623699    0.705980
     44          1           0        0.504911    0.333282    0.164068
     45          1           0       -3.257683   -1.119213    0.959852
     46          1           0       -2.533932   -2.790854    2.270974
     47          1           0       -1.054531   -4.101658    2.847560
     48          1           0        5.606887   -1.750132   -2.237657
     49          1           0       -4.923594   -0.115750    1.429525
     50          1           0       -5.918574    1.126576    0.668808
     51          1           0        2.935156    0.016902    0.657986
     52          1           0       -0.499596    1.784482    0.559616
     53          1           0        1.749761   -4.542656    1.032019
     54          1           0        2.711649   -3.397262    1.986533
     55          1           0        1.148322   -4.110616    2.649260
     56          1           0        2.817694   -3.644133   -0.634779
     57          1           0       -0.857348   -4.957548    0.665885
     58          1           0       -2.604322   -5.317956    1.621619
     59          1           0       -4.767070   -1.133350   -0.802948
     60          1           0       -5.462275    0.372601   -1.567195
     61          1           0       -4.662810    4.277911    0.400354
     62          1           0       -5.762560    3.228569   -0.323359
     63          1           0       -4.576091    4.252085   -1.180363
     64          1           0       -2.068317    4.971290   -0.382824
     65          1           0        7.715396   -2.082395   -1.496483
     66          1           0        7.186580   -3.853058   -1.812326
     67          1           0        7.214099   -3.321151   -0.068868
     68          1           0        6.918049   -0.374275   -0.096332
     69          1           0        4.855137    1.395619    0.899235
     70          1           0        6.265245    0.886397    1.829559
     71          1           0        4.920896    0.117117    2.231111
     72          1           0        3.039705    6.331540   -1.050117
     73          1           0        3.801787    4.698366   -1.191038
     74          1           0       -0.195007    6.493536   -1.788928
     75          1           0        1.070175    7.487322   -1.062992
     76          1           0       -0.440194    6.968577   -0.137049
     77          1           0        3.362435    6.107967    1.371933
     78          1           0        5.153843    6.378027    0.693949
     79          1           0        4.646897    4.623415    1.207662
     80          1           0       -2.934012   -4.404864   -2.115321
     81          1           0       -8.101424   -1.888024   -1.849555
 ---------------------------------------------------------------------

 SCF Done:  E(RB3LYP) =  -1949.11406575     A.U. after   16 cycles

 Excitation energies and oscillator strengths:

 Excited State   1:      Singlet-A      1.9838 eV  624.97 nm  f=0.3716  <S**2>=0.000
     156 ->157         0.70722
 This state for optimization and/or second-order correction.
 Total Energy, E(TD-HF/TD-DFT) =  -1949.04116132
 Copying the excited state density for this state as the 1-particle RhoCI density.

 The electronic state is 1-A.
 Alpha  occ. eigenvalues --  -19.19433 -19.18677 -19.13691 -19.13208 -19.12776
 Alpha  occ. eigenvalues --  -19.11469 -14.38011 -14.35396 -14.34578 -14.28511
 Alpha  occ. eigenvalues --  -10.33106 -10.32174 -10.29394 -10.26831 -10.24086
 Alpha  occ. eigenvalues --  -10.23172 -10.23142 -10.22899 -10.22596 -10.22552
 Alpha  occ. eigenvalues --  -10.22457 -10.22397 -10.21865 -10.20570 -10.20517
 Alpha  occ. eigenvalues --  -10.20378 -10.20286 -10.20124 -10.20062 -10.20052
 Alpha  occ. eigenvalues --  -10.20029 -10.20015 -10.19659 -10.19542 -10.19312
 Alpha  occ. eigenvalues --  -10.19299 -10.18827 -10.18513 -10.18491 -10.18416
 Alpha  occ. eigenvalues --  -10.18384 -10.18361 -10.17448  -1.11238  -1.08670
 Alpha  occ. eigenvalues --   -1.08646  -1.04651  -1.01491  -1.00331  -0.99579
 Alpha  occ. eigenvalues --   -0.97442  -0.96055  -0.90252  -0.82501  -0.82009
 Alpha  occ. eigenvalues --   -0.81705  -0.81328  -0.79296  -0.78822  -0.77422
 Alpha  occ. eigenvalues --   -0.77217  -0.75908  -0.74966  -0.74178  -0.72074
 Alpha  occ. eigenvalues --   -0.71778  -0.69917  -0.68982  -0.67796  -0.67358
 Alpha  occ. eigenvalues --   -0.67261  -0.65023  -0.64616  -0.62495  -0.61281
 Alpha  occ. eigenvalues --   -0.60445  -0.58866  -0.58652  -0.57150  -0.56525
 Alpha  occ. eigenvalues --   -0.55603  -0.55249  -0.54395  -0.54094  -0.53162
 Alpha  occ. eigenvalues --   -0.52406  -0.51043  -0.50457  -0.50168  -0.49543
 Alpha  occ. eigenvalues --   -0.49393  -0.49163  -0.49029  -0.48077  -0.47853
 Alpha  occ. eigenvalues --   -0.47031  -0.46454  -0.45919  -0.45656  -0.45353
 Alpha  occ. eigenvalues --   -0.45039  -0.44918  -0.44625  -0.44214  -0.43917
 Alpha  occ. eigenvalues --   -0.43667  -0.43273  -0.43144  -0.42620  -0.42421
 Alpha  occ. eigenvalues --   -0.41912  -0.41824  -0.41588  -0.41379  -0.40950
 Alpha  occ. eigenvalues --   -0.40636  -0.40476  -0.40364  -0.40281  -0.39869
 Alpha  occ. eigenvalues --   -0.39687  -0.39267  -0.38953  -0.38860  -0.38805
 Alpha  occ. eigenvalues --   -0.38563  -0.37944  -0.37592  -0.36819  -0.36716
 Alpha  occ. eigenvalues --   -0.36466  -0.36148  -0.35688  -0.35350  -0.34646
 Alpha  occ. eigenvalues --   -0.34340  -0.34071  -0.33932  -0.33453  -0.33326
 Alpha  occ. eigenvalues --   -0.32573  -0.32481  -0.30578  -0.30202  -0.29055
 Alpha  occ. eigenvalues --   -0.28182  -0.27860  -0.27449  -0.26177  -0.25846
 Alpha  occ. eigenvalues --   -0.24837  -0.24304  -0.23572  -0.22552  -0.20822
 Alpha  occ. eigenvalues --   -0.17777
 Alpha virt. eigenvalues --   -0.09730  -0.05015  -0.03584  -0.01346   0.00378
 Alpha virt. eigenvalues --    0.00458   0.02244   0.03240   0.03995   0.04219
 Alpha virt. eigenvalues --    0.04524   0.04668   0.05015   0.05823   0.06126

 Mulliken charges:
               1
     1  O   -0.109917
     2  O   -0.181505
     3  O   -0.222478
     4  O   -0.222398
     5  O   -0.226173
     6  O   -0.141216
     7  N   -0.052339
     8  N   -0.146625
     9  N   -0.126766
    10  N   -0.380303
    11  C   -0.130888
    12  C    0.088732
    13  C   -0.155944
    14  C    0.080489
    15  C   -0.033189
    16  C    0.027192
    17  C   -0.066398
    18  C   -0.151978
    19  C    0.023760
    20  C   -0.078517
    21  C    0.085042
    22  C    0.066027
    23  C   -0.039153
    24  C    0.081992
    25  C   -0.127532
    26  C    0.073097
    27  C    0.114596
    28  C    0.000242
    29  C   -0.004179
    30  C    0.238461
    31  C   -0.135967
    32  C    0.002739
    33  C   -0.175989
    34  C    0.125079
    35  C   -0.064921
    36  C   -0.273914
    37  C    0.126555
    38  C    0.094443
    39  C    0.139089
    40  C    0.160106
    41  C    0.171021
    42  C    0.046902
    43  C   -0.083031
    44  H    0.172052
    45  H    0.047866
    46  H    0.046425
    47  H    0.028234
    48  H    0.043135
    49  H    0.031747
    50  H   -0.047740
    51  H    0.014957
    52  H    0.172444
    53  H    0.008190
    54  H    0.039566
    55  H    0.003396
    56  H    0.072444
    57  H    0.051353
    58  H    0.069947
    59  H    0.077624
    60  H    0.005728
    61  H   -0.021475
    62  H    0.012278
    63  H   -0.001724
    64  H   -0.034698
    65  H    0.031982
    66  H    0.048093
    67  H    0.026145
    68  H    0.017053
    69  H    0.081864
    70  H   -0.016634
    71  H    0.020794
    72  H   -0.022590
    73  H    0.014073
    74  H    0.017499
    75  H    0.031673
    76  H    0.023284
    77  H    0.024702
    78  H    0.034377
    79  H    0.061214
    80  H    0.198425
    81  H    0.202052
 Sum of Mulliken charges =  -0.00000

 Dipole moment (field-independent basis, Debye):
    X=             -1.7418    Y=              0.0168    Z=             -1.1069  Tot=              2.0639
 Quadrupole moment (field-independent basis, Debye-Ang):
   XX=           -246.4819   YY=           -242.9513   ZZ=           -253.0327
   XY=              4.7048   XZ=             16.1129   YZ=            -12.2434

 Normal termination of Gaussian 16 at Sun Jun 30 10:16:34 2019.
