 Gaussian 16, Revision A.03,
 Gaussian 16:  ES64L-G16RevA.03 25-Dec-2016

 --------------------------
 # td=(NStates=1) B3LYP/SVP
 --------------------------

 --
 TD
 --
 Symbolic Z-matrix:
 Charge =  0 Multiplicity = 1

                         Standard orientation:
 ---------------------------------------------------------------------
 Center     Atomic      Atomic             Coordinates (Angstroms)
 Number     Number       Type             X           Y           Z
 ---------------------------------------------------------------------
      1          8           0        4.607240   -4.718950   -1.788648
      2          8           0       -2.782744   -4.903285   -1.332000
      3          8           0       -7.214335   -1.508499   -1.616252
      4          8           0       -3.814721   -3.302592   -0.200554
      5          8           0       -7.589001   -0.568480    0.232823
      6          8           0        3.028067    2.411260    0.208244
      7          7           0        0.239023   -0.525918    0.576471
      8          7           0       -1.573134    1.754298    0.343560
      9          7           0        3.497174   -3.236559   -0.539594
     10          7           0        0.726953    2.966136    0.107034
     11          6           0       -0.738723   -2.460533    1.362324
     12          6           0       -0.976602   -1.106835    0.899151
     13          6           0        0.730978   -2.708057    1.268541
     14          6           0        1.212011   -1.408565    0.712120
     15          6           0       -3.795707    1.454238    0.249545
     16          6           0       -2.535134    0.797991    0.450970
     17          6           0       -2.293852   -0.515905    0.737357
     18          6           0       -3.562937    2.798285   -0.023778
     19          6           0       -1.725094   -3.506079    1.901027
     20          6           0        5.529838   -2.496653   -1.426391
     21          6           0        3.594509   -1.947416   -0.123679
     22          6           0       -2.097993    2.974039    0.051281
     23          6           0        5.041442   -1.637977   -0.375211
     24          6           0       -5.054290    0.820713    0.322198
     25          6           0        2.669810   -1.071205    0.458124
     26          6           0        1.440755   -3.924376    1.796778
     27          6           0        4.492059   -3.642938   -1.240890
     28          6           0       -2.062628   -4.524116    0.865138
     29          6           0       -5.533981   -0.082442   -0.822343
     30          6           0       -4.402767    3.839678   -0.516642
     31          6           0       -1.311972    4.118500   -0.301156
     32          6           0        6.977790   -3.000855   -1.220524
     33          6           0        5.800092   -0.692766    0.213035
     34          6           0        0.087199    4.074846   -0.159756
     35          6           0        1.042502    5.280122   -0.441467
     36          6           0        2.297000    4.664025   -0.292261
     37          6           0       -2.935208   -4.095235   -0.254206
     38          6           0        5.428982    0.304262    1.266407
     39          6           0       -6.780226   -0.728713   -0.652839
     40          6           0        3.563805    5.304857   -0.439417
     41          6           0        2.157754    3.185245    0.123687
     42          6           0        0.568057    6.587224   -0.823429
     43          6           0        4.180497    5.684179    0.947411
     44          1           0        0.306017    0.309876    0.140838
     45          1           0       -2.952237   -1.278645    0.833384
     46          1           0       -2.708689   -3.139853    2.386287
     47          1           0       -1.067166   -3.795225    2.662936
     48          1           0        5.369030   -1.878756   -2.487098
     49          1           0       -5.314999    0.263580    1.281491
     50          1           0       -5.873327    1.578376    0.224108
     51          1           0        2.913245   -0.035602    0.395921
     52          1           0       -0.542542    1.838769    0.566877
     53          1           0        1.381494   -4.891457    1.220007
     54          1           0        2.467308   -3.667201    2.177972
     55          1           0        0.734080   -4.321287    2.661929
     56          1           0        2.619294   -3.666437   -0.582515
     57          1           0       -0.911565   -4.776909    0.423991
     58          1           0       -2.533213   -5.466760    1.434043
     59          1           0       -4.681121   -0.736162   -1.021120
     60          1           0       -5.469423    0.606150   -1.753037
     61          1           0       -4.206721    4.862800    0.207406
     62          1           0       -5.477735    3.879437   -0.391523
     63          1           0       -4.255773    4.225845   -1.478635
     64          1           0       -1.766109    4.983300   -0.562773
     65          1           0        7.642370   -2.224709   -1.459318
     66          1           0        7.121483   -3.941577   -2.041899
     67          1           0        7.374387   -3.202736   -0.047094
     68          1           0        6.870096   -0.421904   -0.142826
     69          1           0        5.037859    1.297999    0.847848
     70          1           0        6.300459    0.654696    1.969454
     71          1           0        4.619768   -0.015352    1.951146
     72          1           0        3.511197    6.321155   -0.807668
     73          1           0        4.341372    4.802689   -0.968377
     74          1           0        0.177423    6.740106   -1.866104
     75          1           0        1.391744    7.463680   -0.784898
     76          1           0       -0.151342    6.940724   -0.178986
     77          1           0        3.632612    6.565111    1.342106
     78          1           0        5.301739    5.949931    0.966888
     79          1           0        4.065658    4.711050    1.743870
     80          1           0       -3.392582   -4.462287   -2.101901
     81          1           0       -8.028044   -2.078982   -1.270567
 ---------------------------------------------------------------------

 SCF Done:  E(RB3LYP) =  -1949.10002033     A.U. after   16 cycles

 Excitation energies and oscillator strengths:

 Excited State   1:      Singlet-A      1.9935 eV  621.93 nm  f=0.4015  <S**2>=0.000
     156 ->157         0.70532
     156 <-157        -0.10552
 This state for optimization and/or second-order correction.
 Total Energy, E(TD-HF/TD-DFT) =  -1949.02675925
 Copying the excited state density for this state as the 1-particle RhoCI density.

 The electronic state is 1-A.
 Alpha  occ. eigenvalues --  -19.19521 -19.17225 -19.14637 -19.12455 -19.10942
 Alpha  occ. eigenvalues --  -19.10078 -14.38693 -14.38077 -14.36103 -14.29110
 Alpha  occ. eigenvalues --  -10.33407 -10.31018 -10.28320 -10.27884 -10.25066
 Alpha  occ. eigenvalues --  -10.25040 -10.24258 -10.23717 -10.23512 -10.23285
 Alpha  occ. eigenvalues --  -10.22981 -10.22134 -10.21399 -10.21316 -10.21291
 Alpha  occ. eigenvalues --  -10.21098 -10.20939 -10.20815 -10.20564 -10.20394
 Alpha  occ. eigenvalues --  -10.20362 -10.20334 -10.20291 -10.20224 -10.20047
 Alpha  occ. eigenvalues --  -10.19910 -10.19755 -10.19741 -10.19351 -10.19208
 Alpha  occ. eigenvalues --  -10.18411 -10.18079 -10.18068  -1.11138  -1.10100
 Alpha  occ. eigenvalues --   -1.05578  -1.05305  -1.01828  -1.00238  -0.98577
 Alpha  occ. eigenvalues --   -0.98228  -0.97794  -0.91662  -0.83572  -0.83097
 Alpha  occ. eigenvalues --   -0.82619  -0.81476  -0.80287  -0.79006  -0.78520
 Alpha  occ. eigenvalues --   -0.77520  -0.76464  -0.75488  -0.73926  -0.72918
 Alpha  occ. eigenvalues --   -0.71957  -0.70112  -0.69149  -0.68742  -0.68311
 Alpha  occ. eigenvalues --   -0.67828  -0.65893  -0.64492  -0.62723  -0.61064
 Alpha  occ. eigenvalues --   -0.60620  -0.60075  -0.59340  -0.58829  -0.58115
 Alpha  occ. eigenvalues --   -0.56662  -0.56025  -0.55199  -0.54484  -0.53750
 Alpha  occ. eigenvalues --   -0.52896  -0.51959  -0.51672  -0.50821  -0.50054
 Alpha  occ. eigenvalues --   -0.49696  -0.49347  -0.49044  -0.48606  -0.47866
 Alpha  occ. eigenvalues --   -0.47434  -0.46832  -0.46720  -0.46167  -0.45656
 Alpha  occ. eigenvalues --   -0.45285  -0.45217  -0.45098  -0.44520  -0.44405
 Alpha  occ. eigenvalues --   -0.44186  -0.44014  -0.43643  -0.43151  -0.42864
 Alpha  occ. eigenvalues --   -0.42371  -0.42187  -0.42092  -0.41599  -0.41525
 Alpha  occ. eigenvalues --   -0.41295  -0.41057  -0.40961  -0.40783  -0.39646
 Alpha  occ. eigenvalues --   -0.39423  -0.39293  -0.38833  -0.38684  -0.38122
 Alpha  occ. eigenvalues --   -0.37970  -0.37527  -0.36871  -0.36620  -0.35772
 Alpha  occ. eigenvalues --   -0.35577  -0.35235  -0.35066  -0.34761  -0.34646
 Alpha  occ. eigenvalues --   -0.34406  -0.33914  -0.33896  -0.33761  -0.32820
 Alpha  occ. eigenvalues --   -0.32619  -0.32150  -0.30935  -0.30348  -0.29959
 Alpha  occ. eigenvalues --   -0.28971  -0.26878  -0.26481  -0.25839  -0.25455
 Alpha  occ. eigenvalues --   -0.25169  -0.24297  -0.24241  -0.23244  -0.21792
 Alpha  occ. eigenvalues --   -0.18091
 Alpha virt. eigenvalues --   -0.10169  -0.05883  -0.04087  -0.02113  -0.00784
 Alpha virt. eigenvalues --   -0.00292   0.01605   0.02181   0.02405   0.03025
 Alpha virt. eigenvalues --    0.03564   0.03846   0.04319   0.04976   0.06027

 Mulliken charges:
               1
     1  O   -0.212185
     2  O   -0.236443
     3  O   -0.207370
     4  O   -0.200594
     5  O   -0.246255
     6  O   -0.134010
     7  N    0.052321
     8  N   -0.091552
     9  N    0.068633
    10  N   -0.344873
    11  C   -0.167261
    12  C   -0.022482
    13  C   -0.149740
    14  C   -0.020799
    15  C   -0.022767
    16  C    0.164805
    17  C   -0.003634
    18  C   -0.056720
    19  C    0.130019
    20  C   -0.107283
    21  C    0.044974
    22  C    0.048642
    23  C   -0.017868
    24  C    0.021078
    25  C   -0.046640
    26  C    0.021210
    27  C    0.053430
    28  C   -0.067255
    29  C   -0.020740
    30  C    0.043094
    31  C   -0.051414
    32  C   -0.005263
    33  C   -0.148829
    34  C    0.073063
    35  C   -0.046306
    36  C   -0.201654
    37  C    0.148743
    38  C   -0.011211
    39  C    0.140849
    40  C    0.129495
    41  C    0.194467
    42  C    0.076428
    43  C   -0.108664
    44  H    0.089133
    45  H   -0.067193
    46  H    0.031698
    47  H   -0.002951
    48  H    0.077423
    49  H    0.037364
    50  H    0.002396
    51  H    0.003079
    52  H    0.153433
    53  H    0.039898
    54  H    0.060338
    55  H    0.016521
    56  H    0.113738
    57  H    0.058856
    58  H    0.079580
    59  H    0.032775
    60  H    0.047069
    61  H    0.017761
    62  H    0.010398
    63  H    0.019968
    64  H   -0.083739
    65  H    0.000905
    66  H    0.063127
    67  H    0.040740
    68  H    0.014688
    69  H    0.068156
    70  H    0.012876
    71  H    0.022555
    72  H   -0.016712
    73  H    0.002064
    74  H    0.036933
    75  H    0.018628
    76  H    0.004862
    77  H    0.016454
    78  H    0.026013
    79  H    0.035493
    80  H    0.228536
    81  H    0.225699
 Sum of Mulliken charges =  -0.00000

 Dipole moment (field-independent basis, Debye):
    X=             -2.2822    Y=              1.4810    Z=             -0.7864  Tot=              2.8320
 Quadrupole moment (field-independent basis, Debye-Ang):
   XX=           -267.2161   YY=           -240.0330   ZZ=           -255.1515
   XY=             21.4910   XZ=             15.3988   YZ=            -16.1181

 Normal termination of Gaussian 16 at Mon Jul  1 08:41:52 2019.
