 Gaussian 16, Revision A.03,
 Gaussian 16:  ES64L-G16RevA.03 25-Dec-2016

 --------------------------
 # td=(NStates=1) B3LYP/SVP
 --------------------------

 --
 TD
 --
 Symbolic Z-matrix:
 Charge =  0 Multiplicity = 1

                         Standard orientation:
 ---------------------------------------------------------------------
 Center     Atomic      Atomic             Coordinates (Angstroms)
 Number     Number       Type             X           Y           Z
 ---------------------------------------------------------------------
      1          8           0       -4.500590   -4.619716    2.134505
      2          8           0        3.194439   -4.754172    1.460696
      3          8           0        7.135324   -1.400444    1.801096
      4          8           0        3.778509   -2.997882   -0.031142
      5          8           0        7.522497   -0.893276   -0.386662
      6          8           0       -3.061149    2.323739   -0.095388
      7          7           0       -0.386738   -0.598250   -0.602935
      8          7           0        1.585986    1.833020   -0.276273
      9          7           0       -3.467961   -3.163945    0.693461
     10          7           0       -0.776091    2.906779   -0.063797
     11          6           0        0.683690   -2.448388   -1.204639
     12          6           0        0.839966   -1.029756   -0.927420
     13          6           0       -0.659547   -2.751216   -1.215805
     14          6           0       -1.272138   -1.518346   -0.681174
     15          6           0        3.816914    1.482335   -0.312174
     16          6           0        2.542226    0.849526   -0.496106
     17          6           0        2.199116   -0.469045   -0.852825
     18          6           0        3.590943    2.876061   -0.038480
     19          6           0        1.726359   -3.479743   -1.745074
     20          6           0       -5.686472   -2.659990    1.056478
     21          6           0       -3.598365   -1.879715    0.099774
     22          6           0        2.123154    2.969870    0.037433
     23          6           0       -5.088026   -1.590076    0.161652
     24          6           0        5.099486    0.892734   -0.432821
     25          6           0       -2.647660   -1.125033   -0.406611
     26          6           0       -1.469500   -3.821743   -1.713513
     27          6           0       -4.506401   -3.577399    1.378862
     28          6           0        2.109517   -4.641881   -0.841414
     29          6           0        5.367546   -0.151347    0.817904
     30          6           0        4.639680    3.987808    0.232537
     31          6           0        1.317967    4.087252    0.172627
     32          6           0       -6.890932   -3.329644    0.795598
     33          6           0       -5.830078   -0.566248   -0.251345
     34          6           0       -0.113546    3.970478    0.183079
     35          6           0       -1.030915    5.135210    0.568401
     36          6           0       -2.305829    4.658469    0.419925
     37          6           0        3.047566   -3.948606    0.225453
     38          6           0       -5.406065    0.454759   -1.336848
     39          6           0        6.741745   -0.828096    0.579861
     40          6           0       -3.613577    5.259465    0.515159
     41          6           0       -2.103515    3.142195    0.013230
     42          6           0       -0.583643    6.544346    0.886508
     43          6           0       -4.280927    5.685954   -0.833639
     44          1           0       -0.560635    0.403728   -0.191035
     45          1           0        3.060409   -1.133999   -0.882240
     46          1           0        2.543250   -2.858121   -2.050571
     47          1           0        1.325586   -3.879401   -2.535616
     48          1           0       -5.685325   -2.085935    2.084033
     49          1           0        5.151153    0.429132   -1.465473
     50          1           0        5.750559    1.565610   -0.601931
     51          1           0       -2.930387   -0.134223   -0.496655
     52          1           0        0.716437    1.829983   -0.432363
     53          1           0       -1.438454   -4.791668   -1.247547
     54          1           0       -2.633168   -3.503911   -1.773059
     55          1           0       -1.092255   -4.269570   -2.725740
     56          1           0       -2.581527   -3.512878    0.906617
     57          1           0        1.138968   -4.905425   -0.209530
     58          1           0        2.632899   -5.578997   -1.351368
     59          1           0        4.640370   -0.973849    0.554475
     60          1           0        5.405170    0.255243    1.830198
     61          1           0        4.525058    4.634991   -0.505872
     62          1           0        5.671105    3.509007    0.077683
     63          1           0        4.806868    4.471830    1.218157
     64          1           0        1.523981    5.178502    0.581911
     65          1           0       -7.963105   -2.812250    0.847959
     66          1           0       -6.935131   -4.197892    1.414381
     67          1           0       -6.823196   -3.670419   -0.131550
     68          1           0       -6.971072   -0.424637   -0.067010
     69          1           0       -5.188549    1.307891   -0.829916
     70          1           0       -6.335928    0.869242   -1.738867
     71          1           0       -4.773231    0.090600   -2.145546
     72          1           0       -3.428506    6.055255    1.079955
     73          1           0       -4.439159    4.761925    0.820116
     74          1           0        0.082709    6.641281    1.835849
     75          1           0       -1.396488    7.304017    0.865285
     76          1           0       -0.137457    6.998260    0.012718
     77          1           0       -3.761840    6.630550   -1.147455
     78          1           0       -5.313807    5.942908   -0.509736
     79          1           0       -4.313706    4.850105   -1.339316
     80          1           0        3.954190   -4.526568    2.034755
     81          1           0        7.983192   -1.660689    1.768708
 ---------------------------------------------------------------------

 SCF Done:  E(RB3LYP) =  -1949.01756246     A.U. after   16 cycles

 Excitation energies and oscillator strengths:

 Excited State   1:      Singlet-A      1.9975 eV  620.70 nm  f=0.4104  <S**2>=0.000
     156 ->157         0.70799
     156 <-157        -0.11240
 This state for optimization and/or second-order correction.
 Total Energy, E(TD-HF/TD-DFT) =  -1948.94415552
 Copying the excited state density for this state as the 1-particle RhoCI density.

 The electronic state is 1-A.
 Alpha  occ. eigenvalues --  -19.18207 -19.16744 -19.16621 -19.13472 -19.10440
 Alpha  occ. eigenvalues --  -19.09384 -14.39885 -14.37438 -14.35667 -14.29044
 Alpha  occ. eigenvalues --  -10.35409 -10.33032 -10.28372 -10.26701 -10.24732
 Alpha  occ. eigenvalues --  -10.24633 -10.24090 -10.23988 -10.23830 -10.23657
 Alpha  occ. eigenvalues --  -10.22861 -10.22668 -10.22482 -10.21109 -10.20975
 Alpha  occ. eigenvalues --  -10.20918 -10.20372 -10.20194 -10.20133 -10.20030
 Alpha  occ. eigenvalues --  -10.20027 -10.19960 -10.19924 -10.19722 -10.19700
 Alpha  occ. eigenvalues --  -10.19642 -10.18885 -10.18621 -10.18562 -10.17347
 Alpha  occ. eigenvalues --  -10.17006 -10.16842 -10.16233  -1.08426  -1.08006
 Alpha  occ. eigenvalues --   -1.02226  -1.01689  -1.01153  -1.00496  -0.99568
 Alpha  occ. eigenvalues --   -0.99501  -0.93863  -0.93180  -0.83884  -0.83105
 Alpha  occ. eigenvalues --   -0.82622  -0.81573  -0.80540  -0.79711  -0.78565
 Alpha  occ. eigenvalues --   -0.77430  -0.76837  -0.75886  -0.75013  -0.72903
 Alpha  occ. eigenvalues --   -0.72011  -0.71151  -0.70628  -0.69544  -0.68719
 Alpha  occ. eigenvalues --   -0.68245  -0.66211  -0.65543  -0.62931  -0.62238
 Alpha  occ. eigenvalues --   -0.60889  -0.60194  -0.59821  -0.58838  -0.58577
 Alpha  occ. eigenvalues --   -0.57412  -0.57135  -0.56089  -0.54999  -0.53447
 Alpha  occ. eigenvalues --   -0.52876  -0.52458  -0.51675  -0.50702  -0.50096
 Alpha  occ. eigenvalues --   -0.49365  -0.48729  -0.48291  -0.47800  -0.47624
 Alpha  occ. eigenvalues --   -0.47372  -0.47174  -0.46404  -0.46210  -0.46140
 Alpha  occ. eigenvalues --   -0.45467  -0.44901  -0.44526  -0.44372  -0.44084
 Alpha  occ. eigenvalues --   -0.43751  -0.43453  -0.43401  -0.43310  -0.42785
 Alpha  occ. eigenvalues --   -0.42077  -0.41930  -0.41415  -0.41358  -0.41135
 Alpha  occ. eigenvalues --   -0.40827  -0.40560  -0.40495  -0.40230  -0.39948
 Alpha  occ. eigenvalues --   -0.39872  -0.39684  -0.39376  -0.39014  -0.38514
 Alpha  occ. eigenvalues --   -0.38343  -0.38075  -0.37717  -0.37464  -0.37315
 Alpha  occ. eigenvalues --   -0.36688  -0.36303  -0.35159  -0.35125  -0.34439
 Alpha  occ. eigenvalues --   -0.34019  -0.33828  -0.33540  -0.33499  -0.33412
 Alpha  occ. eigenvalues --   -0.32835  -0.32256  -0.32093  -0.30758  -0.30215
 Alpha  occ. eigenvalues --   -0.28353  -0.27544  -0.26485  -0.25881  -0.25479
 Alpha  occ. eigenvalues --   -0.24992  -0.24451  -0.23843  -0.23460  -0.22097
 Alpha  occ. eigenvalues --   -0.18078
 Alpha virt. eigenvalues --   -0.10226  -0.05681  -0.04843  -0.03642  -0.01140
 Alpha virt. eigenvalues --    0.00580   0.02353   0.03232   0.03448   0.04092
 Alpha virt. eigenvalues --    0.04307   0.04678   0.05396   0.05848   0.06377

 Mulliken charges:
               1
     1  O   -0.297204
     2  O   -0.283495
     3  O   -0.188803
     4  O   -0.215433
     5  O   -0.244409
     6  O   -0.257247
     7  N    0.021698
     8  N    0.099329
     9  N   -0.017959
    10  N   -0.210277
    11  C   -0.187938
    12  C    0.044474
    13  C   -0.082011
    14  C    0.012154
    15  C   -0.098964
    16  C    0.049690
    17  C   -0.060052
    18  C   -0.139172
    19  C    0.229308
    20  C   -0.058389
    21  C    0.095616
    22  C    0.075621
    23  C    0.041290
    24  C    0.179886
    25  C   -0.095133
    26  C    0.021171
    27  C    0.061900
    28  C   -0.053861
    29  C    0.003462
    30  C    0.139586
    31  C   -0.121340
    32  C    0.134514
    33  C   -0.227602
    34  C   -0.038415
    35  C   -0.098465
    36  C   -0.165683
    37  C    0.209491
    38  C    0.132464
    39  C    0.154512
    40  C    0.148727
    41  C    0.146632
    42  C    0.071523
    43  C    0.046412
    44  H    0.186454
    45  H    0.018105
    46  H    0.003510
    47  H   -0.060626
    48  H    0.053347
    49  H    0.023704
    50  H   -0.089478
    51  H   -0.023060
    52  H    0.007051
    53  H    0.006693
    54  H    0.066343
    55  H    0.016125
    56  H    0.110245
    57  H    0.067282
    58  H    0.092116
    59  H    0.079649
    60  H    0.054135
    61  H   -0.006251
    62  H    0.002751
    63  H    0.040010
    64  H    0.004013
    65  H    0.024878
    66  H    0.017142
    67  H   -0.038652
    68  H    0.026129
    69  H    0.004250
    70  H   -0.025855
    71  H    0.038184
    72  H   -0.047234
    73  H   -0.033078
    74  H    0.051977
    75  H    0.000750
    76  H    0.014740
    77  H    0.017769
    78  H    0.002793
    79  H   -0.010280
    80  H    0.195435
    81  H    0.131331
 Sum of Mulliken charges =  -0.00000

 Dipole moment (field-independent basis, Debye):
    X=              3.3004    Y=              1.7875    Z=             -0.7840  Tot=              3.8344
 Quadrupole moment (field-independent basis, Debye-Ang):
   XX=           -252.1884   YY=           -240.7373   ZZ=           -259.1655
   XY=            -16.5812   XZ=             22.7982   YZ=             17.6303

 Normal termination of Gaussian 16 at Tue Jul  2 22:17:25 2019.
