 Gaussian 16, Revision A.03,
 Gaussian 16:  ES64L-G16RevA.03 25-Dec-2016

 --------------------------
 # td=(NStates=1) B3LYP/SVP
 --------------------------

 --
 TD
 --
 Symbolic Z-matrix:
 Charge =  0 Multiplicity = 1

                         Standard orientation:
 ---------------------------------------------------------------------
 Center     Atomic      Atomic             Coordinates (Angstroms)
 Number     Number       Type             X           Y           Z
 ---------------------------------------------------------------------
      1          8           0       -4.500090   -4.820863    1.763254
      2          8           0        3.032413   -4.714356    1.340846
      3          8           0        7.144316   -1.265151    1.849887
      4          8           0        3.902794   -3.033121    0.105382
      5          8           0        7.546893   -0.634677   -0.305524
      6          8           0       -3.095086    2.481249   -0.243987
      7          7           0       -0.335548   -0.623077   -0.618448
      8          7           0        1.492955    1.759911   -0.334599
      9          7           0       -3.314637   -3.159031    0.645113
     10          7           0       -0.885299    2.867705   -0.167773
     11          6           0        0.683395   -2.514780   -1.295928
     12          6           0        0.970131   -1.142252   -0.993663
     13          6           0       -0.639630   -2.749950   -1.289592
     14          6           0       -1.302176   -1.554272   -0.813724
     15          6           0        3.680069    1.476371   -0.272567
     16          6           0        2.446466    0.819303   -0.481469
     17          6           0        2.145222   -0.471066   -0.928420
     18          6           0        3.480517    2.784268    0.022883
     19          6           0        1.816236   -3.547310   -1.864417
     20          6           0       -5.583725   -2.745526    1.373987
     21          6           0       -3.617536   -1.874009    0.124470
     22          6           0        2.048818    2.985254    0.043669
     23          6           0       -5.033240   -1.583563    0.370814
     24          6           0        4.998806    0.758524   -0.469103
     25          6           0       -2.622948   -1.133405   -0.559303
     26          6           0       -1.430282   -3.916962   -1.645586
     27          6           0       -4.433935   -3.747108    1.352127
     28          6           0        2.213271   -4.574511   -0.819838
     29          6           0        5.518220    0.033359    0.820579
     30          6           0        4.456805    3.834287    0.362502
     31          6           0        1.207976    4.048805    0.388082
     32          6           0       -6.988469   -3.229843    1.131470
     33          6           0       -5.861539   -0.527923   -0.097018
     34          6           0       -0.137884    3.973265    0.290255
     35          6           0       -1.018185    5.142105    0.482379
     36          6           0       -2.284960    4.651294    0.333693
     37          6           0        3.106271   -4.005309    0.150736
     38          6           0       -5.369362    0.462296   -1.205586
     39          6           0        6.813405   -0.630907    0.676528
     40          6           0       -3.645698    5.320284    0.432232
     41          6           0       -2.103568    3.296296   -0.150454
     42          6           0       -0.531092    6.520329    0.747354
     43          6           0       -4.423255    5.641025   -0.854357
     44          1           0       -0.443322    0.388142   -0.307029
     45          1           0        3.056021   -1.084349   -0.993189
     46          1           0        2.756938   -3.033273   -2.162901
     47          1           0        1.348275   -3.799530   -2.900854
     48          1           0       -5.396454   -2.283106    2.448248
     49          1           0        5.205288    0.141655   -1.283474
     50          1           0        5.734269    1.576441   -0.676603
     51          1           0       -2.735294   -0.050419   -0.816399
     52          1           0        0.364374    1.996827   -0.475698
     53          1           0       -1.294312   -4.849185   -0.966526
     54          1           0       -2.521454   -3.728670   -1.580187
     55          1           0       -1.224711   -4.324108   -2.623520
     56          1           0       -2.219867   -3.324134    0.595327
     57          1           0        1.334993   -5.029284   -0.410429
     58          1           0        2.794880   -5.248712   -1.569391
     59          1           0        4.669145   -0.598159    1.133294
     60          1           0        5.440189    0.623954    1.838936
     61          1           0        4.557481    4.725480   -0.386011
     62          1           0        5.479211    3.582547    0.570926
     63          1           0        4.101477    4.452915    1.308067
     64          1           0        1.691936    5.081642    0.427804
     65          1           0       -7.653702   -2.428626    1.352337
     66          1           0       -7.161033   -4.088764    1.815025
     67          1           0       -7.019600   -3.416975   -0.072275
     68          1           0       -6.825696   -0.636380   -0.043948
     69          1           0       -4.726183    1.241962   -0.782796
     70          1           0       -6.130076    0.725105   -1.846696
     71          1           0       -4.622247   -0.005057   -1.859518
     72          1           0       -3.673987    6.286425    0.986667
     73          1           0       -4.111365    4.548666    1.159233
     74          1           0        0.127686    6.431110    1.710769
     75          1           0       -1.199497    7.261720    1.046695
     76          1           0        0.065211    6.888079   -0.066912
     77          1           0       -3.821509    6.426424   -1.613406
     78          1           0       -5.613988    5.854990   -0.565920
     79          1           0       -4.397651    4.575977   -1.476083
     80          1           0        3.628492   -4.217613    2.072143
     81          1           0        8.135136   -1.477149    2.088966
 ---------------------------------------------------------------------

 SCF Done:  E(RB3LYP) =  -1949.11635859     A.U. after   23 cycles

 Excitation energies and oscillator strengths:

 Excited State   1:      Singlet-A      1.8915 eV  655.48 nm  f=0.4307  <S**2>=0.000
     156 ->157         0.71246
     156 <-157        -0.13166
 This state for optimization and/or second-order correction.
 Total Energy, E(TD-HF/TD-DFT) =  -1949.04684748
 Copying the excited state density for this state as the 1-particle RhoCI density.

 The electronic state is 1-A.
 Alpha  occ. eigenvalues --  -19.19376 -19.17052 -19.14586 -19.12558 -19.12263
 Alpha  occ. eigenvalues --  -19.07139 -14.38187 -14.37577 -14.34577 -14.29024
 Alpha  occ. eigenvalues --  -10.34226 -10.31980 -10.30262 -10.25645 -10.24683
 Alpha  occ. eigenvalues --  -10.24214 -10.23506 -10.23104 -10.22926 -10.22888
 Alpha  occ. eigenvalues --  -10.22349 -10.22137 -10.21932 -10.21577 -10.21139
 Alpha  occ. eigenvalues --  -10.21129 -10.20702 -10.20674 -10.20399 -10.20369
 Alpha  occ. eigenvalues --  -10.20318 -10.20274 -10.20256 -10.19565 -10.19561
 Alpha  occ. eigenvalues --  -10.19484 -10.19471 -10.19093 -10.18929 -10.18889
 Alpha  occ. eigenvalues --  -10.18777 -10.17912 -10.16366  -1.08442  -1.07571
 Alpha  occ. eigenvalues --   -1.06734  -0.99237  -0.98625  -0.98416  -0.97961
 Alpha  occ. eigenvalues --   -0.96908  -0.94205  -0.90532  -0.83439  -0.81977
 Alpha  occ. eigenvalues --   -0.81444  -0.80452  -0.80119  -0.79226  -0.78840
 Alpha  occ. eigenvalues --   -0.77219  -0.76667  -0.74890  -0.73784  -0.72421
 Alpha  occ. eigenvalues --   -0.71334  -0.69492  -0.68838  -0.68458  -0.67930
 Alpha  occ. eigenvalues --   -0.67287  -0.66067  -0.64308  -0.62353  -0.60256
 Alpha  occ. eigenvalues --   -0.59785  -0.58780  -0.58377  -0.57783  -0.57697
 Alpha  occ. eigenvalues --   -0.56231  -0.55142  -0.54380  -0.53399  -0.53090
 Alpha  occ. eigenvalues --   -0.52811  -0.52681  -0.51074  -0.50717  -0.49806
 Alpha  occ. eigenvalues --   -0.49159  -0.48828  -0.48472  -0.47787  -0.46894
 Alpha  occ. eigenvalues --   -0.46552  -0.46154  -0.45707  -0.45455  -0.45223
 Alpha  occ. eigenvalues --   -0.44871  -0.44244  -0.44063  -0.43918  -0.43823
 Alpha  occ. eigenvalues --   -0.43300  -0.42880  -0.42711  -0.42502  -0.41911
 Alpha  occ. eigenvalues --   -0.41513  -0.41311  -0.40924  -0.40839  -0.40513
 Alpha  occ. eigenvalues --   -0.40363  -0.40008  -0.39942  -0.39690  -0.39655
 Alpha  occ. eigenvalues --   -0.39301  -0.38840  -0.38668  -0.38436  -0.37757
 Alpha  occ. eigenvalues --   -0.37456  -0.37423  -0.37164  -0.36845  -0.36613
 Alpha  occ. eigenvalues --   -0.36509  -0.36113  -0.35835  -0.35289  -0.34590
 Alpha  occ. eigenvalues --   -0.33751  -0.33071  -0.32943  -0.32304  -0.32285
 Alpha  occ. eigenvalues --   -0.32124  -0.31421  -0.30507  -0.29751  -0.29414
 Alpha  occ. eigenvalues --   -0.27969  -0.27787  -0.27415  -0.26814  -0.25631
 Alpha  occ. eigenvalues --   -0.25081  -0.24753  -0.23251  -0.22208  -0.21711
 Alpha  occ. eigenvalues --   -0.17951
 Alpha virt. eigenvalues --   -0.10696  -0.06247  -0.04453  -0.03739  -0.00766
 Alpha virt. eigenvalues --    0.00036   0.01994   0.02163   0.02603   0.03417
 Alpha virt. eigenvalues --    0.04204   0.04651   0.05113   0.05574   0.06164

 Mulliken charges:
               1
     1  O   -0.122248
     2  O   -0.257311
     3  O   -0.274151
     4  O   -0.256082
     5  O   -0.229982
     6  O   -0.312955
     7  N   -0.135034
     8  N   -0.192151
     9  N   -0.234829
    10  N   -0.242032
    11  C   -0.100163
    12  C    0.114268
    13  C   -0.133197
    14  C    0.069944
    15  C   -0.083664
    16  C    0.048007
    17  C   -0.051055
    18  C   -0.047726
    19  C    0.004935
    20  C   -0.123329
    21  C    0.117507
    22  C    0.039069
    23  C   -0.066806
    24  C    0.128793
    25  C   -0.135175
    26  C    0.053392
    27  C    0.138904
    28  C    0.083793
    29  C   -0.049961
    30  C    0.029939
    31  C   -0.137986
    32  C    0.055775
    33  C   -0.017868
    34  C    0.101728
    35  C   -0.112691
    36  C   -0.135517
    37  C    0.159295
    38  C    0.045124
    39  C    0.207491
    40  C    0.063068
    41  C    0.104852
    42  C    0.132841
    43  C   -0.111110
    44  H    0.159677
    45  H    0.017517
    46  H    0.024714
    47  H    0.042682
    48  H    0.065050
    49  H    0.004389
    50  H   -0.001318
    51  H    0.041321
    52  H    0.213801
    53  H    0.028558
    54  H    0.039128
    55  H    0.011185
    56  H    0.177929
    57  H    0.037292
    58  H    0.082260
    59  H    0.033195
    60  H    0.038159
    61  H    0.028025
    62  H    0.011489
    63  H    0.024972
    64  H    0.001197
    65  H    0.022578
    66  H    0.044347
    67  H    0.044475
    68  H   -0.059159
    69  H    0.085309
    70  H   -0.010537
    71  H    0.004791
    72  H   -0.007766
    73  H    0.032473
    74  H    0.022960
    75  H   -0.009908
    76  H    0.023589
    77  H    0.040811
    78  H    0.044768
    79  H    0.049052
    80  H    0.233635
    81  H    0.221659
 Sum of Mulliken charges =  -0.00000

 Dipole moment (field-independent basis, Debye):
    X=              2.1940    Y=             -1.1793    Z=              1.2518  Tot=              2.7877
 Quadrupole moment (field-independent basis, Debye-Ang):
   XX=           -251.3754   YY=           -241.6924   ZZ=           -248.7619
   XY=             -3.0360   XZ=             17.3904   YZ=             11.3688

 Normal termination of Gaussian 16 at Sun Jun 30 21:43:28 2019.
