 Gaussian 16, Revision A.03,
 Gaussian 16:  ES64L-G16RevA.03 25-Dec-2016

 --------------------------
 # td=(NStates=1) B3LYP/SVP
 --------------------------

 --
 TD
 --
 Symbolic Z-matrix:
 Charge =  0 Multiplicity = 1

                         Standard orientation:
 ---------------------------------------------------------------------
 Center     Atomic      Atomic             Coordinates (Angstroms)
 Number     Number       Type             X           Y           Z
 ---------------------------------------------------------------------
      1          8           0        4.452533   -4.753291   -1.935800
      2          8           0       -3.181328   -4.721965   -1.260374
      3          8           0       -6.968901   -1.463426   -1.818771
      4          8           0       -3.854215   -3.003657   -0.057254
      5          8           0       -7.458121   -0.369828    0.090675
      6          8           0        3.071104    2.433893    0.134842
      7          7           0        0.275058   -0.611798    0.604636
      8          7           0       -1.503747    1.849710    0.329135
      9          7           0        3.337039   -3.171678   -0.799858
     10          7           0        0.787858    2.951014    0.144092
     11          6           0       -0.677752   -2.510285    1.379010
     12          6           0       -0.943356   -1.228031    0.972441
     13          6           0        0.728884   -2.713666    1.226659
     14          6           0        1.305535   -1.442260    0.695034
     15          6           0       -3.694765    1.437968    0.428086
     16          6           0       -2.365382    0.761280    0.596157
     17          6           0       -2.171560   -0.557204    0.831107
     18          6           0       -3.477027    2.759607   -0.061123
     19          6           0       -1.689670   -3.493761    1.943472
     20          6           0        5.624097   -2.738997   -1.252340
     21          6           0        3.562570   -1.876192   -0.173071
     22          6           0       -2.094918    2.914338   -0.012584
     23          6           0        5.008952   -1.569697   -0.402155
     24          6           0       -5.084883    0.692180    0.437527
     25          6           0        2.664360   -1.119200    0.437158
     26          6           0        1.459344   -3.989167    1.592294
     27          6           0        4.495662   -3.699285   -1.346705
     28          6           0       -2.307538   -4.532851    0.959384
     29          6           0       -5.367237   -0.118575   -0.845987
     30          6           0       -4.603457    3.820295   -0.442495
     31          6           0       -1.342658    4.142454   -0.147094
     32          6           0        6.972570   -3.249308   -0.874007
     33          6           0        5.809334   -0.640964    0.167324
     34          6           0        0.092941    4.072408   -0.122242
     35          6           0        1.029584    5.191134   -0.406003
     36          6           0        2.302803    4.682919   -0.421802
     37          6           0       -3.180386   -3.924497   -0.072822
     38          6           0        5.359018    0.391704    1.142848
     39          6           0       -6.721597   -0.597007   -0.795425
     40          6           0        3.595480    5.413360   -0.492280
     41          6           0        2.129647    3.202923   -0.017245
     42          6           0        0.533389    6.635425   -0.740433
     43          6           0        4.369124    5.696639    0.852592
     44          1           0        0.517472    0.300666    0.092015
     45          1           0       -3.051047   -1.153884    0.737227
     46          1           0       -2.458329   -2.924061    2.387579
     47          1           0       -1.231873   -3.952992    2.745111
     48          1           0        5.736838   -2.202517   -2.232015
     49          1           0       -5.007810   -0.051862    1.226688
     50          1           0       -5.922364    1.573733    0.616290
     51          1           0        2.947835   -0.140796    0.423545
     52          1           0       -0.341873    1.799026    0.551952
     53          1           0        1.369592   -4.972091    0.819131
     54          1           0        2.574814   -3.861650    1.932795
     55          1           0        0.927158   -4.208525    2.574731
     56          1           0        2.557496   -3.724028   -0.637622
     57          1           0       -1.624651   -5.125486    0.659342
     58          1           0       -3.106080   -5.228680    1.424349
     59          1           0       -4.655151   -1.046869   -1.026758
     60          1           0       -5.270932    0.437304   -1.771468
     61          1           0       -4.544499    4.680472    0.255294
     62          1           0       -5.667671    3.304028   -0.429615
     63          1           0       -4.271773    4.239519   -1.387244
     64          1           0       -1.968861    5.080442   -0.104865
     65          1           0        7.793532   -2.568388   -0.734325
     66          1           0        6.999403   -4.186098   -1.561320
     67          1           0        6.855613   -3.762750   -0.009816
     68          1           0        6.873371   -0.475259   -0.079254
     69          1           0        5.090398    1.470120    0.789578
     70          1           0        6.297341    0.690740    1.705662
     71          1           0        4.511960   -0.063288    1.779426
     72          1           0        3.566601    6.271808   -1.073487
     73          1           0        4.262665    4.888292   -1.034886
     74          1           0        0.127102    6.835276   -1.715785
     75          1           0        1.650269    7.337659   -0.706523
     76          1           0        0.104196    7.105073    0.163272
     77          1           0        3.576720    5.993086    1.763850
     78          1           0        5.311595    6.104519    0.836807
     79          1           0        4.426616    4.630087    1.215134
     80          1           0       -3.739930   -4.177119   -1.844596
     81          1           0       -7.904441   -1.892164   -1.734460
 ---------------------------------------------------------------------

 SCF Done:  E(RB3LYP) =  -1949.10155743     A.U. after   16 cycles

 Excitation energies and oscillator strengths:

 Excited State   1:      Singlet-A      2.0380 eV  608.35 nm  f=0.3839  <S**2>=0.000
     156 ->157         0.70731
 This state for optimization and/or second-order correction.
 Total Energy, E(TD-HF/TD-DFT) =  -1949.02666116
 Copying the excited state density for this state as the 1-particle RhoCI density.

 The electronic state is 1-A.
 Alpha  occ. eigenvalues --  -19.17872 -19.17221 -19.16139 -19.12426 -19.10668
 Alpha  occ. eigenvalues --  -19.10150 -14.38985 -14.36485 -14.35491 -14.29298
 Alpha  occ. eigenvalues --  -10.33690 -10.31021 -10.28967 -10.26513 -10.24915
 Alpha  occ. eigenvalues --  -10.24230 -10.23298 -10.23246 -10.23197 -10.23078
 Alpha  occ. eigenvalues --  -10.22580 -10.22046 -10.21398 -10.21287 -10.21276
 Alpha  occ. eigenvalues --  -10.21176 -10.21072 -10.20873 -10.20567 -10.20544
 Alpha  occ. eigenvalues --  -10.20501 -10.20316 -10.20212 -10.19952 -10.19951
 Alpha  occ. eigenvalues --  -10.19903 -10.19237 -10.18744 -10.18457 -10.18395
 Alpha  occ. eigenvalues --  -10.18323 -10.18218 -10.17275  -1.13273  -1.09433
 Alpha  occ. eigenvalues --   -1.03939  -1.01776  -1.01078  -1.01000  -0.99447
 Alpha  occ. eigenvalues --   -0.98744  -0.94018  -0.91782  -0.83886  -0.82110
 Alpha  occ. eigenvalues --   -0.81973  -0.80570  -0.79416  -0.79050  -0.78978
 Alpha  occ. eigenvalues --   -0.77262  -0.76462  -0.75212  -0.74036  -0.72600
 Alpha  occ. eigenvalues --   -0.70588  -0.70075  -0.69572  -0.68027  -0.67635
 Alpha  occ. eigenvalues --   -0.66958  -0.65562  -0.64429  -0.62447  -0.61521
 Alpha  occ. eigenvalues --   -0.59764  -0.59188  -0.58560  -0.58220  -0.57006
 Alpha  occ. eigenvalues --   -0.56086  -0.55982  -0.54438  -0.54130  -0.53683
 Alpha  occ. eigenvalues --   -0.52838  -0.52265  -0.51510  -0.51148  -0.50614
 Alpha  occ. eigenvalues --   -0.50196  -0.49919  -0.48755  -0.48584  -0.47781
 Alpha  occ. eigenvalues --   -0.47514  -0.46636  -0.46232  -0.46021  -0.45362
 Alpha  occ. eigenvalues --   -0.45042  -0.44855  -0.44567  -0.44018  -0.43737
 Alpha  occ. eigenvalues --   -0.43678  -0.43376  -0.42959  -0.42379  -0.42184
 Alpha  occ. eigenvalues --   -0.42066  -0.41946  -0.41512  -0.41230  -0.40978
 Alpha  occ. eigenvalues --   -0.40766  -0.40487  -0.40290  -0.40250  -0.39988
 Alpha  occ. eigenvalues --   -0.39794  -0.39304  -0.39131  -0.38990  -0.38430
 Alpha  occ. eigenvalues --   -0.38280  -0.37811  -0.37463  -0.36954  -0.36863
 Alpha  occ. eigenvalues --   -0.36452  -0.35642  -0.35576  -0.34827  -0.34759
 Alpha  occ. eigenvalues --   -0.34365  -0.34168  -0.33599  -0.33108  -0.32887
 Alpha  occ. eigenvalues --   -0.32686  -0.31430  -0.31072  -0.30945  -0.30584
 Alpha  occ. eigenvalues --   -0.28347  -0.27254  -0.26849  -0.26163  -0.25882
 Alpha  occ. eigenvalues --   -0.24933  -0.24569  -0.23958  -0.23451  -0.21688
 Alpha  occ. eigenvalues --   -0.18437
 Alpha virt. eigenvalues --   -0.10208  -0.05842  -0.04118  -0.01038  -0.00216
 Alpha virt. eigenvalues --    0.01103   0.02098   0.02534   0.03478   0.03917
 Alpha virt. eigenvalues --    0.04400   0.04831   0.05225   0.05585   0.05903

 Mulliken charges:
               1
     1  O   -0.205929
     2  O   -0.253193
     3  O   -0.246337
     4  O   -0.140353
     5  O   -0.188486
     6  O   -0.219608
     7  N   -0.092200
     8  N   -0.109359
     9  N   -0.113206
    10  N   -0.306719
    11  C   -0.108851
    12  C    0.099115
    13  C   -0.152723
    14  C    0.055957
    15  C   -0.134818
    16  C    0.115148
    17  C   -0.082839
    18  C   -0.165216
    19  C    0.189691
    20  C   -0.062847
    21  C    0.136668
    22  C    0.070907
    23  C   -0.009108
    24  C    0.073114
    25  C   -0.084916
    26  C   -0.052715
    27  C    0.101434
    28  C    0.136272
    29  C   -0.029735
    30  C    0.090865
    31  C   -0.155698
    32  C    0.121499
    33  C   -0.164630
    34  C    0.109221
    35  C   -0.082967
    36  C   -0.199362
    37  C    0.097493
    38  C   -0.004401
    39  C    0.127209
    40  C    0.180626
    41  C    0.155489
    42  C    0.034663
    43  C   -0.030094
    44  H    0.172032
    45  H   -0.008102
    46  H   -0.010228
    47  H   -0.026220
    48  H    0.052632
    49  H    0.014029
    50  H    0.056135
    51  H   -0.025348
    52  H    0.213646
    53  H    0.065269
    54  H    0.050195
    55  H    0.030148
    56  H    0.101764
    57  H   -0.042595
    58  H    0.057501
    59  H    0.070680
    60  H    0.022072
    61  H    0.030690
    62  H    0.046051
    63  H    0.020861
    64  H   -0.001920
    65  H    0.029094
    66  H    0.036077
    67  H   -0.034194
    68  H    0.002017
    69  H    0.085861
    70  H   -0.001298
    71  H    0.043758
    72  H   -0.034138
    73  H   -0.040831
    74  H    0.048732
    75  H    0.015012
    76  H    0.033521
    77  H    0.019158
    78  H    0.011257
    79  H    0.018470
    80  H    0.172767
    81  H    0.206385
 Sum of Mulliken charges =  -0.00000

 Dipole moment (field-independent basis, Debye):
    X=             -2.6756    Y=             -0.3583    Z=              0.6077  Tot=              2.7670
 Quadrupole moment (field-independent basis, Debye-Ang):
   XX=           -243.9730   YY=           -248.7613   ZZ=           -257.2175
   XY=             16.2466   XZ=             15.2551   YZ=            -19.0126

 Normal termination of Gaussian 16 at Fri Jun 28 02:15:24 2019.
