 Gaussian 16, Revision A.03,
 Gaussian 16:  ES64L-G16RevA.03 25-Dec-2016

 --------------------------
 # td=(NStates=1) B3LYP/SVP
 --------------------------

 --
 TD
 --
 Symbolic Z-matrix:
 Charge =  0 Multiplicity = 1

                         Standard orientation:
 ---------------------------------------------------------------------
 Center     Atomic      Atomic             Coordinates (Angstroms)
 Number     Number       Type             X           Y           Z
 ---------------------------------------------------------------------
      1          8           0       -4.414406   -4.739851    1.903337
      2          8           0        3.172349   -4.981873    1.285605
      3          8           0        7.275058   -1.292522    1.820280
      4          8           0        3.751923   -3.086147    0.287840
      5          8           0        7.589609   -0.320598   -0.207616
      6          8           0       -3.008848    2.368432   -0.151235
      7          7           0       -0.303546   -0.562672   -0.663646
      8          7           0        1.448210    1.863728   -0.412730
      9          7           0       -3.346539   -3.161196    0.602151
     10          7           0       -0.795406    3.001663   -0.113722
     11          6           0        0.651640   -2.470964   -1.432458
     12          6           0        0.913929   -1.142862   -0.977020
     13          6           0       -0.730268   -2.697028   -1.245164
     14          6           0       -1.234016   -1.495074   -0.711309
     15          6           0        3.703343    1.416241   -0.289347
     16          6           0        2.429411    0.794793   -0.497590
     17          6           0        2.246212   -0.485355   -0.800034
     18          6           0        3.448728    2.760690   -0.013229
     19          6           0        1.723876   -3.513388   -1.886860
     20          6           0       -5.543044   -2.637316    1.336335
     21          6           0       -3.626709   -1.952711    0.144164
     22          6           0        2.023588    2.966568   -0.135994
     23          6           0       -4.991294   -1.629626    0.288552
     24          6           0        5.040575    0.712614   -0.487360
     25          6           0       -2.680961   -1.177602   -0.552452
     26          6           0       -1.467746   -3.944610   -1.728443
     27          6           0       -4.432166   -3.690985    1.363279
     28          6           0        2.134333   -4.513427   -0.900101
     29          6           0        5.437706   -0.014476    0.831160
     30          6           0        4.407247    3.778495    0.279801
     31          6           0        1.227465    4.167794    0.119139
     32          6           0       -6.933578   -3.175555    1.124649
     33          6           0       -5.812728   -0.633579   -0.278839
     34          6           0       -0.103783    4.117806    0.181054
     35          6           0       -1.077572    5.196800    0.513820
     36          6           0       -2.260224    4.723707    0.348294
     37          6           0        3.075676   -4.079933    0.259873
     38          6           0       -5.482011    0.226389   -1.298518
     39          6           0        6.950707   -0.590239    0.763514
     40          6           0       -3.653131    5.336521    0.498682
     41          6           0       -2.124866    3.222366    0.029815
     42          6           0       -0.613789    6.556530    0.939038
     43          6           0       -4.312148    5.635576   -0.789304
     44          1           0       -0.474489    0.353176   -0.153695
     45          1           0        3.170440   -1.190939   -0.864420
     46          1           0        2.553174   -2.757399   -2.342049
     47          1           0        1.186839   -3.967901   -2.667807
     48          1           0       -5.538305   -2.185491    2.536731
     49          1           0        5.030262   -0.183905   -1.367354
     50          1           0        5.871865    1.468081   -0.717044
     51          1           0       -2.987128   -0.130584   -0.814893
     52          1           0        0.418633    1.984917   -0.322359
     53          1           0       -1.381599   -4.813597   -0.885330
     54          1           0       -2.530163   -3.963317   -1.753129
     55          1           0       -0.929253   -4.252644   -2.687553
     56          1           0       -2.283176   -3.554430    0.744124
     57          1           0        1.302269   -5.070083   -0.428314
     58          1           0        2.736691   -5.304233   -1.397439
     59          1           0        4.938359   -1.113405    0.707464
     60          1           0        5.182565    0.776104    1.577099
     61          1           0        4.422778    4.678471   -0.378704
     62          1           0        5.422945    3.408476    0.111165
     63          1           0        4.409937    4.246787    1.260336
     64          1           0        1.808848    5.175465    0.380140
     65          1           0       -7.756537   -2.291271    1.327424
     66          1           0       -7.068195   -3.989915    1.814369
     67          1           0       -6.991591   -3.701817    0.140263
     68          1           0       -6.914399   -0.746137    0.215310
     69          1           0       -4.799936    1.244233   -0.833664
     70          1           0       -6.376374    0.766792   -1.857134
     71          1           0       -4.873732   -0.088315   -2.199728
     72          1           0       -3.857662    6.253377    1.091543
     73          1           0       -4.398174    4.730427    1.131031
     74          1           0        0.287083    6.454122    1.680339
     75          1           0       -1.560020    7.087487    1.296755
     76          1           0       -0.203384    7.179478    0.041335
     77          1           0       -3.857430    6.516954   -1.390958
     78          1           0       -5.281865    6.118595   -0.640371
     79          1           0       -4.386262    4.766391   -1.458803
     80          1           0        3.585027   -4.502864    2.033483
     81          1           0        8.171017   -1.580234    1.698907
 ---------------------------------------------------------------------

 SCF Done:  E(RB3LYP) =  -1949.13154170     A.U. after   16 cycles

 Excitation energies and oscillator strengths:

 Excited State   1:      Singlet-A      1.9726 eV  628.52 nm  f=0.3407  <S**2>=0.000
     156 ->157         0.70498
 This state for optimization and/or second-order correction.
 Total Energy, E(TD-HF/TD-DFT) =  -1949.05904893
 Copying the excited state density for this state as the 1-particle RhoCI density.

 The electronic state is 1-A.
 Alpha  occ. eigenvalues --  -19.20243 -19.19438 -19.15031 -19.13016 -19.11867
 Alpha  occ. eigenvalues --  -19.09146 -14.38204 -14.37119 -14.35587 -14.27755
 Alpha  occ. eigenvalues --  -10.34240 -10.32552 -10.29356 -10.25722 -10.23929
 Alpha  occ. eigenvalues --  -10.23105 -10.23087 -10.23021 -10.22887 -10.22795
 Alpha  occ. eigenvalues --  -10.22281 -10.21921 -10.21883 -10.21716 -10.21410
 Alpha  occ. eigenvalues --  -10.21310 -10.21050 -10.20799 -10.20796 -10.20391
 Alpha  occ. eigenvalues --  -10.19941 -10.19798 -10.19688 -10.19513 -10.19418
 Alpha  occ. eigenvalues --  -10.19157 -10.18984 -10.18975 -10.18707 -10.18409
 Alpha  occ. eigenvalues --  -10.18017 -10.17920 -10.17202  -1.12368  -1.11311
 Alpha  occ. eigenvalues --   -1.05564  -1.02906  -1.02234  -0.99914  -0.99332
 Alpha  occ. eigenvalues --   -0.98920  -0.96330  -0.91873  -0.83083  -0.82593
 Alpha  occ. eigenvalues --   -0.80891  -0.80606  -0.79460  -0.78504  -0.77432
 Alpha  occ. eigenvalues --   -0.76490  -0.76231  -0.75153  -0.74144  -0.72328
 Alpha  occ. eigenvalues --   -0.70996  -0.69367  -0.68903  -0.68295  -0.67625
 Alpha  occ. eigenvalues --   -0.67306  -0.64862  -0.62780  -0.61559  -0.61227
 Alpha  occ. eigenvalues --   -0.60900  -0.59807  -0.57859  -0.57100  -0.56710
 Alpha  occ. eigenvalues --   -0.55507  -0.55122  -0.55034  -0.53380  -0.52286
 Alpha  occ. eigenvalues --   -0.52003  -0.51910  -0.51201  -0.50515  -0.49991
 Alpha  occ. eigenvalues --   -0.49374  -0.49190  -0.49078  -0.48610  -0.47807
 Alpha  occ. eigenvalues --   -0.47069  -0.46820  -0.45996  -0.45505  -0.45213
 Alpha  occ. eigenvalues --   -0.44732  -0.44538  -0.44223  -0.44133  -0.43629
 Alpha  occ. eigenvalues --   -0.43303  -0.43075  -0.42848  -0.42697  -0.42476
 Alpha  occ. eigenvalues --   -0.42051  -0.41674  -0.41310  -0.41017  -0.40825
 Alpha  occ. eigenvalues --   -0.40597  -0.40394  -0.40090  -0.39315  -0.39090
 Alpha  occ. eigenvalues --   -0.38925  -0.38623  -0.38604  -0.38440  -0.37827
 Alpha  occ. eigenvalues --   -0.37724  -0.37437  -0.37326  -0.36723  -0.36419
 Alpha  occ. eigenvalues --   -0.36017  -0.35721  -0.35605  -0.35238  -0.34424
 Alpha  occ. eigenvalues --   -0.33990  -0.33940  -0.33696  -0.33517  -0.33236
 Alpha  occ. eigenvalues --   -0.32862  -0.31965  -0.30465  -0.30251  -0.29975
 Alpha  occ. eigenvalues --   -0.27441  -0.26898  -0.26508  -0.25686  -0.25418
 Alpha  occ. eigenvalues --   -0.24801  -0.24487  -0.23544  -0.23281  -0.20635
 Alpha  occ. eigenvalues --   -0.17771
 Alpha virt. eigenvalues --   -0.09559  -0.05008  -0.03659  -0.01730  -0.01030
 Alpha virt. eigenvalues --    0.01310   0.01671   0.02549   0.03311   0.04208
 Alpha virt. eigenvalues --    0.04463   0.04631   0.04841   0.05089   0.05586

 Mulliken charges:
               1
     1  O   -0.157987
     2  O   -0.201474
     3  O   -0.121411
     4  O   -0.204784
     5  O   -0.208035
     6  O   -0.241371
     7  N   -0.038562
     8  N   -0.029579
     9  N   -0.156930
    10  N   -0.298202
    11  C   -0.170083
    12  C    0.022398
    13  C   -0.151158
    14  C   -0.000293
    15  C   -0.049094
    16  C    0.164546
    17  C   -0.114582
    18  C   -0.117270
    19  C    0.139164
    20  C   -0.152459
    21  C    0.075278
    22  C    0.000732
    23  C   -0.048847
    24  C   -0.000150
    25  C   -0.129094
    26  C    0.060505
    27  C    0.118666
    28  C    0.049733
    29  C   -0.093778
    30  C    0.094043
    31  C   -0.154515
    32  C    0.035263
    33  C   -0.047960
    34  C    0.112240
    35  C   -0.068027
    36  C   -0.148328
    37  C    0.119402
    38  C   -0.085686
    39  C    0.114600
    40  C    0.050099
    41  C    0.154736
    42  C    0.046633
    43  C   -0.016881
    44  H    0.171039
    45  H    0.052200
    46  H    0.043973
    47  H   -0.018639
    48  H    0.067300
    49  H    0.044350
    50  H    0.038840
    51  H    0.024088
    52  H    0.122640
    53  H    0.014480
    54  H    0.020862
    55  H    0.041892
    56  H    0.186967
    57  H    0.037283
    58  H    0.047404
    59  H    0.090375
    60  H    0.052126
    61  H    0.013580
    62  H   -0.008960
    63  H    0.014967
    64  H    0.003253
    65  H    0.050938
    66  H    0.019463
    67  H    0.018219
    68  H    0.019908
    69  H    0.125978
    70  H    0.021658
    71  H    0.048331
    72  H   -0.016494
    73  H    0.012081
    74  H    0.038557
    75  H    0.030426
    76  H    0.036749
    77  H   -0.000122
    78  H   -0.005117
    79  H    0.029602
    80  H    0.191931
    81  H    0.166377
 Sum of Mulliken charges =  -0.00000

 Dipole moment (field-independent basis, Debye):
    X=              3.8876    Y=             -1.0056    Z=              1.3139  Tot=              4.2251
 Quadrupole moment (field-independent basis, Debye-Ang):
   XX=           -242.4734   YY=           -242.5765   ZZ=           -254.4319
   XY=            -15.3852   XZ=             16.1428   YZ=             11.6649

 Normal termination of Gaussian 16 at Mon Jul  1 16:09:15 2019.
