 Gaussian 16, Revision A.03,
 Gaussian 16:  ES64L-G16RevA.03 25-Dec-2016

 --------------------------
 # td=(NStates=1) B3LYP/SVP
 --------------------------

 --
 TD
 --
 Symbolic Z-matrix:
 Charge =  0 Multiplicity = 1

                         Standard orientation:
 ---------------------------------------------------------------------
 Center     Atomic      Atomic             Coordinates (Angstroms)
 Number     Number       Type             X           Y           Z
 ---------------------------------------------------------------------
      1          8           0        4.639425   -4.798179   -1.840201
      2          8           0       -3.030807   -4.736715   -1.226251
      3          8           0       -6.924047   -1.545117   -1.966089
      4          8           0       -3.918369   -3.090250   -0.029282
      5          8           0       -7.552238   -0.535715   -0.122874
      6          8           0        3.063058    2.497722    0.162390
      7          7           0        0.281183   -0.613038    0.576110
      8          7           0       -1.492569    1.806708    0.401862
      9          7           0        3.513561   -3.174373   -0.708810
     10          7           0        0.779474    2.928214    0.222534
     11          6           0       -0.685249   -2.425370    1.525742
     12          6           0       -0.922244   -1.089924    1.019534
     13          6           0        0.754442   -2.638492    1.222838
     14          6           0        1.275992   -1.501442    0.735113
     15          6           0       -3.822412    1.481048    0.449405
     16          6           0       -2.493629    0.782762    0.623034
     17          6           0       -2.216652   -0.508962    0.985547
     18          6           0       -3.565096    2.786866    0.016371
     19          6           0       -1.693737   -3.440808    2.002960
     20          6           0        5.598219   -2.585972   -1.401474
     21          6           0        3.607344   -1.814132   -0.244186
     22          6           0       -2.046999    2.964645    0.160290
     23          6           0        4.987534   -1.458670   -0.509454
     24          6           0       -5.079993    0.665159    0.384185
     25          6           0        2.686580   -1.116425    0.408594
     26          6           0        1.511230   -3.925922    1.751357
     27          6           0        4.547414   -3.678294   -1.418865
     28          6           0       -2.122948   -4.540874    0.988125
     29          6           0       -5.243344   -0.169433   -0.936792
     30          6           0       -4.620194    3.710358   -0.319708
     31          6           0       -1.388368    4.175456   -0.204442
     32          6           0        6.928772   -3.087105   -1.089848
     33          6           0        5.722884   -0.471321    0.150464
     34          6           0        0.063337    4.094728   -0.063948
     35          6           0        0.963663    5.223010   -0.494968
     36          6           0        2.194853    4.756961   -0.329533
     37          6           0       -3.111306   -4.039824   -0.090407
     38          6           0        5.343600    0.498475    1.177240
     39          6           0       -6.626528   -0.686240   -0.956712
     40          6           0        3.576588    5.318044   -0.480711
     41          6           0        2.098691    3.272459    0.028745
     42          6           0        0.445611    6.558576   -0.868971
     43          6           0        4.326221    5.458346    0.873300
     44          1           0        0.564665    0.243050    0.082082
     45          1           0       -2.945156   -1.123065    1.196186
     46          1           0       -2.565860   -2.786694    2.140637
     47          1           0       -1.389166   -3.978610    3.015290
     48          1           0        5.469793   -2.333081   -2.268808
     49          1           0       -5.178925   -0.037556    1.200890
     50          1           0       -5.997963    1.201439    0.272971
     51          1           0        2.986676   -0.186879    0.778167
     52          1           0       -0.355848    1.760252    0.729654
     53          1           0        1.684513   -4.655298    0.946010
     54          1           0        2.448473   -3.684414    2.455674
     55          1           0        0.713060   -4.481518    2.548387
     56          1           0        2.573661   -3.587784   -0.493321
     57          1           0       -1.375400   -5.053123    0.394633
     58          1           0       -2.819340   -5.363530    1.404355
     59          1           0       -4.409855   -0.834716   -0.974685
     60          1           0       -5.385167    0.413525   -1.812943
     61          1           0       -4.987314    4.512938    0.571432
     62          1           0       -5.647511    3.172705   -0.505465
     63          1           0       -4.373621    4.226860   -1.141305
     64          1           0       -2.009803    4.897282   -0.626123
     65          1           0        7.677400   -2.336998   -1.388217
     66          1           0        7.150190   -4.027864   -1.545047
     67          1           0        7.267335   -3.343427    0.136885
     68          1           0        6.867453   -0.527830   -0.307208
     69          1           0        4.612528    1.419259    0.881693
     70          1           0        6.361653    0.836086    1.495489
     71          1           0        4.937750   -0.104777    2.002262
     72          1           0        3.432874    6.282617   -1.109779
     73          1           0        4.234097    4.502169   -0.922339
     74          1           0       -0.203108    6.273250   -1.723020
     75          1           0        1.203788    7.477971   -1.203477
     76          1           0       -0.320749    6.914566   -0.000486
     77          1           0        3.876740    6.045788    1.554489
     78          1           0        5.310439    5.904041    0.642684
     79          1           0        4.708647    4.414761    1.234416
     80          1           0       -3.986326   -4.499401   -1.730885
     81          1           0       -7.883982   -1.924632   -1.751557
 ---------------------------------------------------------------------

 SCF Done:  E(RB3LYP) =  -1949.06698806     A.U. after   16 cycles

 Excitation energies and oscillator strengths:

 Excited State   1:      Singlet-A      2.1474 eV  577.36 nm  f=0.3252  <S**2>=0.000
     156 ->157         0.69902
 This state for optimization and/or second-order correction.
 Total Energy, E(TD-HF/TD-DFT) =  -1948.98807084
 Copying the excited state density for this state as the 1-particle RhoCI density.

 The electronic state is 1-A.
 Alpha  occ. eigenvalues --  -19.20458 -19.18120 -19.13921 -19.12224 -19.10744
 Alpha  occ. eigenvalues --  -19.10178 -14.38261 -14.37068 -14.36309 -14.30516
 Alpha  occ. eigenvalues --  -10.33723 -10.32338 -10.28163 -10.26948 -10.25362
 Alpha  occ. eigenvalues --  -10.24876 -10.24108 -10.23792 -10.23419 -10.23309
 Alpha  occ. eigenvalues --  -10.22779 -10.22727 -10.22212 -10.22069 -10.21580
 Alpha  occ. eigenvalues --  -10.21145 -10.21078 -10.20952 -10.20848 -10.20681
 Alpha  occ. eigenvalues --  -10.20644 -10.20122 -10.19948 -10.19765 -10.19635
 Alpha  occ. eigenvalues --  -10.19450 -10.19357 -10.19041 -10.18710 -10.18438
 Alpha  occ. eigenvalues --  -10.18349 -10.18119 -10.17604  -1.10199  -1.08321
 Alpha  occ. eigenvalues --   -1.03572  -1.00771  -0.99670  -0.99576  -0.97499
 Alpha  occ. eigenvalues --   -0.97445  -0.94399  -0.91423  -0.83099  -0.82257
 Alpha  occ. eigenvalues --   -0.81291  -0.81104  -0.80037  -0.79336  -0.78801
 Alpha  occ. eigenvalues --   -0.77480  -0.77127  -0.75482  -0.74553  -0.72681
 Alpha  occ. eigenvalues --   -0.71227  -0.69268  -0.69115  -0.68211  -0.67835
 Alpha  occ. eigenvalues --   -0.67380  -0.65402  -0.64296  -0.62251  -0.60965
 Alpha  occ. eigenvalues --   -0.59990  -0.59726  -0.58859  -0.58263  -0.56533
 Alpha  occ. eigenvalues --   -0.56070  -0.55505  -0.54896  -0.53698  -0.52703
 Alpha  occ. eigenvalues --   -0.51639  -0.51446  -0.50955  -0.50701  -0.50001
 Alpha  occ. eigenvalues --   -0.49235  -0.48978  -0.48366  -0.48165  -0.47906
 Alpha  occ. eigenvalues --   -0.47264  -0.47006  -0.46442  -0.46225  -0.45010
 Alpha  occ. eigenvalues --   -0.44865  -0.44607  -0.44078  -0.43891  -0.43642
 Alpha  occ. eigenvalues --   -0.43300  -0.43256  -0.42852  -0.42718  -0.42226
 Alpha  occ. eigenvalues --   -0.42203  -0.42020  -0.41629  -0.41297  -0.41072
 Alpha  occ. eigenvalues --   -0.40485  -0.40296  -0.40255  -0.40016  -0.39573
 Alpha  occ. eigenvalues --   -0.39480  -0.39219  -0.38975  -0.38387  -0.38205
 Alpha  occ. eigenvalues --   -0.37957  -0.37545  -0.37332  -0.36945  -0.36918
 Alpha  occ. eigenvalues --   -0.36295  -0.35873  -0.35693  -0.35020  -0.34794
 Alpha  occ. eigenvalues --   -0.34713  -0.33707  -0.33246  -0.32924  -0.32544
 Alpha  occ. eigenvalues --   -0.32404  -0.31694  -0.31163  -0.30462  -0.29243
 Alpha  occ. eigenvalues --   -0.28444  -0.27593  -0.26085  -0.25888  -0.25285
 Alpha  occ. eigenvalues --   -0.25110  -0.24749  -0.24624  -0.23682  -0.21870
 Alpha  occ. eigenvalues --   -0.19142
 Alpha virt. eigenvalues --   -0.10373  -0.05922  -0.03622  -0.01899  -0.00740
 Alpha virt. eigenvalues --    0.00705   0.01280   0.02418   0.02439   0.03120
 Alpha virt. eigenvalues --    0.03510   0.03983   0.04401   0.04767   0.05998

 Mulliken charges:
               1
     1  O   -0.198054
     2  O   -0.225200
     3  O   -0.240227
     4  O   -0.275858
     5  O   -0.287630
     6  O   -0.240913
     7  N   -0.042878
     8  N   -0.158410
     9  N   -0.140341
    10  N   -0.328543
    11  C   -0.130462
    12  C    0.082952
    13  C   -0.152881
    14  C    0.037610
    15  C   -0.015997
    16  C    0.066722
    17  C    0.043245
    18  C   -0.137295
    19  C    0.076723
    20  C    0.136830
    21  C    0.101422
    22  C    0.080394
    23  C   -0.043522
    24  C    0.075031
    25  C   -0.083136
    26  C   -0.024780
    27  C    0.068627
    28  C    0.048562
    29  C    0.058823
    30  C    0.054764
    31  C   -0.089677
    32  C    0.016880
    33  C   -0.183287
    34  C    0.121286
    35  C   -0.090024
    36  C   -0.162293
    37  C    0.103833
    38  C    0.021035
    39  C    0.144891
    40  C    0.055336
    41  C    0.169220
    42  C    0.011614
    43  C    0.008965
    44  H    0.144152
    45  H   -0.100132
    46  H    0.020297
    47  H    0.044170
    48  H   -0.072307
    49  H    0.027800
    50  H    0.001858
    51  H   -0.025478
    52  H    0.228040
    53  H    0.040502
    54  H    0.066338
    55  H    0.021502
    56  H    0.129943
    57  H    0.034095
    58  H    0.056661
    59  H    0.054516
    60  H    0.018032
    61  H    0.051139
    62  H    0.027856
    63  H   -0.004376
    64  H   -0.041733
    65  H    0.015104
    66  H    0.024285
    67  H    0.026197
    68  H    0.016388
    69  H    0.142652
    70  H    0.013616
    71  H    0.027345
    72  H    0.009531
    73  H    0.023613
    74  H    0.032907
    75  H    0.057973
    76  H    0.049473
    77  H   -0.006856
    78  H    0.000110
    79  H    0.044568
    80  H    0.245777
    81  H    0.221087
 Sum of Mulliken charges =  -0.00000

 Dipole moment (field-independent basis, Debye):
    X=             -3.9061    Y=              1.3539    Z=             -0.2581  Tot=              4.1422
 Quadrupole moment (field-independent basis, Debye-Ang):
   XX=           -261.0272   YY=           -238.9078   ZZ=           -255.2380
   XY=             21.8866   XZ=             16.7580   YZ=            -14.7754

 Normal termination of Gaussian 16 at Wed Jul  3 12:36:54 2019.
