 Gaussian 16, Revision A.03,
 Gaussian 16:  ES64L-G16RevA.03 25-Dec-2016

 --------------------------
 # td=(NStates=1) B3LYP/SVP
 --------------------------

 --
 TD
 --
 Symbolic Z-matrix:
 Charge =  0 Multiplicity = 1

                         Standard orientation:
 ---------------------------------------------------------------------
 Center     Atomic      Atomic             Coordinates (Angstroms)
 Number     Number       Type             X           Y           Z
 ---------------------------------------------------------------------
      1          8           0        4.587138   -4.661303   -1.832068
      2          8           0       -2.776244   -4.929159   -1.216337
      3          8           0       -7.029283   -1.808952   -1.772030
      4          8           0       -3.737102   -3.247115   -0.061379
      5          8           0       -7.566975   -0.737013    0.101604
      6          8           0        2.888245    2.544642    0.317591
      7          7           0        0.466057   -0.526725    0.465555
      8          7           0       -1.588908    1.796966    0.440608
      9          7           0        3.580828   -2.957477   -0.572471
     10          7           0        0.544817    2.967661    0.111579
     11          6           0       -0.463689   -2.358424    1.434403
     12          6           0       -0.773794   -1.115703    0.967841
     13          6           0        0.946558   -2.545700    1.220714
     14          6           0        1.481310   -1.353486    0.715720
     15          6           0       -3.832400    1.300777    0.364584
     16          6           0       -2.591378    0.740600    0.642995
     17          6           0       -2.113850   -0.561809    0.915494
     18          6           0       -3.716113    2.636055   -0.069901
     19          6           0       -1.445990   -3.520045    1.952724
     20          6           0        5.712707   -2.437545   -1.344044
     21          6           0        3.706376   -1.760323   -0.237742
     22          6           0       -2.272658    2.824784    0.023589
     23          6           0        5.152024   -1.382142   -0.488384
     24          6           0       -5.136420    0.512596    0.389635
     25          6           0        2.714317   -0.916934    0.255383
     26          6           0        1.682758   -3.817620    1.805972
     27          6           0        4.605740   -3.552284   -1.293322
     28          6           0       -1.904732   -4.562485    0.946710
     29          6           0       -5.336758   -0.379026   -0.878476
     30          6           0       -4.737035    3.686735   -0.319172
     31          6           0       -1.511497    4.039461   -0.475204
     32          6           0        7.069861   -3.138634   -0.995669
     33          6           0        5.833314   -0.282841    0.059943
     34          6           0       -0.137695    4.029397   -0.308821
     35          6           0        0.845464    5.191500   -0.656764
     36          6           0        2.028746    4.764485   -0.383022
     37          6           0       -2.843923   -4.145140   -0.213698
     38          6           0        5.453952    0.746412    1.112722
     39          6           0       -6.746171   -0.954767   -0.743274
     40          6           0        3.337051    5.494499   -0.373472
     41          6           0        1.925054    3.251360    0.129407
     42          6           0        0.328576    6.514494   -0.917782
     43          6           0        3.825901    5.779206    1.079000
     44          1           0        0.421723    0.379949   -0.058755
     45          1           0       -2.904124   -1.133906    1.209427
     46          1           0       -2.256252   -2.898733    2.278956
     47          1           0       -0.999265   -3.928351    2.854923
     48          1           0        5.637355   -2.115703   -2.408796
     49          1           0       -4.932173   -0.250781    1.287099
     50          1           0       -5.881486    0.984328    0.678442
     51          1           0        2.889784    0.026481    0.283365
     52          1           0       -0.500092    1.775699    0.399757
     53          1           0        1.626098   -4.873109    1.405091
     54          1           0        2.904704   -3.675457    1.920943
     55          1           0        1.263277   -4.060599    2.794314
     56          1           0        2.506437   -3.284776   -0.447075
     57          1           0       -1.133513   -5.343977    0.401325
     58          1           0       -2.553660   -5.343558    1.519820
     59          1           0       -4.687751   -1.232794   -1.128646
     60          1           0       -5.106729    0.089401   -1.774850
     61          1           0       -4.732701    4.461621    0.394683
     62          1           0       -5.754612    3.209388   -0.211822
     63          1           0       -4.996997    4.242716   -1.299751
     64          1           0       -2.167546    4.880421   -0.817565
     65          1           0        7.836231   -2.343637   -1.098231
     66          1           0        7.411432   -3.849599   -1.772011
     67          1           0        7.236974   -3.628400    0.090595
     68          1           0        6.766754   -0.143643   -0.383851
     69          1           0        4.953018    1.598395    0.532164
     70          1           0        6.341594    0.995069    1.399531
     71          1           0        4.588867    0.094657    1.707100
     72          1           0        3.459640    6.548945   -0.719114
     73          1           0        4.044578    4.827891   -0.799137
     74          1           0       -0.162717    6.518449   -1.898193
     75          1           0        0.980758    7.397701   -1.022732
     76          1           0       -0.563824    6.983589   -0.154313
     77          1           0        2.767554    6.148242    1.757666
     78          1           0        4.849540    6.431122    1.298475
     79          1           0        3.842847    4.951643    1.702990
     80          1           0       -3.530717   -4.915515   -1.874828
     81          1           0       -7.924458   -2.139662   -1.371501
 ---------------------------------------------------------------------

 SCF Done:  E(RB3LYP) =  -1949.01598453     A.U. after   16 cycles

 Excitation energies and oscillator strengths:

 Excited State   1:      Singlet-A      2.0212 eV  613.42 nm  f=0.4286  <S**2>=0.000
     156 ->157         0.70551
 This state for optimization and/or second-order correction.
 Total Energy, E(TD-HF/TD-DFT) =  -1948.94170719
 Copying the excited state density for this state as the 1-particle RhoCI density.

 The electronic state is 1-A.
 Alpha  occ. eigenvalues --  -19.21967 -19.17869 -19.13185 -19.13137 -19.12373
 Alpha  occ. eigenvalues --  -19.10578 -14.38548 -14.37736 -14.34872 -14.28742
 Alpha  occ. eigenvalues --  -10.34361 -10.31853 -10.30449 -10.26947 -10.24253
 Alpha  occ. eigenvalues --  -10.24077 -10.23551 -10.23534 -10.23525 -10.22902
 Alpha  occ. eigenvalues --  -10.22135 -10.21979 -10.21806 -10.21777 -10.21719
 Alpha  occ. eigenvalues --  -10.20710 -10.20592 -10.20504 -10.20342 -10.20229
 Alpha  occ. eigenvalues --  -10.20197 -10.20161 -10.20089 -10.20077 -10.19580
 Alpha  occ. eigenvalues --  -10.19356 -10.18988 -10.18318 -10.18211 -10.18100
 Alpha  occ. eigenvalues --  -10.18037 -10.17366 -10.16653  -1.13335  -1.09705
 Alpha  occ. eigenvalues --   -1.04325  -1.01681  -1.00187  -0.99318  -0.99064
 Alpha  occ. eigenvalues --   -0.98075  -0.97136  -0.91036  -0.82516  -0.81941
 Alpha  occ. eigenvalues --   -0.81576  -0.80198  -0.79403  -0.78376  -0.77714
 Alpha  occ. eigenvalues --   -0.77253  -0.75814  -0.74598  -0.73783  -0.71859
 Alpha  occ. eigenvalues --   -0.71123  -0.70367  -0.69446  -0.68570  -0.68129
 Alpha  occ. eigenvalues --   -0.67121  -0.65903  -0.63928  -0.63420  -0.62162
 Alpha  occ. eigenvalues --   -0.60262  -0.59556  -0.58359  -0.57724  -0.57531
 Alpha  occ. eigenvalues --   -0.56431  -0.55342  -0.55207  -0.53984  -0.52650
 Alpha  occ. eigenvalues --   -0.52029  -0.51605  -0.50607  -0.50126  -0.49742
 Alpha  occ. eigenvalues --   -0.49039  -0.48873  -0.48822  -0.48547  -0.48132
 Alpha  occ. eigenvalues --   -0.47302  -0.46709  -0.46179  -0.45907  -0.45564
 Alpha  occ. eigenvalues --   -0.44692  -0.44318  -0.44208  -0.43909  -0.43726
 Alpha  occ. eigenvalues --   -0.43615  -0.43072  -0.42838  -0.42441  -0.42118
 Alpha  occ. eigenvalues --   -0.41595  -0.41552  -0.41243  -0.40929  -0.40844
 Alpha  occ. eigenvalues --   -0.40534  -0.40268  -0.40095  -0.39824  -0.39314
 Alpha  occ. eigenvalues --   -0.39043  -0.38779  -0.38527  -0.38350  -0.38120
 Alpha  occ. eigenvalues --   -0.37642  -0.37625  -0.37508  -0.36789  -0.36569
 Alpha  occ. eigenvalues --   -0.36347  -0.36051  -0.35167  -0.35149  -0.34579
 Alpha  occ. eigenvalues --   -0.34501  -0.33768  -0.33172  -0.33065  -0.32692
 Alpha  occ. eigenvalues --   -0.32459  -0.32127  -0.30375  -0.29572  -0.29019
 Alpha  occ. eigenvalues --   -0.28440  -0.27199  -0.27083  -0.26345  -0.25362
 Alpha  occ. eigenvalues --   -0.24904  -0.24200  -0.23709  -0.23446  -0.20786
 Alpha  occ. eigenvalues --   -0.17938
 Alpha virt. eigenvalues --   -0.09734  -0.04812  -0.03680  -0.02452  -0.01036
 Alpha virt. eigenvalues --    0.00564   0.01811   0.02422   0.03102   0.03973
 Alpha virt. eigenvalues --    0.04329   0.04851   0.05298   0.05951   0.06073

 Mulliken charges:
               1
     1  O   -0.210379
     2  O   -0.122053
     3  O   -0.226959
     4  O   -0.296517
     5  O   -0.225843
     6  O   -0.201030
     7  N   -0.115663
     8  N   -0.116695
     9  N   -0.030471
    10  N   -0.335146
    11  C   -0.130174
    12  C    0.103994
    13  C   -0.166962
    14  C    0.131033
    15  C   -0.078676
    16  C    0.048371
    17  C    0.011686
    18  C   -0.089678
    19  C    0.192862
    20  C   -0.055286
    21  C   -0.015980
    22  C    0.013889
    23  C   -0.055234
    24  C    0.184044
    25  C   -0.002948
    26  C   -0.021088
    27  C    0.129571
    28  C   -0.048258
    29  C    0.050600
    30  C    0.053925
    31  C   -0.123615
    32  C    0.030724
    33  C   -0.153241
    34  C    0.107443
    35  C   -0.010732
    36  C   -0.215502
    37  C    0.134432
    38  C    0.116737
    39  C    0.147931
    40  C    0.141223
    41  C    0.189658
    42  C    0.029777
    43  C   -0.099742
    44  H    0.146146
    45  H   -0.061185
    46  H    0.006317
    47  H    0.006567
    48  H    0.050787
    49  H    0.021813
    50  H   -0.069776
    51  H   -0.124769
    52  H    0.168218
    53  H    0.027318
    54  H    0.052025
    55  H    0.015350
    56  H    0.182355
    57  H    0.053760
    58  H    0.062195
    59  H    0.033412
    60  H    0.003410
    61  H    0.019966
    62  H    0.006106
    63  H    0.032765
    64  H   -0.014745
    65  H    0.008488
    66  H    0.031272
    67  H    0.046324
    68  H   -0.029440
    69  H    0.087694
    70  H   -0.025298
    71  H    0.067671
    72  H    0.014558
    73  H   -0.002588
    74  H    0.009611
    75  H    0.006123
    76  H    0.040523
    77  H    0.000801
    78  H    0.044118
    79  H    0.001536
    80  H    0.220299
    81  H    0.190245
 Sum of Mulliken charges =  -0.00000

 Dipole moment (field-independent basis, Debye):
    X=             -2.0259    Y=             -2.9162    Z=             -1.0804  Tot=              3.7116
 Quadrupole moment (field-independent basis, Debye-Ang):
   XX=           -248.1704   YY=           -239.0015   ZZ=           -254.6328
   XY=             14.8111   XZ=             11.0206   YZ=            -11.4174

 Normal termination of Gaussian 16 at Fri Jun 28 13:59:23 2019.
