 Gaussian 16, Revision A.03,
 Gaussian 16:  ES64L-G16RevA.03 25-Dec-2016

 --------------------------
 # td=(NStates=1) B3LYP/SVP
 --------------------------

 --
 TD
 --
 Symbolic Z-matrix:
 Charge =  0 Multiplicity = 1

                         Standard orientation:
 ---------------------------------------------------------------------
 Center     Atomic      Atomic             Coordinates (Angstroms)
 Number     Number       Type             X           Y           Z
 ---------------------------------------------------------------------
      1          8           0       -4.390565   -4.791670    1.984500
      2          8           0        3.263823   -4.937152    1.216979
      3          8           0        7.037275   -1.305253    1.772722
      4          8           0        3.824108   -2.986858    0.101024
      5          8           0        7.585364   -0.366311   -0.137458
      6          8           0       -3.113026    2.435067   -0.294603
      7          7           0       -0.275773   -0.625720   -0.634246
      8          7           0        1.521382    1.788172   -0.293624
      9          7           0       -3.340816   -3.157965    0.658977
     10          7           0       -0.833802    2.940977   -0.117566
     11          6           0        0.716942   -2.517854   -1.216340
     12          6           0        0.974260   -1.176761   -0.959748
     13          6           0       -0.652620   -2.831661   -1.136162
     14          6           0       -1.267106   -1.556243   -0.756761
     15          6           0        3.737526    1.475458   -0.357923
     16          6           0        2.479314    0.927379   -0.642232
     17          6           0        2.253168   -0.454629   -0.871356
     18          6           0        3.491861    2.852543   -0.018718
     19          6           0        1.723048   -3.477159   -1.872917
     20          6           0       -5.591249   -2.646769    1.313154
     21          6           0       -3.618289   -1.932988    0.086365
     22          6           0        1.977825    2.997261   -0.028932
     23          6           0       -5.087603   -1.635503    0.294065
     24          6           0        5.078538    0.820229   -0.420293
     25          6           0       -2.752275   -1.118968   -0.469798
     26          6           0       -1.271556   -3.983596   -1.633735
     27          6           0       -4.402048   -3.716473    1.380326
     28          6           0        2.315445   -4.503148   -0.859608
     29          6           0        5.451285   -0.048957    0.812572
     30          6           0        4.441481    3.947127    0.272621
     31          6           0        1.220870    4.187672    0.250444
     32          6           0       -6.957540   -3.123792    1.006670
     33          6           0       -5.787909   -0.743359   -0.127813
     34          6           0       -0.126200    4.045617    0.274281
     35          6           0       -1.124706    5.208121    0.481606
     36          6           0       -2.322636    4.629089    0.319304
     37          6           0        3.191129   -4.037102    0.169186
     38          6           0       -5.463564    0.245041   -1.319653
     39          6           0        6.802015   -0.587530    0.756649
     40          6           0       -3.700646    5.185857    0.495331
     41          6           0       -2.188774    3.301384   -0.092201
     42          6           0       -0.622141    6.666019    0.872338
     43          6           0       -4.517048    5.494723   -0.801245
     44          1           0       -0.415737    0.187008   -0.063375
     45          1           0        3.038334   -1.115125   -1.128076
     46          1           0        2.568659   -2.949375   -2.209561
     47          1           0        1.316347   -3.985328   -2.625786
     48          1           0       -5.624203   -2.206263    2.276874
     49          1           0        5.231756    0.281763   -1.324979
     50          1           0        5.835308    1.707119   -0.527416
     51          1           0       -2.951604   -0.103658   -0.961399
     52          1           0        0.479607    1.671096   -0.429199
     53          1           0       -1.463772   -4.692608   -0.797911
     54          1           0       -2.436256   -3.742803   -2.043399
     55          1           0       -0.631732   -4.607015   -2.403834
     56          1           0       -2.442379   -3.536159    0.799691
     57          1           0        1.559764   -5.248911   -0.460746
     58          1           0        2.936935   -5.098209   -1.391946
     59          1           0        4.618401   -0.709225    1.155208
     60          1           0        5.558478    0.568830    1.809894
     61          1           0        4.419519    4.773641   -0.497539
     62          1           0        5.678282    3.658769    0.217564
     63          1           0        4.396963    4.517417    1.188255
     64          1           0        1.886237    4.925813    0.661416
     65          1           0       -7.672004   -2.238229    1.217351
     66          1           0       -7.202460   -4.150279    1.599114
     67          1           0       -7.103201   -3.541334    0.061552
     68          1           0       -6.794166   -0.717032    0.180916
     69          1           0       -4.930093    1.079725   -1.180380
     70          1           0       -6.420499    0.531388   -1.736996
     71          1           0       -5.052936   -0.153361   -2.368342
     72          1           0       -3.687492    6.204098    0.916945
     73          1           0       -4.271017    4.630329    1.320352
     74          1           0       -0.101662    6.726131    1.753502
     75          1           0       -1.520094    7.199553    1.168377
     76          1           0       -0.091317    7.261652    0.024048
     77          1           0       -3.671380    5.952134   -1.458179
     78          1           0       -5.607215    6.092295   -0.877473
     79          1           0       -4.720039    4.583148   -1.255497
     80          1           0        3.894322   -4.342392    1.959974
     81          1           0        7.834789   -1.761616    1.794065
 ---------------------------------------------------------------------

 SCF Done:  E(RB3LYP) =  -1949.08917107     A.U. after   24 cycles

 Excitation energies and oscillator strengths:

 Excited State   1:      Singlet-A      2.0421 eV  607.13 nm  f=0.3766  <S**2>=0.000
     156 ->157         0.70368
     156 <-157        -0.11662
 This state for optimization and/or second-order correction.
 Total Energy, E(TD-HF/TD-DFT) =  -1949.01412406
 Copying the excited state density for this state as the 1-particle RhoCI density.

 The electronic state is 1-A.
 Alpha  occ. eigenvalues --  -19.20651 -19.18843 -19.14739 -19.11818 -19.11170
 Alpha  occ. eigenvalues --  -19.08912 -14.38393 -14.37577 -14.36877 -14.27994
 Alpha  occ. eigenvalues --  -10.33625 -10.31272 -10.30025 -10.24990 -10.24874
 Alpha  occ. eigenvalues --  -10.24437 -10.24170 -10.23566 -10.23364 -10.22463
 Alpha  occ. eigenvalues --  -10.22110 -10.21703 -10.21238 -10.21135 -10.20956
 Alpha  occ. eigenvalues --  -10.20614 -10.20582 -10.20502 -10.20455 -10.20274
 Alpha  occ. eigenvalues --  -10.20256 -10.20070 -10.19970 -10.19733 -10.19702
 Alpha  occ. eigenvalues --  -10.19316 -10.18668 -10.18495 -10.18371 -10.18138
 Alpha  occ. eigenvalues --  -10.17981 -10.17727 -10.17153  -1.13308  -1.09071
 Alpha  occ. eigenvalues --   -1.02902  -1.00858  -1.00823  -1.00394  -0.98461
 Alpha  occ. eigenvalues --   -0.97567  -0.95752  -0.90061  -0.83714  -0.83487
 Alpha  occ. eigenvalues --   -0.82172  -0.80803  -0.79954  -0.78962  -0.78303
 Alpha  occ. eigenvalues --   -0.77656  -0.76619  -0.74654  -0.73892  -0.72986
 Alpha  occ. eigenvalues --   -0.71989  -0.70041  -0.69727  -0.69129  -0.68920
 Alpha  occ. eigenvalues --   -0.67745  -0.66162  -0.65350  -0.62916  -0.61965
 Alpha  occ. eigenvalues --   -0.60429  -0.59550  -0.59150  -0.58463  -0.57342
 Alpha  occ. eigenvalues --   -0.56677  -0.55841  -0.55336  -0.54443  -0.53994
 Alpha  occ. eigenvalues --   -0.52589  -0.51875  -0.50747  -0.50566  -0.50100
 Alpha  occ. eigenvalues --   -0.49839  -0.49224  -0.49000  -0.48198  -0.48086
 Alpha  occ. eigenvalues --   -0.47765  -0.46884  -0.46227  -0.45887  -0.45275
 Alpha  occ. eigenvalues --   -0.45123  -0.44838  -0.44290  -0.43985  -0.43759
 Alpha  occ. eigenvalues --   -0.43289  -0.43060  -0.42726  -0.42506  -0.42242
 Alpha  occ. eigenvalues --   -0.41883  -0.41621  -0.41068  -0.40989  -0.40734
 Alpha  occ. eigenvalues --   -0.40533  -0.40244  -0.40017  -0.39743  -0.39519
 Alpha  occ. eigenvalues --   -0.39290  -0.39053  -0.39020  -0.38887  -0.38203
 Alpha  occ. eigenvalues --   -0.37949  -0.37768  -0.37524  -0.37133  -0.37003
 Alpha  occ. eigenvalues --   -0.36709  -0.35488  -0.35321  -0.34677  -0.34085
 Alpha  occ. eigenvalues --   -0.33852  -0.33292  -0.33126  -0.32663  -0.32328
 Alpha  occ. eigenvalues --   -0.32304  -0.31294  -0.31189  -0.30155  -0.29316
 Alpha  occ. eigenvalues --   -0.28007  -0.27548  -0.26331  -0.26006  -0.25917
 Alpha  occ. eigenvalues --   -0.25314  -0.24882  -0.23998  -0.23302  -0.21943
 Alpha  occ. eigenvalues --   -0.18520
 Alpha virt. eigenvalues --   -0.10516  -0.05882  -0.02849  -0.02114  -0.00324
 Alpha virt. eigenvalues --   -0.00085   0.01518   0.02068   0.03346   0.03470
 Alpha virt. eigenvalues --    0.03696   0.04120   0.05481   0.05807   0.06101

 Mulliken charges:
               1
     1  O   -0.220949
     2  O   -0.276532
     3  O   -0.080194
     4  O   -0.245976
     5  O   -0.237649
     6  O   -0.274419
     7  N   -0.074071
     8  N   -0.012122
     9  N   -0.094902
    10  N   -0.328516
    11  C   -0.100864
    12  C    0.007800
    13  C   -0.117376
    14  C   -0.029802
    15  C   -0.099250
    16  C    0.084881
    17  C    0.004927
    18  C   -0.083882
    19  C    0.214589
    20  C   -0.056670
    21  C    0.162706
    22  C   -0.005085
    23  C    0.115507
    24  C    0.127819
    25  C   -0.125395
    26  C    0.001324
    27  C    0.143520
    28  C    0.048610
    29  C   -0.049893
    30  C   -0.008247
    31  C   -0.079528
    32  C    0.015598
    33  C   -0.166989
    34  C    0.125230
    35  C   -0.094973
    36  C   -0.141783
    37  C    0.145818
    38  C    0.048573
    39  C    0.099285
    40  C    0.075112
    41  C    0.157499
    42  C    0.125348
    43  C   -0.044328
    44  H    0.135515
    45  H   -0.014485
    46  H   -0.013910
    47  H   -0.042338
    48  H    0.031907
    49  H    0.010312
    50  H    0.020201
    51  H    0.067662
    52  H    0.149731
    53  H    0.017792
    54  H    0.061763
    55  H    0.035078
    56  H    0.117540
    57  H    0.035491
    58  H    0.007207
    59  H    0.048111
    60  H    0.033903
    61  H    0.030773
    62  H    0.035111
    63  H    0.024356
    64  H   -0.026898
    65  H    0.044608
    66  H    0.036200
    67  H   -0.006675
    68  H   -0.035398
    69  H    0.029450
    70  H   -0.015395
    71  H    0.017231
    72  H   -0.019916
    73  H    0.021947
    74  H   -0.000935
    75  H   -0.003713
    76  H    0.049464
    77  H    0.016089
    78  H    0.038080
    79  H    0.008759
    80  H    0.247218
    81  H    0.153414
 Sum of Mulliken charges =  -0.00000

 Dipole moment (field-independent basis, Debye):
    X=              3.9892    Y=             -1.0676    Z=              1.1789  Tot=              4.2945
 Quadrupole moment (field-independent basis, Debye-Ang):
   XX=           -253.7793   YY=           -241.9421   ZZ=           -251.5049
   XY=            -14.8414   XZ=             20.4269   YZ=             16.2306

 Normal termination of Gaussian 16 at Wed Jun 26 22:40:22 2019.
