 Gaussian 16, Revision A.03,
 Gaussian 16:  ES64L-G16RevA.03 25-Dec-2016

 --------------------------
 # td=(NStates=1) B3LYP/SVP
 --------------------------

 --
 TD
 --
 Symbolic Z-matrix:
 Charge =  0 Multiplicity = 1

                         Standard orientation:
 ---------------------------------------------------------------------
 Center     Atomic      Atomic             Coordinates (Angstroms)
 Number     Number       Type             X           Y           Z
 ---------------------------------------------------------------------
      1          8           0       -4.213687   -4.803462    2.005905
      2          8           0        2.915181   -4.860181    1.247986
      3          8           0        7.188514   -1.343741    1.727286
      4          8           0        3.883822   -3.178942    0.037240
      5          8           0        7.744235   -0.207680   -0.096958
      6          8           0       -3.127534    2.324505   -0.353464
      7          7           0       -0.276697   -0.480335   -0.736007
      8          7           0        1.497070    1.733474   -0.275109
      9          7           0       -3.182609   -3.112236    0.660085
     10          7           0       -0.873950    2.887277   -0.187268
     11          6           0        0.651556   -2.429056   -1.299759
     12          6           0        1.006409   -1.131840   -0.954171
     13          6           0       -0.635014   -2.686296   -1.263318
     14          6           0       -1.309235   -1.405852   -0.788049
     15          6           0        3.700290    1.537762   -0.292835
     16          6           0        2.479525    0.819113   -0.575161
     17          6           0        2.219534   -0.448008   -0.963377
     18          6           0        3.407672    2.882428    0.006180
     19          6           0        1.683600   -3.453728   -1.844758
     20          6           0       -5.501165   -2.791343    1.317055
     21          6           0       -3.540561   -1.882292    0.176218
     22          6           0        2.035573    3.044518   -0.028871
     23          6           0       -4.937921   -1.602682    0.362669
     24          6           0        5.082287    0.899465   -0.330880
     25          6           0       -2.712892   -1.038550   -0.571993
     26          6           0       -1.355597   -3.860991   -1.700667
     27          6           0       -4.317366   -3.787174    1.334601
     28          6           0        2.172748   -4.531596   -0.898446
     29          6           0        5.371666   -0.049815    0.820485
     30          6           0        4.397657    3.928690    0.500177
     31          6           0        1.171007    4.021143    0.131212
     32          6           0       -6.856685   -3.362942    1.019220
     33          6           0       -5.747303   -0.576955   -0.098063
     34          6           0       -0.213865    3.951796    0.116954
     35          6           0       -1.143634    5.112095    0.475240
     36          6           0       -2.402388    4.660547    0.312402
     37          6           0        3.030191   -4.088365    0.168429
     38          6           0       -5.446368    0.487800   -1.062183
     39          6           0        6.863179   -0.493197    0.737034
     40          6           0       -3.739234    5.140884    0.507735
     41          6           0       -2.305212    3.214434   -0.145740
     42          6           0       -0.720329    6.434971    0.942938
     43          6           0       -4.410130    5.455131   -0.806826
     44          1           0       -0.305572    0.533352   -0.486989
     45          1           0        3.069089   -1.018049   -1.183333
     46          1           0        2.794595   -3.071812   -2.110074
     47          1           0        1.257202   -3.987478   -2.685820
     48          1           0       -5.464043   -2.501895    2.284406
     49          1           0        5.448217    0.441697   -1.237617
     50          1           0        5.956472    1.793132   -0.307216
     51          1           0       -3.137518    0.024118   -0.870837
     52          1           0        0.616450    1.667220   -0.315256
     53          1           0       -1.531364   -4.544509   -0.898855
     54          1           0       -2.366460   -3.546577   -2.096955
     55          1           0       -0.845385   -4.503010   -2.556954
     56          1           0       -2.074127   -3.399097    0.961212
     57          1           0        1.285321   -5.124361   -0.449254
     58          1           0        2.824305   -5.289008   -1.465513
     59          1           0        4.596981   -0.882612    0.936410
     60          1           0        5.191468    0.448481    1.822607
     61          1           0        4.273618    4.934048    0.010823
     62          1           0        5.454600    3.570667    0.267444
     63          1           0        4.178223    4.097710    1.574012
     64          1           0        1.497024    5.056859    0.506462
     65          1           0       -7.631681   -2.608075    0.947817
     66          1           0       -7.092325   -4.179580    1.760334
     67          1           0       -6.874352   -4.010574   -0.039799
     68          1           0       -6.799859   -0.385378    0.193255
     69          1           0       -4.813179    1.321663   -0.794358
     70          1           0       -6.439037    0.830937   -1.563983
     71          1           0       -4.908444    0.259422   -1.902894
     72          1           0       -3.555221    6.276741    0.841034
     73          1           0       -4.408640    4.553307    1.232083
     74          1           0       -0.172848    6.448826    1.877915
     75          1           0       -1.618979    7.099513    1.188619
     76          1           0       -0.061200    6.976045    0.320037
     77          1           0       -3.781938    6.267257   -1.464176
     78          1           0       -5.486494    5.734196   -0.623740
     79          1           0       -3.932977    4.468063   -1.509630
     80          1           0        3.533070   -4.591768    1.823481
     81          1           0        8.186108   -1.621289    1.418725
 ---------------------------------------------------------------------

 SCF Done:  E(RB3LYP) =  -1949.08449819     A.U. after   17 cycles

 Excitation energies and oscillator strengths:

 Excited State   1:      Singlet-A      1.7700 eV  700.47 nm  f=0.3476  <S**2>=0.000
     156 ->157         0.71018
     156 <-157        -0.13335
 This state for optimization and/or second-order correction.
 Total Energy, E(TD-HF/TD-DFT) =  -1949.01945122
 Copying the excited state density for this state as the 1-particle RhoCI density.

 The electronic state is 1-A.
 Alpha  occ. eigenvalues --  -19.20013 -19.18488 -19.13831 -19.12911 -19.12662
 Alpha  occ. eigenvalues --  -19.11804 -14.38240 -14.37888 -14.33901 -14.28433
 Alpha  occ. eigenvalues --  -10.33407 -10.32369 -10.30788 -10.27463 -10.24817
 Alpha  occ. eigenvalues --  -10.24410 -10.22676 -10.22607 -10.22487 -10.22011
 Alpha  occ. eigenvalues --  -10.21824 -10.21505 -10.21288 -10.21030 -10.20895
 Alpha  occ. eigenvalues --  -10.20748 -10.20710 -10.20689 -10.20649 -10.20627
 Alpha  occ. eigenvalues --  -10.20376 -10.20198 -10.19978 -10.19928 -10.19895
 Alpha  occ. eigenvalues --  -10.19726 -10.19594 -10.19512 -10.19501 -10.19289
 Alpha  occ. eigenvalues --  -10.19093 -10.17913 -10.16602  -1.12952  -1.08566
 Alpha  occ. eigenvalues --   -1.03663  -1.01894  -1.01101  -0.98089  -0.97911
 Alpha  occ. eigenvalues --   -0.96072  -0.94237  -0.91798  -0.83043  -0.82142
 Alpha  occ. eigenvalues --   -0.81803  -0.80837  -0.80651  -0.79409  -0.78473
 Alpha  occ. eigenvalues --   -0.77359  -0.76842  -0.76075  -0.74485  -0.72697
 Alpha  occ. eigenvalues --   -0.71175  -0.69829  -0.69603  -0.69342  -0.67526
 Alpha  occ. eigenvalues --   -0.66835  -0.65103  -0.64145  -0.62068  -0.61555
 Alpha  occ. eigenvalues --   -0.60347  -0.58992  -0.58250  -0.57585  -0.57333
 Alpha  occ. eigenvalues --   -0.56066  -0.55671  -0.54248  -0.53789  -0.53401
 Alpha  occ. eigenvalues --   -0.52299  -0.51802  -0.51127  -0.49983  -0.49756
 Alpha  occ. eigenvalues --   -0.49462  -0.48867  -0.48334  -0.47966  -0.47807
 Alpha  occ. eigenvalues --   -0.47587  -0.46331  -0.46091  -0.45877  -0.45353
 Alpha  occ. eigenvalues --   -0.45122  -0.44711  -0.44485  -0.44366  -0.43880
 Alpha  occ. eigenvalues --   -0.43601  -0.43284  -0.42771  -0.42571  -0.42103
 Alpha  occ. eigenvalues --   -0.41506  -0.41305  -0.41105  -0.40960  -0.40834
 Alpha  occ. eigenvalues --   -0.40558  -0.40511  -0.40041  -0.39850  -0.39618
 Alpha  occ. eigenvalues --   -0.39489  -0.38956  -0.38912  -0.38588  -0.38427
 Alpha  occ. eigenvalues --   -0.38121  -0.37849  -0.37600  -0.37258  -0.36971
 Alpha  occ. eigenvalues --   -0.36130  -0.35913  -0.35725  -0.35414  -0.35290
 Alpha  occ. eigenvalues --   -0.34438  -0.34237  -0.33764  -0.33444  -0.32715
 Alpha  occ. eigenvalues --   -0.32053  -0.31217  -0.30506  -0.29356  -0.28908
 Alpha  occ. eigenvalues --   -0.28200  -0.27784  -0.27439  -0.26858  -0.25846
 Alpha  occ. eigenvalues --   -0.25312  -0.24838  -0.24288  -0.23523  -0.21425
 Alpha  occ. eigenvalues --   -0.17064
 Alpha virt. eigenvalues --   -0.10160  -0.06175  -0.04075  -0.02400  -0.01807
 Alpha virt. eigenvalues --   -0.00544   0.01356   0.02208   0.03267   0.03887
 Alpha virt. eigenvalues --    0.04227   0.04659   0.04732   0.05588   0.06156

 Mulliken charges:
               1
     1  O   -0.203686
     2  O   -0.088568
     3  O   -0.225620
     4  O   -0.272671
     5  O   -0.276217
     6  O   -0.196752
     7  N   -0.140353
     8  N   -0.047572
     9  N   -0.232205
    10  N   -0.286644
    11  C   -0.025167
    12  C    0.073416
    13  C   -0.176159
    14  C    0.068898
    15  C   -0.031450
    16  C    0.095855
    17  C   -0.006781
    18  C   -0.117042
    19  C    0.068410
    20  C    0.004678
    21  C    0.100439
    22  C    0.177871
    23  C    0.011841
    24  C    0.000870
    25  C   -0.138269
    26  C    0.093222
    27  C    0.150369
    28  C   -0.021464
    29  C   -0.029481
    30  C    0.084113
    31  C   -0.144375
    32  C    0.009191
    33  C   -0.146962
    34  C    0.020547
    35  C   -0.061876
    36  C   -0.202327
    37  C    0.116198
    38  C    0.050493
    39  C    0.177536
    40  C    0.070526
    41  C    0.181022
    42  C    0.113564
    43  C   -0.087172
    44  H    0.141690
    45  H   -0.041027
    46  H    0.043243
    47  H   -0.000310
    48  H    0.015805
    49  H    0.025416
    50  H    0.029997
    51  H    0.064880
    52  H   -0.009294
    53  H    0.004070
    54  H    0.036354
    55  H    0.025462
    56  H    0.208079
    57  H    0.031848
    58  H    0.063362
    59  H    0.070001
    60  H    0.034417
    61  H    0.021934
    62  H    0.025363
    63  H    0.031911
    64  H   -0.028598
    65  H    0.028590
    66  H    0.038084
    67  H    0.027283
    68  H    0.009950
    69  H    0.060498
    70  H    0.003226
    71  H   -0.012723
    72  H   -0.003104
    73  H    0.048483
    74  H    0.011882
    75  H    0.016205
    76  H    0.011050
    77  H    0.024475
    78  H    0.042569
    79  H    0.033337
    80  H    0.134160
    81  H    0.221184
 Sum of Mulliken charges =  -0.00000

 Dipole moment (field-independent basis, Debye):
    X=              0.6687    Y=              0.1380    Z=              1.4987  Tot=              1.6469
 Quadrupole moment (field-independent basis, Debye-Ang):
   XX=           -255.7657   YY=           -234.6499   ZZ=           -255.6081
   XY=            -17.4254   XZ=             10.6762   YZ=             13.6775

 Normal termination of Gaussian 16 at Sun Jun 30 10:03:37 2019.
