 Gaussian 16, Revision A.03,
 Gaussian 16:  ES64L-G16RevA.03 25-Dec-2016

 --------------------------
 # td=(NStates=1) B3LYP/SVP
 --------------------------

 --
 TD
 --
 Symbolic Z-matrix:
 Charge =  0 Multiplicity = 1

                         Standard orientation:
 ---------------------------------------------------------------------
 Center     Atomic      Atomic             Coordinates (Angstroms)
 Number     Number       Type             X           Y           Z
 ---------------------------------------------------------------------
      1          8           0        4.612358   -4.503750   -2.097671
      2          8           0       -2.616672   -4.896677   -1.450070
      3          8           0       -7.078879   -1.784989   -1.552596
      4          8           0       -3.520398   -3.297775   -0.259677
      5          8           0       -7.755582   -0.427139    0.107752
      6          8           0        2.813937    2.429538    0.224206
      7          7           0        0.232390   -0.700995    0.593585
      8          7           0       -1.608366    1.764903    0.231733
      9          7           0        3.492636   -3.096781   -0.594997
     10          7           0        0.611743    3.035729    0.085524
     11          6           0       -0.639458   -2.558577    1.276065
     12          6           0       -0.965426   -1.273390    0.922757
     13          6           0        0.809835   -2.705115    1.266843
     14          6           0        1.288406   -1.462486    0.752741
     15          6           0       -3.759250    1.378544    0.284166
     16          6           0       -2.445270    0.744834    0.451266
     17          6           0       -2.211048   -0.658348    0.680464
     18          6           0       -3.618487    2.753270    0.020000
     19          6           0       -1.671350   -3.605524    1.905238
     20          6           0        5.696005   -2.432955   -1.244717
     21          6           0        3.639000   -1.810648   -0.018403
     22          6           0       -2.182681    2.942635   -0.021295
     23          6           0        5.083088   -1.420035   -0.256176
     24          6           0       -5.136706    0.692181    0.407900
     25          6           0        2.671383   -1.075665    0.575317
     26          6           0        1.579116   -3.924876    1.827753
     27          6           0        4.630038   -3.477215   -1.390026
     28          6           0       -1.935587   -4.621910    0.909020
     29          6           0       -5.456023   -0.217220   -0.744663
     30          6           0       -4.528240    3.787333   -0.339814
     31          6           0       -1.450223    4.112917   -0.275415
     32          6           0        7.063508   -3.079097   -0.961651
     33          6           0        5.837949   -0.313665    0.221891
     34          6           0       -0.037362    4.069482   -0.216325
     35          6           0        0.902526    5.250227   -0.573787
     36          6           0        2.181184    4.678944   -0.378182
     37          6           0       -2.785361   -4.257684   -0.293771
     38          6           0        5.324734    0.633060    1.222060
     39          6           0       -6.830710   -0.857844   -0.633887
     40          6           0        3.483023    5.408717   -0.420752
     41          6           0        1.943088    3.269270    0.057837
     42          6           0        0.379558    6.594707   -0.885776
     43          6           0        4.089972    5.705346    0.907354
     44          1           0        0.420155    0.266668    0.271274
     45          1           0       -3.108793   -1.408700    0.900826
     46          1           0       -2.668624   -3.012318    2.275498
     47          1           0       -1.175472   -4.101427    2.832903
     48          1           0        5.684428   -1.876295   -2.354749
     49          1           0       -5.436780    0.191660    1.331098
     50          1           0       -5.845658    1.527261    0.810734
     51          1           0        2.971465   -0.022467    0.751093
     52          1           0       -0.435923    1.693064    0.298595
     53          1           0        1.777252   -4.645342    1.060780
     54          1           0        2.525702   -3.448324    2.233469
     55          1           0        0.970146   -4.106627    2.770294
     56          1           0        2.675643   -3.497792   -0.671227
     57          1           0       -1.038196   -5.245120    0.540569
     58          1           0       -2.504918   -5.357373    1.461501
     59          1           0       -4.673885   -1.059804   -0.743946
     60          1           0       -5.531552    0.327180   -1.812091
     61          1           0       -4.180924    4.696640    0.291459
     62          1           0       -5.589372    3.565498    0.108237
     63          1           0       -4.555565    3.981177   -1.363054
     64          1           0       -1.962440    5.017347   -0.579421
     65          1           0        7.798456   -2.319946   -1.043792
     66          1           0        7.328139   -3.858358   -1.623817
     67          1           0        7.237841   -3.501677   -0.127174
     68          1           0        6.938900   -0.414364    0.090617
     69          1           0        4.965664    1.504285    0.746997
     70          1           0        6.354772    1.143466    1.849248
     71          1           0        4.564927    0.256997    1.971021
     72          1           0        3.358778    6.341003   -0.970010
     73          1           0        4.363247    4.702568   -0.960189
     74          1           0       -0.281759    6.505270   -1.678571
     75          1           0        1.318102    7.138229   -1.185316
     76          1           0       -0.138010    6.991472   -0.154636
     77          1           0        3.352180    6.372081    1.579007
     78          1           0        5.138404    6.116609    0.845975
     79          1           0        4.108319    4.995323    1.627057
     80          1           0       -3.066952   -4.468907   -2.181507
     81          1           0       -8.090031   -1.777882   -1.389400
 ---------------------------------------------------------------------

 SCF Done:  E(RB3LYP) =  -1949.10468484     A.U. after   17 cycles

 Excitation energies and oscillator strengths:

 Excited State   1:      Singlet-A      1.9662 eV  630.57 nm  f=0.3860  <S**2>=0.000
     156 ->157         0.70638
     156 <-157        -0.11831
 This state for optimization and/or second-order correction.
 Total Energy, E(TD-HF/TD-DFT) =  -1949.03242741
 Copying the excited state density for this state as the 1-particle RhoCI density.

 The electronic state is 1-A.
 Alpha  occ. eigenvalues --  -19.19324 -19.19234 -19.13317 -19.12283 -19.11269
 Alpha  occ. eigenvalues --  -19.10361 -14.38058 -14.36286 -14.35786 -14.28816
 Alpha  occ. eigenvalues --  -10.33338 -10.32086 -10.29837 -10.26471 -10.24917
 Alpha  occ. eigenvalues --  -10.23432 -10.23332 -10.23292 -10.22842 -10.22545
 Alpha  occ. eigenvalues --  -10.22530 -10.22486 -10.22405 -10.21911 -10.21901
 Alpha  occ. eigenvalues --  -10.21371 -10.20857 -10.20468 -10.20384 -10.20343
 Alpha  occ. eigenvalues --  -10.20041 -10.19939 -10.19776 -10.19683 -10.19516
 Alpha  occ. eigenvalues --  -10.19308 -10.19248 -10.19126 -10.19098 -10.18382
 Alpha  occ. eigenvalues --  -10.18363 -10.17802 -10.17264  -1.11619  -1.10262
 Alpha  occ. eigenvalues --   -1.02004  -1.01955  -1.01566  -1.00340  -0.98527
 Alpha  occ. eigenvalues --   -0.98220  -0.94372  -0.94132  -0.82518  -0.81460
 Alpha  occ. eigenvalues --   -0.81293  -0.81048  -0.80062  -0.79268  -0.78158
 Alpha  occ. eigenvalues --   -0.77206  -0.76950  -0.76010  -0.74681  -0.72200
 Alpha  occ. eigenvalues --   -0.71059  -0.70798  -0.69835  -0.68615  -0.68490
 Alpha  occ. eigenvalues --   -0.66737  -0.65737  -0.64356  -0.62266  -0.61924
 Alpha  occ. eigenvalues --   -0.61526  -0.59947  -0.58088  -0.57701  -0.56223
 Alpha  occ. eigenvalues --   -0.56155  -0.55784  -0.55044  -0.53939  -0.53825
 Alpha  occ. eigenvalues --   -0.52982  -0.51777  -0.51213  -0.49613  -0.49464
 Alpha  occ. eigenvalues --   -0.49288  -0.49179  -0.48665  -0.47728  -0.47684
 Alpha  occ. eigenvalues --   -0.46929  -0.46326  -0.46051  -0.45954  -0.45767
 Alpha  occ. eigenvalues --   -0.45613  -0.44840  -0.44537  -0.44299  -0.44011
 Alpha  occ. eigenvalues --   -0.43582  -0.43376  -0.43068  -0.42868  -0.42479
 Alpha  occ. eigenvalues --   -0.42199  -0.42137  -0.41825  -0.41682  -0.41540
 Alpha  occ. eigenvalues --   -0.41168  -0.40828  -0.40397  -0.40259  -0.40061
 Alpha  occ. eigenvalues --   -0.39771  -0.39499  -0.39293  -0.39013  -0.38419
 Alpha  occ. eigenvalues --   -0.38206  -0.38001  -0.37800  -0.37540  -0.36840
 Alpha  occ. eigenvalues --   -0.36557  -0.35575  -0.35203  -0.34671  -0.33950
 Alpha  occ. eigenvalues --   -0.33807  -0.33624  -0.33570  -0.33355  -0.32717
 Alpha  occ. eigenvalues --   -0.31585  -0.31187  -0.30973  -0.30029  -0.28932
 Alpha  occ. eigenvalues --   -0.27785  -0.27019  -0.26408  -0.26039  -0.25244
 Alpha  occ. eigenvalues --   -0.24761  -0.24535  -0.24493  -0.23436  -0.21900
 Alpha  occ. eigenvalues --   -0.17877
 Alpha virt. eigenvalues --   -0.10207  -0.05820  -0.04352  -0.01431  -0.01104
 Alpha virt. eigenvalues --   -0.00791   0.02820   0.03545   0.04163   0.04435
 Alpha virt. eigenvalues --    0.04594   0.04713   0.04998   0.05212   0.05452

 Mulliken charges:
               1
     1  O   -0.236581
     2  O   -0.156289
     3  O   -0.173357
     4  O   -0.233516
     5  O   -0.299433
     6  O   -0.204072
     7  N   -0.018967
     8  N   -0.110122
     9  N   -0.091135
    10  N   -0.204773
    11  C   -0.115468
    12  C    0.032077
    13  C   -0.218984
    14  C    0.021507
    15  C   -0.090691
    16  C    0.089012
    17  C   -0.082538
    18  C   -0.119611
    19  C    0.022943
    20  C   -0.105581
    21  C    0.112313
    22  C    0.088499
    23  C   -0.068858
    24  C    0.030096
    25  C   -0.122873
    26  C    0.101849
    27  C    0.148362
    28  C    0.053196
    29  C   -0.010214
    30  C    0.090256
    31  C   -0.150982
    32  C    0.179476
    33  C   -0.092961
    34  C    0.043370
    35  C   -0.157626
    36  C   -0.190434
    37  C    0.108718
    38  C    0.012505
    39  C    0.140999
    40  C    0.052653
    41  C    0.137398
    42  C    0.243058
    43  C    0.017630
    44  H    0.128374
    45  H    0.069094
    46  H    0.051751
    47  H    0.027774
    48  H    0.082592
    49  H    0.004884
    50  H    0.013384
    51  H    0.023452
    52  H    0.209115
    53  H    0.040664
    54  H    0.029390
    55  H    0.029053
    56  H    0.069657
    57  H    0.042627
    58  H    0.024831
    59  H    0.073893
    60  H    0.063203
    61  H    0.029723
    62  H    0.026383
    63  H    0.026917
    64  H   -0.038442
    65  H   -0.002012
    66  H    0.010707
    67  H   -0.049198
    68  H    0.014665
    69  H    0.050291
    70  H    0.009700
    71  H    0.056433
    72  H    0.001109
    73  H    0.026134
    74  H   -0.003228
    75  H    0.018262
    76  H   -0.014732
    77  H   -0.007695
    78  H    0.022722
    79  H   -0.014529
    80  H    0.188954
    81  H    0.193248
 Sum of Mulliken charges =  -0.00000

 Dipole moment (field-independent basis, Debye):
    X=             -1.1826    Y=              0.4588    Z=             -0.0171  Tot=              1.2686
 Quadrupole moment (field-independent basis, Debye-Ang):
   XX=           -257.0623   YY=           -241.0449   ZZ=           -253.5874
   XY=             12.3845   XZ=             16.2190   YZ=            -14.6057

 Normal termination of Gaussian 16 at Tue Jul  2 18:58:26 2019.
