 Gaussian 16, Revision A.03,
 Gaussian 16:  ES64L-G16RevA.03 25-Dec-2016

 --------------------------
 # td=(NStates=1) B3LYP/SVP
 --------------------------

 --
 TD
 --
 Symbolic Z-matrix:
 Charge =  0 Multiplicity = 1

                         Standard orientation:
 ---------------------------------------------------------------------
 Center     Atomic      Atomic             Coordinates (Angstroms)
 Number     Number       Type             X           Y           Z
 ---------------------------------------------------------------------
      1          8           0       -4.642105   -4.736819    1.845349
      2          8           0        2.939508   -4.864262    1.318020
      3          8           0        7.092372   -1.599116    1.751620
      4          8           0        3.691319   -3.281451   -0.005505
      5          8           0        7.783362   -0.277968   -0.069256
      6          8           0       -3.000938    2.538324   -0.118946
      7          7           0       -0.301095   -0.629474   -0.660754
      8          7           0        1.592723    1.707735   -0.374120
      9          7           0       -3.497138   -3.061599    0.694635
     10          7           0       -0.784832    2.884356   -0.149126
     11          6           0        0.513927   -2.569925   -1.312384
     12          6           0        1.031906   -1.192382   -0.826219
     13          6           0       -0.876018   -2.630682   -1.232753
     14          6           0       -1.356493   -1.445681   -0.780303
     15          6           0        3.845885    1.378893   -0.414834
     16          6           0        2.494321    0.680784   -0.536060
     17          6           0        2.221805   -0.615028   -0.765440
     18          6           0        3.582490    2.602382   -0.000904
     19          6           0        1.591766   -3.593764   -1.878384
     20          6           0       -5.665404   -2.430533    1.318659
     21          6           0       -3.727648   -1.723448    0.135667
     22          6           0        2.131511    2.890874   -0.005596
     23          6           0       -5.142815   -1.430443    0.314509
     24          6           0        5.163699    0.631475   -0.552444
     25          6           0       -2.686374   -1.007062   -0.406772
     26          6           0       -1.677685   -3.916575   -1.707140
     27          6           0       -4.489279   -3.576535    1.354149
     28          6           0        1.854372   -4.671370   -0.813412
     29          6           0        5.567962   -0.080623    0.809996
     30          6           0        4.625525    3.666113    0.169873
     31          6           0        1.388626    4.014759    0.409719
     32          6           0       -7.043868   -3.120709    1.051853
     33          6           0       -5.827092   -0.375851   -0.206274
     34          6           0       -0.045187    4.017000    0.254842
     35          6           0       -0.872779    5.199041    0.488095
     36          6           0       -2.227023    4.814999    0.257533
     37          6           0        2.982234   -4.193198    0.145001
     38          6           0       -5.423543    0.627037   -1.149800
     39          6           0        6.920076   -0.646051    0.816786
     40          6           0       -3.446383    5.478742    0.419907
     41          6           0       -2.045916    3.271841   -0.108500
     42          6           0       -0.389056    6.519232    0.968362
     43          6           0       -4.208552    5.651589   -0.828076
     44          1           0       -0.512612    0.272234   -0.134958
     45          1           0        3.037181   -1.268847   -0.812157
     46          1           0        2.565658   -2.908942   -1.935409
     47          1           0        1.285156   -4.065756   -2.705442
     48          1           0       -5.725389   -2.075110    2.345279
     49          1           0        4.960539    0.042157   -1.496036
     50          1           0        5.904492    1.224211   -0.900594
     51          1           0       -2.719772   -0.055626   -0.580170
     52          1           0        0.523003    1.595941   -0.521835
     53          1           0       -1.864639   -4.566588   -0.865448
     54          1           0       -2.620803   -3.592226   -2.452411
     55          1           0       -0.846763   -4.604156   -2.469205
     56          1           0       -2.413121   -3.269861    0.705047
     57          1           0        0.988327   -5.098899   -0.194763
     58          1           0        2.341456   -5.465608   -1.466423
     59          1           0        4.869167   -0.908471    1.099302
     60          1           0        5.402924    0.627153    1.731655
     61          1           0        4.240586    4.417312   -0.515073
     62          1           0        5.583080    3.201789   -0.109654
     63          1           0        4.672872    3.979745    1.311104
     64          1           0        1.758241    4.959368    0.725508
     65          1           0       -7.772085   -2.349980    1.334009
     66          1           0       -7.207782   -4.190726    1.446603
     67          1           0       -6.927566   -3.347260   -0.019469
     68          1           0       -6.803449   -0.378629   -0.065660
     69          1           0       -5.090312    1.551942   -0.743834
     70          1           0       -6.135460    0.780102   -1.949883
     71          1           0       -4.633926    0.251513   -1.848265
     72          1           0       -3.352327    6.589862    0.698826
     73          1           0       -4.041696    4.942246    1.217125
     74          1           0        0.072486    6.420892    1.884623
     75          1           0       -1.119905    7.449727    0.743373
     76          1           0        0.581980    7.032818    0.211095
     77          1           0       -3.563362    6.261929   -1.606991
     78          1           0       -5.157149    6.267054   -0.753061
     79          1           0       -4.417546    4.741299   -1.542101
     80          1           0        3.599540   -4.425825    2.097682
     81          1           0        7.973300   -1.922985    1.454967
 ---------------------------------------------------------------------

 SCF Done:  E(RB3LYP) =  -1949.04909981     A.U. after   19 cycles

 Excitation energies and oscillator strengths:

 Excited State   1:      Singlet-A      1.9345 eV  640.93 nm  f=0.4253  <S**2>=0.000
     156 ->157         0.70978
     156 <-157        -0.12288
 This state for optimization and/or second-order correction.
 Total Energy, E(TD-HF/TD-DFT) =  -1948.97800997
 Copying the excited state density for this state as the 1-particle RhoCI density.

 The electronic state is 1-A.
 Alpha  occ. eigenvalues --  -19.20899 -19.19311 -19.14655 -19.13242 -19.09605
 Alpha  occ. eigenvalues --  -19.09247 -14.38344 -14.38151 -14.37081 -14.29018
 Alpha  occ. eigenvalues --  -10.33381 -10.33193 -10.28539 -10.25654 -10.25204
 Alpha  occ. eigenvalues --  -10.24977 -10.23978 -10.23755 -10.23711 -10.23341
 Alpha  occ. eigenvalues --  -10.23293 -10.22714 -10.22447 -10.21670 -10.21542
 Alpha  occ. eigenvalues --  -10.21295 -10.20703 -10.20329 -10.20240 -10.20233
 Alpha  occ. eigenvalues --  -10.20210 -10.20175 -10.20151 -10.19887 -10.19610
 Alpha  occ. eigenvalues --  -10.19525 -10.19471 -10.19425 -10.19159 -10.18994
 Alpha  occ. eigenvalues --  -10.18946 -10.18363 -10.16904  -1.11447  -1.10830
 Alpha  occ. eigenvalues --   -1.01767  -1.01760  -1.00630  -0.98787  -0.98621
 Alpha  occ. eigenvalues --   -0.97839  -0.93860  -0.90910  -0.83224  -0.82400
 Alpha  occ. eigenvalues --   -0.81915  -0.81325  -0.80842  -0.79128  -0.77893
 Alpha  occ. eigenvalues --   -0.77454  -0.77263  -0.75744  -0.75347  -0.72323
 Alpha  occ. eigenvalues --   -0.71092  -0.69087  -0.68794  -0.67880  -0.67598
 Alpha  occ. eigenvalues --   -0.67353  -0.66166  -0.64162  -0.63206  -0.61594
 Alpha  occ. eigenvalues --   -0.60237  -0.59619  -0.59061  -0.58146  -0.56673
 Alpha  occ. eigenvalues --   -0.56555  -0.55327  -0.55008  -0.53792  -0.52667
 Alpha  occ. eigenvalues --   -0.52487  -0.51841  -0.51437  -0.50474  -0.50319
 Alpha  occ. eigenvalues --   -0.50082  -0.49666  -0.49077  -0.48615  -0.47720
 Alpha  occ. eigenvalues --   -0.47339  -0.46813  -0.46570  -0.46116  -0.45604
 Alpha  occ. eigenvalues --   -0.45243  -0.44842  -0.44627  -0.44481  -0.44104
 Alpha  occ. eigenvalues --   -0.43750  -0.43448  -0.43194  -0.42918  -0.42406
 Alpha  occ. eigenvalues --   -0.42166  -0.41755  -0.41660  -0.41503  -0.41131
 Alpha  occ. eigenvalues --   -0.41021  -0.40598  -0.40379  -0.40130  -0.40008
 Alpha  occ. eigenvalues --   -0.39454  -0.39364  -0.38967  -0.38808  -0.38378
 Alpha  occ. eigenvalues --   -0.37538  -0.37137  -0.36747  -0.36322  -0.35866
 Alpha  occ. eigenvalues --   -0.35757  -0.35564  -0.35021  -0.34627  -0.34386
 Alpha  occ. eigenvalues --   -0.34020  -0.33891  -0.33731  -0.33185  -0.32558
 Alpha  occ. eigenvalues --   -0.32291  -0.32183  -0.31596  -0.30715  -0.30173
 Alpha  occ. eigenvalues --   -0.28428  -0.28054  -0.26367  -0.26174  -0.25859
 Alpha  occ. eigenvalues --   -0.25640  -0.24042  -0.23418  -0.22912  -0.22262
 Alpha  occ. eigenvalues --   -0.18075
 Alpha virt. eigenvalues --   -0.10586  -0.06396  -0.04173  -0.02585  -0.01077
 Alpha virt. eigenvalues --    0.00542   0.00772   0.01001   0.02463   0.03226
 Alpha virt. eigenvalues --    0.04146   0.04554   0.04810   0.05213   0.05466

 Mulliken charges:
               1
     1  O   -0.279085
     2  O   -0.263895
     3  O   -0.162015
     4  O   -0.175386
     5  O   -0.304643
     6  O   -0.208463
     7  N   -0.141366
     8  N   -0.099918
     9  N   -0.109089
    10  N   -0.275062
    11  C   -0.110097
    12  C    0.085474
    13  C   -0.178212
    14  C    0.024740
    15  C   -0.116322
    16  C    0.049079
    17  C   -0.024892
    18  C   -0.171888
    19  C    0.125937
    20  C   -0.117478
    21  C    0.120554
    22  C    0.141637
    23  C    0.052050
    24  C    0.191414
    25  C    0.010788
    26  C   -0.016818
    27  C    0.123969
    28  C   -0.024700
    29  C   -0.010045
    30  C    0.086847
    31  C   -0.088009
    32  C    0.020039
    33  C   -0.078053
    34  C    0.061162
    35  C   -0.071738
    36  C   -0.157281
    37  C    0.115622
    38  C    0.104259
    39  C    0.177371
    40  C    0.085849
    41  C    0.113009
    42  C    0.010841
    43  C   -0.084909
    44  H    0.153133
    45  H   -0.016713
    46  H    0.050476
    47  H   -0.028747
    48  H    0.040335
    49  H    0.020919
    50  H   -0.025431
    51  H   -0.083509
    52  H    0.162409
    53  H    0.042837
    54  H    0.075119
    55  H    0.026777
    56  H    0.172111
    57  H    0.063263
    58  H    0.045829
    59  H    0.040183
    60  H    0.060664
    61  H    0.038036
    62  H    0.019873
    63  H    0.036912
    64  H   -0.044372
    65  H    0.028080
    66  H    0.054214
    67  H    0.006062
    68  H   -0.060935
    69  H    0.059882
    70  H   -0.006215
    71  H    0.004652
    72  H    0.005337
    73  H    0.036572
    74  H    0.022276
    75  H    0.053898
    76  H    0.019950
    77  H    0.005248
    78  H    0.020566
    79  H    0.038238
    80  H    0.244216
    81  H    0.186578
 Sum of Mulliken charges =  -0.00000

 Dipole moment (field-independent basis, Debye):
    X=              3.7454    Y=              1.1752    Z=              0.4054  Tot=              3.9463
 Quadrupole moment (field-independent basis, Debye-Ang):
   XX=           -261.4967   YY=           -249.1244   ZZ=           -252.6423
   XY=            -28.5442   XZ=             20.6968   YZ=             13.5021

 Normal termination of Gaussian 16 at Sat Jun 29 16:55:21 2019.
