 Gaussian 16, Revision A.03,
 Gaussian 16:  ES64L-G16RevA.03 25-Dec-2016

 --------------------------
 # td=(NStates=1) B3LYP/SVP
 --------------------------

 --
 TD
 --
 Symbolic Z-matrix:
 Charge =  0 Multiplicity = 1

                         Standard orientation:
 ---------------------------------------------------------------------
 Center     Atomic      Atomic             Coordinates (Angstroms)
 Number     Number       Type             X           Y           Z
 ---------------------------------------------------------------------
      1          8           0        4.452427   -4.765509   -1.942130
      2          8           0       -2.920804   -4.664080   -1.331212
      3          8           0       -6.874667   -1.391331   -1.907128
      4          8           0       -3.981542   -3.209458    0.003916
      5          8           0       -7.607888   -0.790360    0.119502
      6          8           0        3.085639    2.509868    0.226726
      7          7           0        0.312529   -0.713372    0.492246
      8          7           0       -1.560841    1.803988    0.399281
      9          7           0        3.516367   -3.241139   -0.492425
     10          7           0        0.778418    2.903158   -0.022247
     11          6           0       -0.691120   -2.436454    1.348184
     12          6           0       -0.908620   -1.163570    0.913125
     13          6           0        0.692758   -2.738892    1.181408
     14          6           0        1.331923   -1.572863    0.605882
     15          6           0       -3.769508    1.428687    0.438493
     16          6           0       -2.452228    0.823912    0.709051
     17          6           0       -2.199467   -0.493953    0.929525
     18          6           0       -3.559594    2.725618    0.027727
     19          6           0       -1.632816   -3.477255    1.914628
     20          6           0        5.611880   -2.640533   -1.330601
     21          6           0        3.637621   -1.853636   -0.117501
     22          6           0       -2.189581    2.986256    0.056740
     23          6           0        5.064095   -1.540001   -0.410489
     24          6           0       -5.124391    0.699898    0.491573
     25          6           0        2.731679   -1.130240    0.417381
     26          6           0        1.430455   -3.976124    1.771038
     27          6           0        4.485550   -3.628078   -1.304435
     28          6           0       -2.047529   -4.463238    0.884897
     29          6           0       -5.358657   -0.169511   -0.822396
     30          6           0       -4.556206    3.733308   -0.372911
     31          6           0       -1.418637    4.108034   -0.290184
     32          6           0        6.984253   -3.191262   -1.075306
     33          6           0        5.822208   -0.564576    0.208589
     34          6           0        0.078799    4.029763   -0.318785
     35          6           0        0.950293    5.161201   -0.562895
     36          6           0        2.247992    4.772926   -0.349810
     37          6           0       -3.040473   -4.010205   -0.218899
     38          6           0        5.554572    0.417059    1.238028
     39          6           0       -6.788848   -0.750909   -0.831830
     40          6           0        3.586661    5.620652   -0.424839
     41          6           0        2.083806    3.232686   -0.004681
     42          6           0        0.395296    6.590547   -0.780873
     43          6           0        4.111029    5.885230    0.916805
     44          1           0        0.469657    0.195247    0.036815
     45          1           0       -2.942706   -1.052998    1.256219
     46          1           0       -2.470778   -2.953497    2.462643
     47          1           0       -1.062459   -3.973566    2.780784
     48          1           0        5.697943   -2.292115   -2.286550
     49          1           0       -5.206112    0.062086    1.333056
     50          1           0       -5.963624    1.410599    0.449776
     51          1           0        2.896117   -0.224901    0.702557
     52          1           0       -0.560518    1.722138    0.670226
     53          1           0        1.498982   -4.971157    1.388682
     54          1           0        2.542494   -3.531373    1.913723
     55          1           0        1.027653   -4.177040    2.841192
     56          1           0        2.649568   -3.801682   -0.626334
     57          1           0       -1.311322   -4.866835    0.408622
     58          1           0       -2.593358   -5.350265    1.284302
     59          1           0       -4.673862   -0.970084   -0.635359
     60          1           0       -5.460036    0.673302   -1.658509
     61          1           0       -4.509163    4.736208    0.233421
     62          1           0       -5.572660    3.372951   -0.114614
     63          1           0       -4.582774    3.828595   -1.364839
     64          1           0       -1.804620    5.045606   -0.590251
     65          1           0        7.580039   -2.323245   -1.289128
     66          1           0        7.198144   -4.112589   -1.687934
     67          1           0        7.015317   -3.544401   -0.025509
     68          1           0        6.777998   -0.185951   -0.480080
     69          1           0        4.913717    1.322824    0.717410
     70          1           0        6.423135    0.738597    1.661909
     71          1           0        5.020658    0.016915    1.976867
     72          1           0        3.520365    6.509860   -0.914238
     73          1           0        4.293054    4.980770   -0.942843
     74          1           0       -0.219747    6.703237   -1.744835
     75          1           0        1.433727    7.044768   -1.075612
     76          1           0       -0.216102    7.042897   -0.049505
     77          1           0        3.513669    6.336266    1.589747
     78          1           0        5.109350    6.401533    0.924585
     79          1           0        4.032871    4.992682    1.735624
     80          1           0       -3.565089   -4.276579   -2.053902
     81          1           0       -7.829320   -1.797162   -1.843324
 ---------------------------------------------------------------------

 SCF Done:  E(RB3LYP) =  -1949.08580416     A.U. after   16 cycles

 Excitation energies and oscillator strengths:

 Excited State   1:      Singlet-A      2.0042 eV  618.61 nm  f=0.3388  <S**2>=0.000
     156 ->157         0.70328
     156 <-157        -0.10877
 This state for optimization and/or second-order correction.
 Total Energy, E(TD-HF/TD-DFT) =  -1949.01215032
 Copying the excited state density for this state as the 1-particle RhoCI density.

 The electronic state is 1-A.
 Alpha  occ. eigenvalues --  -19.21344 -19.20938 -19.13138 -19.12106 -19.10519
 Alpha  occ. eigenvalues --  -19.08694 -14.38393 -14.37090 -14.36360 -14.29571
 Alpha  occ. eigenvalues --  -10.33623 -10.31942 -10.27658 -10.27259 -10.24639
 Alpha  occ. eigenvalues --  -10.24034 -10.23996 -10.23840 -10.23509 -10.23049
 Alpha  occ. eigenvalues --  -10.21493 -10.21400 -10.21207 -10.21144 -10.20852
 Alpha  occ. eigenvalues --  -10.20807 -10.20791 -10.20261 -10.20179 -10.20168
 Alpha  occ. eigenvalues --  -10.20010 -10.19986 -10.19954 -10.19889 -10.19868
 Alpha  occ. eigenvalues --  -10.19717 -10.19184 -10.19169 -10.19053 -10.18180
 Alpha  occ. eigenvalues --  -10.18179 -10.17563 -10.16819  -1.13524  -1.11924
 Alpha  occ. eigenvalues --   -1.00488  -0.99967  -0.99804  -0.99751  -0.98900
 Alpha  occ. eigenvalues --   -0.98701  -0.92406  -0.92153  -0.83249  -0.82433
 Alpha  occ. eigenvalues --   -0.81859  -0.81675  -0.80347  -0.79610  -0.78017
 Alpha  occ. eigenvalues --   -0.77568  -0.76827  -0.76199  -0.75481  -0.72802
 Alpha  occ. eigenvalues --   -0.71755  -0.69918  -0.69351  -0.68800  -0.68197
 Alpha  occ. eigenvalues --   -0.68026  -0.65992  -0.64732  -0.62948  -0.62494
 Alpha  occ. eigenvalues --   -0.61852  -0.60338  -0.59938  -0.57942  -0.57200
 Alpha  occ. eigenvalues --   -0.56720  -0.56069  -0.55483  -0.54171  -0.53112
 Alpha  occ. eigenvalues --   -0.52629  -0.51950  -0.51497  -0.51222  -0.50233
 Alpha  occ. eigenvalues --   -0.50193  -0.49711  -0.49273  -0.48456  -0.48165
 Alpha  occ. eigenvalues --   -0.47902  -0.47454  -0.47136  -0.46117  -0.45857
 Alpha  occ. eigenvalues --   -0.45166  -0.45054  -0.44845  -0.44778  -0.44292
 Alpha  occ. eigenvalues --   -0.44066  -0.43781  -0.43397  -0.43152  -0.42829
 Alpha  occ. eigenvalues --   -0.42337  -0.42038  -0.41489  -0.41381  -0.41218
 Alpha  occ. eigenvalues --   -0.40898  -0.40822  -0.40578  -0.40118  -0.39949
 Alpha  occ. eigenvalues --   -0.39882  -0.39393  -0.38937  -0.38389  -0.37914
 Alpha  occ. eigenvalues --   -0.37648  -0.37300  -0.37175  -0.36739  -0.36587
 Alpha  occ. eigenvalues --   -0.36338  -0.36006  -0.35743  -0.35006  -0.34907
 Alpha  occ. eigenvalues --   -0.34327  -0.33912  -0.33250  -0.33076  -0.32733
 Alpha  occ. eigenvalues --   -0.32116  -0.31928  -0.30655  -0.30232  -0.28590
 Alpha  occ. eigenvalues --   -0.27714  -0.27525  -0.26485  -0.25917  -0.25221
 Alpha  occ. eigenvalues --   -0.24582  -0.24246  -0.23783  -0.23630  -0.22290
 Alpha  occ. eigenvalues --   -0.18873
 Alpha virt. eigenvalues --   -0.10967  -0.06053  -0.04104  -0.01453   0.00236
 Alpha virt. eigenvalues --    0.00411   0.01404   0.02117   0.02890   0.03157
 Alpha virt. eigenvalues --    0.04028   0.04292   0.05109   0.05509   0.05973

 Mulliken charges:
               1
     1  O   -0.323179
     2  O   -0.157991
     3  O   -0.111968
     4  O   -0.286015
     5  O   -0.288242
     6  O   -0.247178
     7  N   -0.038852
     8  N   -0.090616
     9  N   -0.085957
    10  N   -0.260061
    11  C   -0.132585
    12  C    0.032122
    13  C   -0.137892
    14  C    0.025721
    15  C   -0.084711
    16  C    0.080032
    17  C    0.026169
    18  C   -0.143503
    19  C    0.115177
    20  C    0.037118
    21  C    0.180079
    22  C    0.160828
    23  C   -0.023213
    24  C    0.098524
    25  C   -0.047560
    26  C   -0.009147
    27  C    0.070726
    28  C    0.155957
    29  C   -0.028582
    30  C    0.154176
    31  C   -0.106627
    32  C    0.067307
    33  C   -0.219952
    34  C    0.056037
    35  C   -0.117482
    36  C   -0.225822
    37  C    0.093815
    38  C    0.134538
    39  C    0.110564
    40  C    0.208916
    41  C    0.152883
    42  C    0.072575
    43  C   -0.022953
    44  H    0.133526
    45  H   -0.083609
    46  H    0.019547
    47  H    0.010884
    48  H   -0.001079
    49  H    0.012899
    50  H    0.005246
    51  H   -0.096881
    52  H    0.149636
    53  H    0.031662
    54  H    0.050280
    55  H    0.024566
    56  H    0.149387
    57  H   -0.047754
    58  H    0.040076
    59  H    0.060024
    60  H    0.052352
    61  H    0.041775
    62  H   -0.006858
    63  H   -0.007863
    64  H   -0.045950
    65  H    0.013534
    66  H    0.042016
    67  H    0.008578
    68  H    0.023968
    69  H    0.113984
    70  H   -0.013362
    71  H   -0.022157
    72  H   -0.025334
    73  H    0.008616
    74  H    0.018167
    75  H    0.029044
    76  H    0.030392
    77  H   -0.029314
    78  H    0.022811
    79  H    0.014266
    80  H    0.229466
    81  H    0.200281
 Sum of Mulliken charges =  -0.00000

 Dipole moment (field-independent basis, Debye):
    X=             -4.0112    Y=              2.1200    Z=             -0.7854  Tot=              4.6045
 Quadrupole moment (field-independent basis, Debye-Ang):
   XX=           -258.0197   YY=           -243.6138   ZZ=           -251.5371
   XY=             19.6961   XZ=             25.7314   YZ=            -11.5570

 Normal termination of Gaussian 16 at Fri Jul  5 10:22:45 2019.
