 Gaussian 16, Revision A.03,
 Gaussian 16:  ES64L-G16RevA.03 25-Dec-2016

 --------------------------
 # td=(NStates=1) B3LYP/SVP
 --------------------------

 --
 TD
 --
 Symbolic Z-matrix:
 Charge =  0 Multiplicity = 1

                         Standard orientation:
 ---------------------------------------------------------------------
 Center     Atomic      Atomic             Coordinates (Angstroms)
 Number     Number       Type             X           Y           Z
 ---------------------------------------------------------------------
      1          8           0       -4.561836   -4.696751    1.937040
      2          8           0        3.166409   -4.815610    1.281041
      3          8           0        7.035712   -1.354447    1.961812
      4          8           0        3.889307   -3.120715    0.043938
      5          8           0        7.620235   -0.398483   -0.021503
      6          8           0       -3.060568    2.513935   -0.196889
      7          7           0       -0.304445   -0.577201   -0.631401
      8          7           0        1.506276    1.807435   -0.357073
      9          7           0       -3.423807   -3.113895    0.605492
     10          7           0       -0.764191    2.820430   -0.120358
     11          6           0        0.672122   -2.494056   -1.326714
     12          6           0        0.943213   -1.210084   -0.881332
     13          6           0       -0.721690   -2.702452   -1.271322
     14          6           0       -1.271243   -1.463494   -0.672566
     15          6           0        3.790992    1.430777   -0.404844
     16          6           0        2.477599    0.738800   -0.610369
     17          6           0        2.206679   -0.571154   -0.754787
     18          6           0        3.587190    2.740754   -0.181677
     19          6           0        1.634761   -3.492018   -1.929886
     20          6           0       -5.534354   -2.608921    1.362564
     21          6           0       -3.652224   -1.853936   -0.044933
     22          6           0        2.202240    2.941813   -0.102422
     23          6           0       -5.147887   -1.578952    0.349737
     24          6           0        5.012746    0.685420   -0.501192
     25          6           0       -2.691234   -1.155314   -0.620303
     26          6           0       -1.552367   -3.806133   -1.715452
     27          6           0       -4.456897   -3.712250    1.275406
     28          6           0        2.184843   -4.581339   -0.946423
     29          6           0        5.443910   -0.027398    0.896610
     30          6           0        4.568566    3.813505    0.254744
     31          6           0        1.319923    4.037886    0.216000
     32          6           0       -6.929655   -3.252272    1.262213
     33          6           0       -5.886758   -0.589777   -0.235340
     34          6           0       -0.042479    4.003334    0.146897
     35          6           0       -0.992566    5.164098    0.510383
     36          6           0       -2.291203    4.645706    0.284840
     37          6           0        3.106258   -4.007811    0.139439
     38          6           0       -5.495848    0.461968   -1.254590
     39          6           0        6.852009   -0.616048    0.862360
     40          6           0       -3.591219    5.293621    0.468886
     41          6           0       -2.111945    3.183344   -0.039100
     42          6           0       -0.574049    6.519636    0.916892
     43          6           0       -4.442445    5.647450   -0.714514
     44          1           0       -0.225973    0.311782    0.042255
     45          1           0        3.012446   -1.281911   -0.995564
     46          1           0        2.476031   -2.727741   -2.368767
     47          1           0        1.240542   -3.946207   -2.907644
     48          1           0       -5.541330   -2.252274    2.383108
     49          1           0        5.168494   -0.030273   -1.360291
     50          1           0        5.877723    1.316096   -0.697837
     51          1           0       -3.216635   -0.085031   -1.144111
     52          1           0        0.441676    1.934586   -0.379154
     53          1           0       -1.741573   -4.582758   -0.954491
     54          1           0       -2.405754   -3.393031   -2.245886
     55          1           0       -0.921677   -4.363981   -2.566976
     56          1           0       -2.521508   -3.501942    0.380607
     57          1           0        1.225641   -5.004419   -0.431320
     58          1           0        2.863981   -5.215672   -1.528080
     59          1           0        4.679916   -0.841067    1.357131
     60          1           0        5.256587    0.614417    1.757323
     61          1           0        4.608778    4.735519   -0.269187
     62          1           0        5.577398    3.379295   -0.000622
     63          1           0        4.340635    3.951006    1.376752
     64          1           0        1.847341    4.965841    0.408454
     65          1           0       -7.648907   -2.356620    1.722347
     66          1           0       -7.007382   -4.074413    1.981811
     67          1           0       -7.386956   -3.247785    0.257471
     68          1           0       -6.943695   -0.581155    0.204584
     69          1           0       -5.098359    1.427104   -0.621890
     70          1           0       -6.462900    1.023015   -1.787436
     71          1           0       -4.611168    0.230535   -1.994911
     72          1           0       -3.548642    6.216150    1.241592
     73          1           0       -3.941991    4.348799    1.212209
     74          1           0        0.589697    6.527966    1.502247
     75          1           0       -1.418145    7.023159    1.399981
     76          1           0       -0.418354    7.107746   -0.249016
     77          1           0       -3.765180    6.405613   -1.273527
     78          1           0       -5.405489    6.119870   -0.524773
     79          1           0       -4.503984    4.866532   -1.395015
     80          1           0        4.033213   -4.490199    1.802237
     81          1           0        7.982669   -1.617593    1.711035
 ---------------------------------------------------------------------

 SCF Done:  E(RB3LYP) =  -1949.08717933     A.U. after   16 cycles

 Excitation energies and oscillator strengths:

 Excited State   1:      Singlet-A      2.1237 eV  583.82 nm  f=0.3674  <S**2>=0.000
     156 ->157         0.70429
 This state for optimization and/or second-order correction.
 Total Energy, E(TD-HF/TD-DFT) =  -1949.00913529
 Copying the excited state density for this state as the 1-particle RhoCI density.

 The electronic state is 1-A.
 Alpha  occ. eigenvalues --  -19.20165 -19.18712 -19.14971 -19.14126 -19.10722
 Alpha  occ. eigenvalues --  -19.09545 -14.38806 -14.36360 -14.34803 -14.28865
 Alpha  occ. eigenvalues --  -10.33701 -10.32856 -10.28511 -10.25688 -10.24011
 Alpha  occ. eigenvalues --  -10.24008 -10.23833 -10.23790 -10.23486 -10.22958
 Alpha  occ. eigenvalues --  -10.22902 -10.22768 -10.22628 -10.21608 -10.21405
 Alpha  occ. eigenvalues --  -10.21133 -10.21122 -10.20700 -10.20694 -10.20670
 Alpha  occ. eigenvalues --  -10.20449 -10.20434 -10.20230 -10.20135 -10.20131
 Alpha  occ. eigenvalues --  -10.20129 -10.19856 -10.19715 -10.19321 -10.19050
 Alpha  occ. eigenvalues --  -10.18464 -10.18330 -10.17952  -1.11854  -1.10334
 Alpha  occ. eigenvalues --   -1.03965  -1.03455  -1.03040  -1.00604  -0.98926
 Alpha  occ. eigenvalues --   -0.96671  -0.94654  -0.89664  -0.82928  -0.82505
 Alpha  occ. eigenvalues --   -0.81493  -0.80393  -0.79201  -0.78907  -0.77754
 Alpha  occ. eigenvalues --   -0.76836  -0.76084  -0.74757  -0.73775  -0.72724
 Alpha  occ. eigenvalues --   -0.71647  -0.68864  -0.68628  -0.67802  -0.67469
 Alpha  occ. eigenvalues --   -0.67307  -0.64884  -0.63743  -0.61645  -0.61182
 Alpha  occ. eigenvalues --   -0.59054  -0.58584  -0.58293  -0.57316  -0.56923
 Alpha  occ. eigenvalues --   -0.55757  -0.54821  -0.53924  -0.53056  -0.52289
 Alpha  occ. eigenvalues --   -0.51736  -0.51162  -0.50803  -0.50529  -0.49989
 Alpha  occ. eigenvalues --   -0.49677  -0.49569  -0.48386  -0.48185  -0.47637
 Alpha  occ. eigenvalues --   -0.47419  -0.46753  -0.46299  -0.45937  -0.45424
 Alpha  occ. eigenvalues --   -0.45407  -0.44837  -0.44260  -0.43828  -0.43458
 Alpha  occ. eigenvalues --   -0.43328  -0.43056  -0.42721  -0.42119  -0.41997
 Alpha  occ. eigenvalues --   -0.41737  -0.41272  -0.41170  -0.41045  -0.40652
 Alpha  occ. eigenvalues --   -0.40589  -0.40547  -0.40263  -0.40032  -0.39945
 Alpha  occ. eigenvalues --   -0.39290  -0.39066  -0.38505  -0.38438  -0.38224
 Alpha  occ. eigenvalues --   -0.37859  -0.37590  -0.37004  -0.36698  -0.36565
 Alpha  occ. eigenvalues --   -0.36157  -0.36001  -0.35774  -0.34763  -0.34486
 Alpha  occ. eigenvalues --   -0.34189  -0.33961  -0.33617  -0.33202  -0.33011
 Alpha  occ. eigenvalues --   -0.32621  -0.31547  -0.30533  -0.30078  -0.29896
 Alpha  occ. eigenvalues --   -0.29731  -0.28105  -0.26492  -0.25933  -0.25829
 Alpha  occ. eigenvalues --   -0.25041  -0.24055  -0.23494  -0.22204  -0.21453
 Alpha  occ. eigenvalues --   -0.18752
 Alpha virt. eigenvalues --   -0.10085  -0.04928  -0.03067  -0.01885  -0.00073
 Alpha virt. eigenvalues --    0.00631   0.00977   0.02197   0.02454   0.02752
 Alpha virt. eigenvalues --    0.03618   0.03741   0.04604   0.05153   0.05489

 Mulliken charges:
               1
     1  O   -0.190952
     2  O   -0.268686
     3  O   -0.175753
     4  O   -0.198362
     5  O   -0.210697
     6  O   -0.162273
     7  N   -0.068711
     8  N   -0.180086
     9  N   -0.141699
    10  N   -0.350842
    11  C   -0.061528
    12  C    0.012623
    13  C   -0.188371
    14  C    0.023492
    15  C   -0.040257
    16  C    0.138345
    17  C   -0.052382
    18  C   -0.123470
    19  C   -0.033907
    20  C   -0.072018
    21  C    0.072181
    22  C    0.061561
    23  C    0.003328
    24  C    0.078568
    25  C   -0.154179
    26  C    0.071770
    27  C    0.156216
    28  C    0.070054
    29  C   -0.076673
    30  C    0.097888
    31  C   -0.116419
    32  C    0.008784
    33  C   -0.120834
    34  C    0.132671
    35  C   -0.068606
    36  C   -0.156190
    37  C    0.127737
    38  C   -0.064930
    39  C    0.160612
    40  C   -0.071052
    41  C    0.144680
    42  C   -0.019676
    43  C    0.073157
    44  H    0.191898
    45  H    0.016226
    46  H    0.032779
    47  H    0.036124
    48  H    0.040491
    49  H    0.032730
    50  H    0.002792
    51  H    0.085546
    52  H    0.151111
    53  H    0.043129
    54  H    0.041579
    55  H    0.011841
    56  H    0.109727
    57  H    0.062876
    58  H    0.057906
    59  H    0.049571
    60  H    0.025630
    61  H    0.016308
    62  H    0.013502
    63  H    0.052016
    64  H   -0.044645
    65  H    0.000469
    66  H    0.046221
    67  H    0.020048
    68  H    0.003036
    69  H    0.099751
    70  H    0.035883
    71  H    0.063477
    72  H    0.015210
    73  H    0.040342
    74  H    0.060119
    75  H    0.030749
    76  H    0.054113
    77  H    0.005955
    78  H    0.023019
    79  H    0.004844
    80  H    0.222065
    81  H    0.180453
 Sum of Mulliken charges =  -0.00000

 Dipole moment (field-independent basis, Debye):
    X=              4.7005    Y=              0.5608    Z=             -0.5138  Tot=              4.7617
 Quadrupole moment (field-independent basis, Debye-Ang):
   XX=           -249.5723   YY=           -246.2350   ZZ=           -255.0847
   XY=            -20.8515   XZ=             16.3827   YZ=             15.0913

 Normal termination of Gaussian 16 at Thu Jun 27 01:39:46 2019.
