 Gaussian 16, Revision A.03,
 Gaussian 16:  ES64L-G16RevA.03 25-Dec-2016

 --------------------------
 # td=(NStates=1) B3LYP/SVP
 --------------------------

 --
 TD
 --
 Symbolic Z-matrix:
 Charge =  0 Multiplicity = 1

                         Standard orientation:
 ---------------------------------------------------------------------
 Center     Atomic      Atomic             Coordinates (Angstroms)
 Number     Number       Type             X           Y           Z
 ---------------------------------------------------------------------
      1          8           0       -4.391729   -4.755399    1.852294
      2          8           0        3.037829   -4.833827    1.297570
      3          8           0        7.069128   -1.276295    1.877483
      4          8           0        3.826497   -3.285782   -0.057407
      5          8           0        7.598131   -0.414047   -0.107457
      6          8           0       -3.111884    2.482547   -0.239960
      7          7           0       -0.305160   -0.635864   -0.664442
      8          7           0        1.555357    1.738986   -0.384985
      9          7           0       -3.340766   -3.089043    0.630951
     10          7           0       -0.781676    2.820457   -0.093036
     11          6           0        0.590989   -2.516390   -1.381872
     12          6           0        0.939972   -1.098669   -0.923252
     13          6           0       -0.745940   -2.663787   -1.316868
     14          6           0       -1.341464   -1.542725   -0.788046
     15          6           0        3.814106    1.394707   -0.372653
     16          6           0        2.524626    0.820024   -0.550250
     17          6           0        2.262293   -0.514765   -0.874958
     18          6           0        3.568445    2.673694    0.000829
     19          6           0        1.535905   -3.531203   -1.780353
     20          6           0       -5.489579   -2.533364    1.498753
     21          6           0       -3.562415   -1.827439    0.094834
     22          6           0        2.115863    2.932730   -0.007053
     23          6           0       -4.972011   -1.490014    0.426828
     24          6           0        5.031882    0.628518   -0.497681
     25          6           0       -2.683624   -1.071793   -0.543223
     26          6           0       -1.570285   -3.806061   -1.983920
     27          6           0       -4.445231   -3.611227    1.333650
     28          6           0        1.944213   -4.509300   -0.733357
     29          6           0        5.326337   -0.128757    0.727206
     30          6           0        4.451037    3.808694    0.282252
     31          6           0        1.390537    4.107342    0.329123
     32          6           0       -6.919255   -3.064968    1.279993
     33          6           0       -5.735669   -0.503843   -0.059993
     34          6           0       -0.034888    3.951767    0.322582
     35          6           0       -0.993448    5.159228    0.499460
     36          6           0       -2.254567    4.621571    0.282068
     37          6           0        3.043627   -4.072893    0.172230
     38          6           0       -5.468432    0.347986   -1.173309
     39          6           0        6.846613   -0.600385    0.752475
     40          6           0       -3.555828    5.349755    0.284396
     41          6           0       -2.119940    3.182185   -0.022305
     42          6           0       -0.524222    6.519926    1.020310
     43          6           0       -4.245989    5.716326   -0.984520
     44          1           0       -0.311277    0.143566   -0.283461
     45          1           0        3.047880   -1.127256   -0.985378
     46          1           0        2.503913   -3.016909   -1.935382
     47          1           0        1.125336   -3.906994   -2.707132
     48          1           0       -5.501422   -1.977029    2.462897
     49          1           0        4.903106   -0.048777   -1.261456
     50          1           0        5.889073    1.163956   -0.877117
     51          1           0       -3.093444   -0.055020   -0.782415
     52          1           0        0.486117    1.687761   -0.699409
     53          1           0       -1.591543   -4.745631   -1.485736
     54          1           0       -2.669715   -3.632861   -2.197502
     55          1           0       -1.352360   -4.024024   -2.996408
     56          1           0       -2.478883   -3.606197    0.377552
     57          1           0        1.252897   -4.883375    0.092069
     58          1           0        2.209726   -5.531208   -1.035349
     59          1           0        4.658193   -0.937809    0.829380
     60          1           0        5.411040    0.575875    1.643847
     61          1           0        4.036196    4.879851   -0.092171
     62          1           0        5.391810    3.699768   -0.136045
     63          1           0        4.728352    3.692227    1.425279
     64          1           0        1.900321    4.958612    0.671601
     65          1           0       -7.611609   -2.191852    1.259306
     66          1           0       -7.114022   -3.716113    2.136624
     67          1           0       -7.059242   -3.676314    0.293425
     68          1           0       -6.704774   -0.513841    0.416173
     69          1           0       -5.161994    1.286355   -0.814443
     70          1           0       -6.486423    0.316114   -1.988209
     71          1           0       -4.601772   -0.178616   -1.702929
     72          1           0       -3.291904    6.313039    0.853111
     73          1           0       -4.366796    4.757413    0.990420
     74          1           0        0.073351    6.336030    1.911171
     75          1           0       -1.327157    7.140087    1.344597
     76          1           0        0.137696    7.027731    0.187522
     77          1           0       -3.615571    6.452605   -1.628993
     78          1           0       -4.985808    6.511144   -0.880295
     79          1           0       -4.416245    4.923081   -1.608211
     80          1           0        3.582642   -4.457684    2.042299
     81          1           0        7.944306   -1.578260    1.880919
 ---------------------------------------------------------------------

 SCF Done:  E(RB3LYP) =  -1949.13024542     A.U. after   16 cycles

 Excitation energies and oscillator strengths:

 Excited State   1:      Singlet-A      1.9310 eV  642.06 nm  f=0.4049  <S**2>=0.000
     156 ->157         0.70750
     156 <-157        -0.12679
 This state for optimization and/or second-order correction.
 Total Energy, E(TD-HF/TD-DFT) =  -1949.05928132
 Copying the excited state density for this state as the 1-particle RhoCI density.

 The electronic state is 1-A.
 Alpha  occ. eigenvalues --  -19.18676 -19.18250 -19.14491 -19.13580 -19.10643
 Alpha  occ. eigenvalues --  -19.09562 -14.36964 -14.36936 -14.36346 -14.29118
 Alpha  occ. eigenvalues --  -10.32410 -10.32076 -10.29551 -10.25591 -10.24143
 Alpha  occ. eigenvalues --  -10.23775 -10.23711 -10.23582 -10.23311 -10.22774
 Alpha  occ. eigenvalues --  -10.21251 -10.21226 -10.20919 -10.20535 -10.20346
 Alpha  occ. eigenvalues --  -10.20116 -10.20068 -10.20007 -10.19744 -10.19738
 Alpha  occ. eigenvalues --  -10.19641 -10.19611 -10.19576 -10.19437 -10.19436
 Alpha  occ. eigenvalues --  -10.19432 -10.19392 -10.18832 -10.18633 -10.18443
 Alpha  occ. eigenvalues --  -10.18337 -10.18150 -10.17010  -1.12770  -1.12337
 Alpha  occ. eigenvalues --   -1.04055  -1.03447  -1.01268  -1.00242  -0.99973
 Alpha  occ. eigenvalues --   -0.98444  -0.94152  -0.89323  -0.84021  -0.83686
 Alpha  occ. eigenvalues --   -0.81761  -0.81569  -0.79957  -0.78700  -0.78536
 Alpha  occ. eigenvalues --   -0.77710  -0.76638  -0.75394  -0.74289  -0.72651
 Alpha  occ. eigenvalues --   -0.71817  -0.70974  -0.69488  -0.68900  -0.68317
 Alpha  occ. eigenvalues --   -0.67876  -0.65433  -0.64472  -0.62107  -0.61542
 Alpha  occ. eigenvalues --   -0.61379  -0.60245  -0.59235  -0.59016  -0.57776
 Alpha  occ. eigenvalues --   -0.56526  -0.55857  -0.54786  -0.54051  -0.53081
 Alpha  occ. eigenvalues --   -0.52732  -0.52049  -0.51154  -0.50720  -0.50071
 Alpha  occ. eigenvalues --   -0.49646  -0.49361  -0.49122  -0.49040  -0.48238
 Alpha  occ. eigenvalues --   -0.47768  -0.46608  -0.46287  -0.45754  -0.45304
 Alpha  occ. eigenvalues --   -0.44992  -0.44857  -0.44633  -0.44165  -0.43432
 Alpha  occ. eigenvalues --   -0.43341  -0.43281  -0.42970  -0.42883  -0.42645
 Alpha  occ. eigenvalues --   -0.42181  -0.41951  -0.41668  -0.41550  -0.41443
 Alpha  occ. eigenvalues --   -0.41080  -0.40966  -0.40611  -0.40566  -0.40043
 Alpha  occ. eigenvalues --   -0.39666  -0.39425  -0.39356  -0.38806  -0.38572
 Alpha  occ. eigenvalues --   -0.37681  -0.37652  -0.37465  -0.37248  -0.37037
 Alpha  occ. eigenvalues --   -0.36520  -0.36125  -0.35429  -0.35134  -0.34597
 Alpha  occ. eigenvalues --   -0.34496  -0.34160  -0.33950  -0.33584  -0.33332
 Alpha  occ. eigenvalues --   -0.32704  -0.32069  -0.30174  -0.29956  -0.29412
 Alpha  occ. eigenvalues --   -0.28789  -0.27067  -0.26524  -0.25738  -0.25479
 Alpha  occ. eigenvalues --   -0.25403  -0.24914  -0.23531  -0.22719  -0.21728
 Alpha  occ. eigenvalues --   -0.17873
 Alpha virt. eigenvalues --   -0.10444  -0.05505  -0.02813  -0.01248   0.00438
 Alpha virt. eigenvalues --    0.01845   0.02378   0.03287   0.03822   0.04268
 Alpha virt. eigenvalues --    0.04338   0.05123   0.05344   0.05853   0.06012

 Mulliken charges:
               1
     1  O   -0.251503
     2  O   -0.227285
     3  O   -0.141755
     4  O   -0.134470
     5  O   -0.162901
     6  O   -0.231217
     7  N    0.084151
     8  N   -0.108994
     9  N   -0.121995
    10  N   -0.351040
    11  C   -0.153984
    12  C   -0.006647
    13  C   -0.112532
    14  C    0.077885
    15  C   -0.055299
    16  C    0.045947
    17  C    0.013940
    18  C   -0.154604
    19  C    0.192146
    20  C   -0.066654
    21  C    0.091887
    22  C    0.087921
    23  C   -0.066711
    24  C    0.202094
    25  C   -0.108128
    26  C    0.062242
    27  C    0.175148
    28  C   -0.011572
    29  C   -0.023408
    30  C    0.078201
    31  C   -0.089038
    32  C    0.026207
    33  C   -0.132924
    34  C    0.101312
    35  C   -0.114039
    36  C   -0.154446
    37  C    0.075366
    38  C    0.067922
    39  C    0.090795
    40  C    0.014682
    41  C    0.170456
    42  C    0.101823
    43  C    0.063231
    44  H    0.015006
    45  H   -0.070712
    46  H    0.006810
    47  H    0.001468
    48  H    0.058677
    49  H   -0.027208
    50  H   -0.004517
    51  H    0.029223
    52  H    0.194999
    53  H    0.010835
    54  H    0.022308
    55  H    0.007308
    56  H    0.137540
    57  H    0.027867
    58  H    0.033666
    59  H    0.029859
    60  H    0.034850
    61  H    0.054370
    62  H   -0.015205
    63  H    0.031843
    64  H   -0.038661
    65  H    0.022944
    66  H    0.034147
    67  H    0.031119
    68  H   -0.032455
    69  H    0.055967
    70  H    0.035050
    71  H    0.036034
    72  H   -0.010978
    73  H    0.029053
    74  H    0.024397
    75  H    0.006144
    76  H    0.043065
    77  H   -0.019774
    78  H    0.002730
    79  H    0.012256
    80  H    0.198615
    81  H    0.149153
 Sum of Mulliken charges =  -0.00000

 Dipole moment (field-independent basis, Debye):
    X=              3.9347    Y=              0.5428    Z=              0.6518  Tot=              4.0251
 Quadrupole moment (field-independent basis, Debye-Ang):
   XX=           -244.6721   YY=           -244.6275   ZZ=           -251.5263
   XY=            -12.1885   XZ=             19.3439   YZ=             13.5055

 Normal termination of Gaussian 16 at Wed Jul  3 00:56:28 2019.
