 Gaussian 16, Revision A.03,
 Gaussian 16:  ES64L-G16RevA.03 25-Dec-2016

 --------------------------
 # td=(NStates=1) B3LYP/SVP
 --------------------------

 --
 TD
 --
 Symbolic Z-matrix:
 Charge =  0 Multiplicity = 1

                         Standard orientation:
 ---------------------------------------------------------------------
 Center     Atomic      Atomic             Coordinates (Angstroms)
 Number     Number       Type             X           Y           Z
 ---------------------------------------------------------------------
      1          8           0        4.550501   -4.856551   -1.696650
      2          8           0       -2.837014   -4.834359   -1.206598
      3          8           0       -7.008541   -1.724504   -1.651643
      4          8           0       -3.809541   -3.291178    0.030722
      5          8           0       -7.554001   -0.590846    0.174603
      6          8           0        2.997191    2.552147    0.398588
      7          7           0        0.351716   -0.505129    0.490883
      8          7           0       -1.608423    1.929329    0.299463
      9          7           0        3.410921   -3.141049   -0.603515
     10          7           0        0.679663    3.024299    0.050143
     11          6           0       -0.588409   -2.500151    1.397824
     12          6           0       -0.943426   -1.103206    0.953930
     13          6           0        0.829708   -2.598310    1.287782
     14          6           0        1.346996   -1.438900    0.689841
     15          6           0       -3.779922    1.406678    0.110801
     16          6           0       -2.475426    0.867195    0.372334
     17          6           0       -2.134072   -0.482209    0.720492
     18          6           0       -3.576998    2.820689   -0.208474
     19          6           0       -1.658590   -3.451454    1.985142
     20          6           0        5.530027   -2.635479   -1.457091
     21          6           0        3.551107   -1.966821   -0.096538
     22          6           0       -2.129013    2.990102    0.012979
     23          6           0        4.999650   -1.633258   -0.388772
     24          6           0       -5.007447    0.749709    0.314451
     25          6           0        2.732288   -1.030060    0.449311
     26          6           0        1.480010   -3.904839    1.812138
     27          6           0        4.506024   -3.698339   -1.255961
     28          6           0       -2.126257   -4.644476    1.013647
     29          6           0       -5.340615   -0.133591   -0.812777
     30          6           0       -4.555073    3.773005   -0.666463
     31          6           0       -1.367781    4.184526   -0.245909
     32          6           0        7.030809   -3.107539   -1.442587
     33          6           0        5.797963   -0.617118    0.106370
     34          6           0        0.041808    4.086047   -0.301579
     35          6           0        0.972050    5.257198   -0.463169
     36          6           0        2.177630    4.776720   -0.189811
     37          6           0       -3.025194   -4.162553   -0.085989
     38          6           0        5.432115    0.327985    1.205486
     39          6           0       -6.810566   -0.846498   -0.703309
     40          6           0        3.496058    5.511336   -0.275040
     41          6           0        2.119955    3.357181    0.207422
     42          6           0        0.508026    6.585157   -0.847379
     43          6           0        4.170870    5.729457    1.110315
     44          1           0        0.521696    0.476938    0.069801
     45          1           0       -2.990459   -1.130626    1.065368
     46          1           0       -2.527639   -2.919564    2.309301
     47          1           0       -1.157422   -3.988219    2.830634
     48          1           0        5.349236   -2.330586   -2.525933
     49          1           0       -4.870984    0.045002    1.361408
     50          1           0       -5.995000    1.523243    0.585736
     51          1           0        3.189657   -0.091276    0.582093
     52          1           0       -0.626420    2.022498    0.353295
     53          1           0        1.350756   -4.757760    1.100668
     54          1           0        2.507901   -3.458055    1.747434
     55          1           0        1.148106   -4.204414    2.694947
     56          1           0        2.417583   -3.654522   -0.777908
     57          1           0       -1.184667   -5.054583    0.521868
     58          1           0       -2.862171   -5.296805    1.805528
     59          1           0       -4.540621   -1.047970   -0.781469
     60          1           0       -5.404762    0.379916   -1.791793
     61          1           0       -4.438079    4.690550    0.081433
     62          1           0       -5.665396    3.331546   -0.542545
     63          1           0       -4.547752    4.150716   -1.768177
     64          1           0       -2.009657    5.037578   -0.655592
     65          1           0        7.777404   -2.329338   -1.775011
     66          1           0        7.194069   -3.786541   -2.246238
     67          1           0        7.133045   -3.679474   -0.374054
     68          1           0        6.808720   -0.375147   -0.426318
     69          1           0        4.813271    1.115603    0.760415
     70          1           0        6.418898    0.968404    1.674175
     71          1           0        4.708482   -0.192723    1.890686
     72          1           0        3.281347    6.471337   -0.844767
     73          1           0        4.124335    4.824656   -0.910081
     74          1           0        0.153023    6.543267   -1.884774
     75          1           0        1.308229    7.337129   -0.698052
     76          1           0       -0.481169    6.914594   -0.233545
     77          1           0        3.631489    6.473274    1.765611
     78          1           0        5.189018    5.951933    1.042970
     79          1           0        4.120151    4.746862    1.533660
     80          1           0       -3.753389   -4.575699   -1.755051
     81          1           0       -7.862552   -2.130687   -1.693224
 ---------------------------------------------------------------------

 SCF Done:  E(RB3LYP) =  -1949.08494535     A.U. after   17 cycles

 Excitation energies and oscillator strengths:

 Excited State   1:      Singlet-A      1.8804 eV  659.36 nm  f=0.4156  <S**2>=0.000
     156 ->157         0.70854
     156 <-157        -0.12877
 This state for optimization and/or second-order correction.
 Total Energy, E(TD-HF/TD-DFT) =  -1949.01584311
 Copying the excited state density for this state as the 1-particle RhoCI density.

 The electronic state is 1-A.
 Alpha  occ. eigenvalues --  -19.20468 -19.18523 -19.14080 -19.11971 -19.11958
 Alpha  occ. eigenvalues --  -19.11280 -14.39191 -14.37996 -14.34744 -14.27541
 Alpha  occ. eigenvalues --  -10.32821 -10.31468 -10.30153 -10.26756 -10.24726
 Alpha  occ. eigenvalues --  -10.24679 -10.23854 -10.23778 -10.22924 -10.22224
 Alpha  occ. eigenvalues --  -10.21916 -10.21716 -10.21668 -10.21566 -10.21154
 Alpha  occ. eigenvalues --  -10.21096 -10.21079 -10.20924 -10.20740 -10.20607
 Alpha  occ. eigenvalues --  -10.20489 -10.20473 -10.19869 -10.19739 -10.19523
 Alpha  occ. eigenvalues --  -10.19475 -10.19112 -10.18848 -10.18770 -10.18549
 Alpha  occ. eigenvalues --  -10.17677 -10.17383 -10.16900  -1.12239  -1.11136
 Alpha  occ. eigenvalues --   -1.04022  -1.02780  -1.02371  -1.01996  -1.01656
 Alpha  occ. eigenvalues --   -0.97916  -0.95198  -0.91529  -0.82906  -0.81467
 Alpha  occ. eigenvalues --   -0.80971  -0.80794  -0.79583  -0.78610  -0.77604
 Alpha  occ. eigenvalues --   -0.76494  -0.75660  -0.74748  -0.74136  -0.71705
 Alpha  occ. eigenvalues --   -0.70619  -0.69322  -0.68713  -0.68540  -0.67908
 Alpha  occ. eigenvalues --   -0.67317  -0.65724  -0.63553  -0.62443  -0.62211
 Alpha  occ. eigenvalues --   -0.61226  -0.59636  -0.58724  -0.58212  -0.56306
 Alpha  occ. eigenvalues --   -0.55762  -0.54504  -0.54084  -0.53683  -0.52447
 Alpha  occ. eigenvalues --   -0.51633  -0.51081  -0.50783  -0.50550  -0.49046
 Alpha  occ. eigenvalues --   -0.49007  -0.48655  -0.48323  -0.48265  -0.47537
 Alpha  occ. eigenvalues --   -0.46997  -0.46484  -0.46130  -0.45791  -0.45331
 Alpha  occ. eigenvalues --   -0.45271  -0.44577  -0.44394  -0.43733  -0.43612
 Alpha  occ. eigenvalues --   -0.43500  -0.42915  -0.42810  -0.42521  -0.42355
 Alpha  occ. eigenvalues --   -0.42100  -0.42064  -0.41392  -0.40826  -0.40476
 Alpha  occ. eigenvalues --   -0.40232  -0.40196  -0.39966  -0.39782  -0.39365
 Alpha  occ. eigenvalues --   -0.39116  -0.39106  -0.38936  -0.38765  -0.38458
 Alpha  occ. eigenvalues --   -0.38154  -0.37941  -0.37684  -0.36658  -0.36236
 Alpha  occ. eigenvalues --   -0.36193  -0.36053  -0.35705  -0.34388  -0.34313
 Alpha  occ. eigenvalues --   -0.34116  -0.33873  -0.33798  -0.33179  -0.33067
 Alpha  occ. eigenvalues --   -0.33002  -0.32893  -0.31301  -0.30328  -0.29749
 Alpha  occ. eigenvalues --   -0.27565  -0.27211  -0.27062  -0.25730  -0.25543
 Alpha  occ. eigenvalues --   -0.24721  -0.23813  -0.23333  -0.22865  -0.21321
 Alpha  occ. eigenvalues --   -0.17029
 Alpha virt. eigenvalues --   -0.09749  -0.05417  -0.03532  -0.02322  -0.01757
 Alpha virt. eigenvalues --    0.00766   0.01324   0.01722   0.02679   0.03884
 Alpha virt. eigenvalues --    0.04376   0.04952   0.05104   0.05324   0.05603

 Mulliken charges:
               1
     1  O   -0.222120
     2  O   -0.210768
     3  O   -0.140454
     4  O   -0.200220
     5  O   -0.190357
     6  O   -0.187880
     7  N   -0.187715
     8  N    0.151499
     9  N   -0.088019
    10  N   -0.355380
    11  C   -0.075080
    12  C    0.047270
    13  C   -0.193746
    14  C    0.092587
    15  C   -0.005056
    16  C    0.065706
    17  C   -0.044966
    18  C   -0.102731
    19  C    0.107818
    20  C   -0.057990
    21  C    0.086316
    22  C   -0.082173
    23  C   -0.080108
    24  C   -0.072183
    25  C   -0.074790
    26  C    0.126022
    27  C    0.105165
    28  C   -0.054518
    29  C   -0.078680
    30  C   -0.025427
    31  C   -0.116203
    32  C    0.044379
    33  C   -0.148948
    34  C    0.070875
    35  C   -0.077760
    36  C   -0.206245
    37  C    0.110908
    38  C   -0.005881
    39  C    0.105499
    40  C    0.047258
    41  C    0.189283
    42  C    0.068420
    43  C    0.043009
    44  H    0.176659
    45  H    0.020947
    46  H    0.018881
    47  H    0.014157
    48  H    0.053911
    49  H    0.044075
    50  H    0.056940
    51  H   -0.026776
    52  H    0.080916
    53  H    0.028644
    54  H    0.040323
    55  H   -0.012170
    56  H    0.184200
    57  H    0.047516
    58  H    0.084465
    59  H    0.080621
    60  H    0.030992
    61  H    0.043085
    62  H    0.025280
    63  H    0.048541
    64  H   -0.010853
    65  H    0.023060
    66  H    0.012288
    67  H    0.047802
    68  H    0.022707
    69  H    0.077979
    70  H    0.039619
    71  H    0.041904
    72  H   -0.003982
    73  H    0.014111
    74  H    0.026689
    75  H    0.022967
    76  H    0.043206
    77  H    0.018401
    78  H   -0.005668
    79  H    0.009966
    80  H    0.232882
    81  H    0.169093
 Sum of Mulliken charges =  -0.00000

 Dipole moment (field-independent basis, Debye):
    X=             -2.1791    Y=             -1.9239    Z=             -1.9107  Tot=              3.4786
 Quadrupole moment (field-independent basis, Debye-Ang):
   XX=           -247.2979   YY=           -244.4874   ZZ=           -251.4102
   XY=             24.2381   XZ=             13.8905   YZ=            -10.9746

 Normal termination of Gaussian 16 at Wed Jul  3 20:49:20 2019.
