 Gaussian 16, Revision A.03,
 Gaussian 16:  ES64L-G16RevA.03 25-Dec-2016

 --------------------------
 # td=(NStates=1) B3LYP/SVP
 --------------------------

 --
 TD
 --
 Symbolic Z-matrix:
 Charge =  0 Multiplicity = 1

                         Standard orientation:
 ---------------------------------------------------------------------
 Center     Atomic      Atomic             Coordinates (Angstroms)
 Number     Number       Type             X           Y           Z
 ---------------------------------------------------------------------
      1          8           0        4.581758   -4.694348   -1.938585
      2          8           0       -2.737140   -4.824713   -1.331530
      3          8           0       -7.167489   -1.514438   -1.783325
      4          8           0       -3.615394   -3.099221   -0.261885
      5          8           0       -7.622741   -0.685070    0.249462
      6          8           0        3.033220    2.529604    0.173910
      7          7           0        0.297122   -0.539832    0.616586
      8          7           0       -1.557976    1.769326    0.343752
      9          7           0        3.485119   -3.040570   -0.735806
     10          7           0        0.781986    2.838920    0.090953
     11          6           0       -0.658592   -2.506278    1.390488
     12          6           0       -1.021935   -1.117223    0.975297
     13          6           0        0.739869   -2.594382    1.368271
     14          6           0        1.270522   -1.443148    0.755453
     15          6           0       -3.830975    1.368062    0.310944
     16          6           0       -2.515306    0.763425    0.575587
     17          6           0       -2.214409   -0.503980    0.958395
     18          6           0       -3.649138    2.679636    0.028509
     19          6           0       -1.596162   -3.524366    1.860138
     20          6           0        5.690652   -2.550554   -1.405952
     21          6           0        3.663648   -1.798965   -0.166543
     22          6           0       -2.207748    2.927768   -0.082334
     23          6           0        5.075870   -1.485216   -0.499601
     24          6           0       -5.105762    0.610618    0.387057
     25          6           0        2.686636   -1.003184    0.487364
     26          6           0        1.471023   -3.734249    1.825118
     27          6           0        4.500760   -3.640542   -1.451043
     28          6           0       -2.034291   -4.518244    0.900132
     29          6           0       -5.463125   -0.164340   -0.775502
     30          6           0       -4.601223    3.710497   -0.276194
     31          6           0       -1.357473    4.040330   -0.391317
     32          6           0        7.007819   -3.147494   -0.853760
     33          6           0        5.778792   -0.518031    0.204819
     34          6           0        0.010925    3.943480   -0.294754
     35          6           0        0.908459    5.162270   -0.607003
     36          6           0        2.180456    4.813424   -0.298212
     37          6           0       -2.936097   -4.057258   -0.285260
     38          6           0        5.407227    0.417522    1.252604
     39          6           0       -6.854946   -0.775883   -0.644839
     40          6           0        3.575709    5.404450   -0.364850
     41          6           0        2.114195    3.271831   -0.023646
     42          6           0        0.525704    6.569611   -0.982082
     43          6           0        4.045925    5.671918    1.104914
     44          1           0        0.386400    0.284564    0.079124
     45          1           0       -3.186333   -1.133484    0.999697
     46          1           0       -2.562288   -3.005953    2.276310
     47          1           0       -1.020182   -4.147148    2.654171
     48          1           0        5.827890   -2.088697   -2.449106
     49          1           0       -5.148553   -0.117676    1.304709
     50          1           0       -5.895746    1.370705    0.410141
     51          1           0        2.897749   -0.079944    0.645087
     52          1           0       -0.551180    1.929854    0.564464
     53          1           0        1.252648   -4.673421    1.064758
     54          1           0        2.649174   -3.759222    1.728229
     55          1           0        1.010727   -3.930321    2.920555
     56          1           0        2.531796   -3.316893   -0.717799
     57          1           0       -1.309436   -5.121492    0.598171
     58          1           0       -2.659974   -5.116240    1.652293
     59          1           0       -4.652588   -0.930682   -0.814415
     60          1           0       -5.279136    0.416311   -1.688884
     61          1           0       -4.281586    4.587041    0.337060
     62          1           0       -5.779886    3.200984   -0.183847
     63          1           0       -4.431166    4.068078   -1.375501
     64          1           0       -1.809874    4.946416   -0.938723
     65          1           0        7.944761   -2.536522   -1.084414
     66          1           0        7.306412   -3.996069   -1.529145
     67          1           0        7.049592   -3.299764    0.351938
     68          1           0        6.873883   -0.571341   -0.115334
     69          1           0        4.739910    1.240785    1.056729
     70          1           0        6.346936    0.908233    1.464230
     71          1           0        5.090482   -0.062267    2.377391
     72          1           0        3.555915    6.313586   -0.937765
     73          1           0        4.234795    4.745359   -0.962701
     74          1           0       -0.080655    6.555621   -1.961883
     75          1           0        1.439308    7.134424   -1.119396
     76          1           0       -0.109425    7.028683   -0.219219
     77          1           0        3.278837    6.525524    1.397581
     78          1           0        5.219014    5.924317    1.270799
     79          1           0        3.933114    4.644813    1.693526
     80          1           0       -3.296693   -4.640793   -2.119757
     81          1           0       -7.978176   -1.815846   -1.595042
 ---------------------------------------------------------------------

 SCF Done:  E(RB3LYP) =  -1949.13291735     A.U. after   16 cycles

 Excitation energies and oscillator strengths:

 Excited State   1:      Singlet-A      2.0163 eV  614.91 nm  f=0.4498  <S**2>=0.000
     156 ->157         0.70764
     156 <-157        -0.11631
 This state for optimization and/or second-order correction.
 Total Energy, E(TD-HF/TD-DFT) =  -1949.05881940
 Copying the excited state density for this state as the 1-particle RhoCI density.

 The electronic state is 1-A.
 Alpha  occ. eigenvalues --  -19.20123 -19.16841 -19.14347 -19.14046 -19.12676
 Alpha  occ. eigenvalues --  -19.09475 -14.37670 -14.37521 -14.35141 -14.28567
 Alpha  occ. eigenvalues --  -10.33542 -10.32484 -10.30326 -10.25550 -10.24995
 Alpha  occ. eigenvalues --  -10.24084 -10.23847 -10.23307 -10.22646 -10.22569
 Alpha  occ. eigenvalues --  -10.22152 -10.21690 -10.21601 -10.21535 -10.20801
 Alpha  occ. eigenvalues --  -10.20702 -10.20664 -10.20359 -10.20260 -10.20115
 Alpha  occ. eigenvalues --  -10.20079 -10.20047 -10.20018 -10.19886 -10.19613
 Alpha  occ. eigenvalues --  -10.19550 -10.19391 -10.19236 -10.18974 -10.18745
 Alpha  occ. eigenvalues --  -10.18707 -10.18543 -10.18284  -1.12698  -1.10852
 Alpha  occ. eigenvalues --   -1.06952  -1.03948  -1.02392  -1.01651  -0.97565
 Alpha  occ. eigenvalues --   -0.96998  -0.96118  -0.89098  -0.84045  -0.83373
 Alpha  occ. eigenvalues --   -0.81613  -0.80967  -0.79479  -0.79177  -0.78525
 Alpha  occ. eigenvalues --   -0.77450  -0.76098  -0.74525  -0.73874  -0.72108
 Alpha  occ. eigenvalues --   -0.71082  -0.69373  -0.69109  -0.67742  -0.67513
 Alpha  occ. eigenvalues --   -0.66875  -0.65441  -0.64268  -0.63073  -0.62094
 Alpha  occ. eigenvalues --   -0.60416  -0.59559  -0.58905  -0.58106  -0.56513
 Alpha  occ. eigenvalues --   -0.55336  -0.54733  -0.54461  -0.52971  -0.52684
 Alpha  occ. eigenvalues --   -0.51885  -0.51838  -0.50690  -0.50549  -0.50285
 Alpha  occ. eigenvalues --   -0.49764  -0.49349  -0.48654  -0.48605  -0.48122
 Alpha  occ. eigenvalues --   -0.47570  -0.46729  -0.46710  -0.45919  -0.45558
 Alpha  occ. eigenvalues --   -0.44848  -0.44328  -0.44101  -0.43841  -0.43423
 Alpha  occ. eigenvalues --   -0.43338  -0.43272  -0.43167  -0.42930  -0.42504
 Alpha  occ. eigenvalues --   -0.42262  -0.41723  -0.41256  -0.41020  -0.40627
 Alpha  occ. eigenvalues --   -0.40505  -0.40378  -0.40154  -0.39950  -0.39766
 Alpha  occ. eigenvalues --   -0.39379  -0.38966  -0.38806  -0.38505  -0.38135
 Alpha  occ. eigenvalues --   -0.37750  -0.37318  -0.37190  -0.36855  -0.36188
 Alpha  occ. eigenvalues --   -0.35823  -0.35409  -0.35164  -0.35081  -0.34971
 Alpha  occ. eigenvalues --   -0.34690  -0.34320  -0.33629  -0.33536  -0.33035
 Alpha  occ. eigenvalues --   -0.32899  -0.32665  -0.32582  -0.30251  -0.29816
 Alpha  occ. eigenvalues --   -0.29504  -0.27361  -0.27176  -0.25870  -0.25341
 Alpha  occ. eigenvalues --   -0.25151  -0.24369  -0.23384  -0.22906  -0.21479
 Alpha  occ. eigenvalues --   -0.17623
 Alpha virt. eigenvalues --   -0.09738  -0.05237  -0.03735  -0.00629  -0.00091
 Alpha virt. eigenvalues --   -0.00015   0.01338   0.02150   0.03084   0.03258
 Alpha virt. eigenvalues --    0.04165   0.04674   0.04982   0.05584   0.05959

 Mulliken charges:
               1
     1  O   -0.135901
     2  O   -0.160171
     3  O   -0.160123
     4  O   -0.172936
     5  O   -0.185542
     6  O   -0.188803
     7  N   -0.080282
     8  N   -0.148537
     9  N   -0.097173
    10  N   -0.336364
    11  C   -0.070130
    12  C    0.117887
    13  C   -0.116631
    14  C    0.043181
    15  C   -0.056641
    16  C    0.054888
    17  C   -0.088894
    18  C   -0.094152
    19  C    0.049889
    20  C   -0.094245
    21  C    0.037235
    22  C    0.072230
    23  C   -0.071316
    24  C    0.058998
    25  C    0.054938
    26  C   -0.061657
    27  C    0.144535
    28  C    0.070723
    29  C   -0.005895
    30  C    0.013228
    31  C   -0.163081
    32  C   -0.003009
    33  C   -0.118298
    34  C    0.124204
    35  C   -0.137007
    36  C   -0.194080
    37  C    0.104105
    38  C    0.047967
    39  C    0.150163
    40  C    0.115974
    41  C    0.136798
    42  C    0.103290
    43  C   -0.089235
    44  H    0.123874
    45  H    0.034958
    46  H    0.029573
    47  H    0.007863
    48  H    0.056186
    49  H    0.039146
    50  H   -0.009859
    51  H   -0.095470
    52  H    0.150158
    53  H    0.036370
    54  H    0.052846
    55  H    0.060986
    56  H    0.113336
    57  H   -0.026471
    58  H    0.043162
    59  H    0.046162
    60  H    0.024846
    61  H    0.037101
    62  H    0.050496
    63  H    0.040072
    64  H   -0.002398
    65  H    0.017217
    66  H    0.028866
    67  H    0.053486
    68  H    0.003929
    69  H    0.072468
    70  H   -0.002725
    71  H    0.044402
    72  H   -0.020593
    73  H    0.018962
    74  H    0.024415
    75  H    0.010417
    76  H    0.026934
    77  H    0.035662
    78  H    0.034189
    79  H    0.052731
    80  H    0.196938
    81  H    0.119636
 Sum of Mulliken charges =  -0.00000

 Dipole moment (field-independent basis, Debye):
    X=             -2.0507    Y=             -1.4560    Z=             -1.3165  Tot=              2.8387
 Quadrupole moment (field-independent basis, Debye-Ang):
   XX=           -251.9893   YY=           -241.0330   ZZ=           -253.5867
   XY=             13.5073   XZ=             13.6908   YZ=            -10.8440

 Normal termination of Gaussian 16 at Thu Jun 27 05:21:09 2019.
