 Gaussian 16, Revision A.03,
 Gaussian 16:  ES64L-G16RevA.03 25-Dec-2016

 --------------------------
 # td=(NStates=1) B3LYP/SVP
 --------------------------

 --
 TD
 --
 Symbolic Z-matrix:
 Charge =  0 Multiplicity = 1

                         Standard orientation:
 ---------------------------------------------------------------------
 Center     Atomic      Atomic             Coordinates (Angstroms)
 Number     Number       Type             X           Y           Z
 ---------------------------------------------------------------------
      1          8           0       -4.361663   -4.851999    1.846738
      2          8           0        3.277802   -4.675069    1.272730
      3          8           0        6.959677   -1.464211    1.941922
      4          8           0        3.862606   -2.917327   -0.023594
      5          8           0        7.541190   -0.875554   -0.280649
      6          8           0       -3.053819    2.407105   -0.171146
      7          7           0       -0.330494   -0.486516   -0.598742
      8          7           0        1.520379    1.860023   -0.294783
      9          7           0       -3.399128   -3.200296    0.580020
     10          7           0       -0.775944    2.863115    0.002802
     11          6           0        0.729537   -2.376269   -1.398858
     12          6           0        0.868661   -1.003962   -0.981704
     13          6           0       -0.651703   -2.652888   -1.206587
     14          6           0       -1.279934   -1.466929   -0.691753
     15          6           0        3.833581    1.531805   -0.221685
     16          6           0        2.475307    0.855507   -0.454939
     17          6           0        2.215472   -0.377381   -0.858575
     18          6           0        3.567946    2.920311    0.057857
     19          6           0        1.709174   -3.314049   -1.869761
     20          6           0       -5.495459   -2.751034    1.264841
     21          6           0       -3.600729   -1.894729    0.070914
     22          6           0        2.075111    3.049688    0.084107
     23          6           0       -5.073283   -1.669255    0.301960
     24          6           0        5.068877    0.890034   -0.357353
     25          6           0       -2.700793   -1.135807   -0.368164
     26          6           0       -1.374469   -3.889921   -1.700315
     27          6           0       -4.355797   -3.840906    1.252431
     28          6           0        2.314834   -4.489552   -0.898813
     29          6           0        5.374854   -0.140646    0.730557
     30          6           0        4.440287    4.128428    0.193405
     31          6           0        1.157797    4.198053    0.237809
     32          6           0       -6.865611   -3.357994    1.183431
     33          6           0       -5.918782   -0.759637   -0.298695
     34          6           0       -0.127846    3.998344    0.198219
     35          6           0       -1.118495    5.197882    0.443327
     36          6           0       -2.349437    4.731796    0.290171
     37          6           0        3.169133   -3.935052    0.187718
     38          6           0       -5.490488    0.296955   -1.310115
     39          6           0        6.718627   -0.831333    0.669337
     40          6           0       -3.707428    5.282169    0.481790
     41          6           0       -2.175390    3.192271   -0.013950
     42          6           0       -0.696470    6.549722    0.914458
     43          6           0       -4.387688    5.479378   -0.887207
     44          1           0       -0.514653    0.344738    0.003935
     45          1           0        2.990990   -0.973030   -1.124134
     46          1           0        2.739470   -2.822104   -2.139583
     47          1           0        1.448147   -3.785559   -2.838573
     48          1           0       -5.489804   -2.331815    2.144437
     49          1           0        5.315555    0.314749   -1.475315
     50          1           0        6.015589    1.709365   -0.119803
     51          1           0       -2.911603   -0.039204   -0.345046
     52          1           0        0.548204    1.798403   -0.301683
     53          1           0       -1.386982   -4.679989   -0.859242
     54          1           0       -2.423599   -3.603811   -1.673301
     55          1           0       -0.897997   -4.273901   -2.570544
     56          1           0       -2.423983   -3.400186    0.588113
     57          1           0        1.320045   -4.992154   -0.437168
     58          1           0        2.680938   -5.122256   -1.579433
     59          1           0        4.639959   -1.011874    0.780266
     60          1           0        5.512823    0.250121    1.842842
     61          1           0        4.286942    4.821421   -0.672540
     62          1           0        5.448937    3.658062    0.221092
     63          1           0        4.206200    4.730764    1.181188
     64          1           0        1.821949    5.105218    0.349342
     65          1           0       -7.567442   -2.640813    1.427140
     66          1           0       -6.739075   -4.269978    1.865107
     67          1           0       -7.002783   -3.799459    0.123492
     68          1           0       -6.901620   -0.791104    0.074400
     69          1           0       -5.087556    1.148333   -0.714270
     70          1           0       -6.325516    0.456051   -2.048190
     71          1           0       -4.674725   -0.076607   -1.872491
     72          1           0       -3.452845    6.257847    1.069038
     73          1           0       -4.356407    4.578703    1.029300
     74          1           0       -0.301793    6.357679    1.897044
     75          1           0       -1.437761    7.311792    1.014605
     76          1           0       -0.051030    6.866150    0.081550
     77          1           0       -3.955384    6.119825   -1.600875
     78          1           0       -5.266745    5.913681   -0.680284
     79          1           0       -4.411992    4.314301   -1.256888
     80          1           0        3.845573   -4.179709    1.956575
     81          1           0        7.753552   -1.991495    1.883690
 ---------------------------------------------------------------------

 SCF Done:  E(RB3LYP) =  -1949.12234416     A.U. after   16 cycles

 Excitation energies and oscillator strengths:

 Excited State   1:      Singlet-A      2.1038 eV  589.32 nm  f=0.3882  <S**2>=0.000
     156 ->157         0.70666
 This state for optimization and/or second-order correction.
 Total Energy, E(TD-HF/TD-DFT) =  -1949.04502942
 Copying the excited state density for this state as the 1-particle RhoCI density.

 The electronic state is 1-A.
 Alpha  occ. eigenvalues --  -19.21806 -19.17722 -19.14605 -19.13703 -19.11086
 Alpha  occ. eigenvalues --  -19.11032 -14.38788 -14.36279 -14.36210 -14.28778
 Alpha  occ. eigenvalues --  -10.34794 -10.33141 -10.28466 -10.26703 -10.25162
 Alpha  occ. eigenvalues --  -10.23856 -10.23763 -10.23706 -10.23585 -10.22949
 Alpha  occ. eigenvalues --  -10.22605 -10.22557 -10.22160 -10.22124 -10.22065
 Alpha  occ. eigenvalues --  -10.21889 -10.21721 -10.20840 -10.19903 -10.19858
 Alpha  occ. eigenvalues --  -10.19720 -10.19254 -10.19065 -10.19012 -10.18959
 Alpha  occ. eigenvalues --  -10.18722 -10.18540 -10.18480 -10.17680 -10.17582
 Alpha  occ. eigenvalues --  -10.17569 -10.17463 -10.17101  -1.12250  -1.06397
 Alpha  occ. eigenvalues --   -1.05394  -1.03276  -1.01568  -0.99163  -0.99001
 Alpha  occ. eigenvalues --   -0.97836  -0.96281  -0.91172  -0.83237  -0.82454
 Alpha  occ. eigenvalues --   -0.81511  -0.81034  -0.80061  -0.79755  -0.78051
 Alpha  occ. eigenvalues --   -0.77775  -0.76639  -0.75239  -0.74561  -0.73320
 Alpha  occ. eigenvalues --   -0.72137  -0.69526  -0.69464  -0.68958  -0.68254
 Alpha  occ. eigenvalues --   -0.67959  -0.65284  -0.64304  -0.63231  -0.61874
 Alpha  occ. eigenvalues --   -0.61308  -0.59866  -0.58793  -0.57944  -0.57171
 Alpha  occ. eigenvalues --   -0.56165  -0.55660  -0.54206  -0.53583  -0.53041
 Alpha  occ. eigenvalues --   -0.52588  -0.52009  -0.51574  -0.50826  -0.49689
 Alpha  occ. eigenvalues --   -0.49490  -0.49155  -0.48925  -0.48504  -0.47212
 Alpha  occ. eigenvalues --   -0.47000  -0.46771  -0.46253  -0.45913  -0.45473
 Alpha  occ. eigenvalues --   -0.45021  -0.44782  -0.44559  -0.44397  -0.44255
 Alpha  occ. eigenvalues --   -0.43766  -0.43646  -0.43466  -0.42924  -0.42496
 Alpha  occ. eigenvalues --   -0.42403  -0.42124  -0.41769  -0.41412  -0.41049
 Alpha  occ. eigenvalues --   -0.40847  -0.40630  -0.40409  -0.40148  -0.40030
 Alpha  occ. eigenvalues --   -0.39497  -0.39336  -0.38912  -0.38526  -0.38393
 Alpha  occ. eigenvalues --   -0.37971  -0.37794  -0.37428  -0.37337  -0.37105
 Alpha  occ. eigenvalues --   -0.36560  -0.36127  -0.35868  -0.35758  -0.34794
 Alpha  occ. eigenvalues --   -0.34334  -0.34151  -0.33674  -0.33424  -0.32903
 Alpha  occ. eigenvalues --   -0.32613  -0.32156  -0.31892  -0.30274  -0.29846
 Alpha  occ. eigenvalues --   -0.28236  -0.27919  -0.26700  -0.26018  -0.25592
 Alpha  occ. eigenvalues --   -0.25346  -0.24384  -0.23924  -0.23612  -0.21744
 Alpha  occ. eigenvalues --   -0.18633
 Alpha virt. eigenvalues --   -0.10090  -0.04088  -0.03462  -0.02997  -0.01345
 Alpha virt. eigenvalues --    0.00874   0.01746   0.02174   0.02694   0.03339
 Alpha virt. eigenvalues --    0.03457   0.04594   0.05396   0.05751   0.06165

 Mulliken charges:
               1
     1  O   -0.166158
     2  O   -0.155631
     3  O   -0.253127
     4  O   -0.270634
     5  O   -0.252910
     6  O   -0.176516
     7  N   -0.047765
     8  N   -0.041951
     9  N   -0.096048
    10  N   -0.327826
    11  C   -0.043894
    12  C    0.034828
    13  C   -0.199096
    14  C   -0.010758
    15  C    0.029975
    16  C    0.129967
    17  C   -0.003727
    18  C   -0.129651
    19  C   -0.028240
    20  C   -0.065982
    21  C    0.116366
    22  C    0.012692
    23  C   -0.011487
    24  C   -0.092457
    25  C   -0.123145
    26  C    0.131599
    27  C    0.118915
    28  C    0.027437
    29  C   -0.062723
    30  C    0.065064
    31  C   -0.192617
    32  C    0.048213
    33  C   -0.129433
    34  C    0.214836
    35  C   -0.159616
    36  C   -0.166451
    37  C    0.176729
    38  C    0.078560
    39  C    0.185500
    40  C    0.055076
    41  C    0.153450
    42  C    0.139226
    43  C    0.028072
    44  H    0.164386
    45  H   -0.061494
    46  H    0.029974
    47  H    0.013663
    48  H   -0.017844
    49  H    0.082720
    50  H    0.043816
    51  H    0.030345
    52  H    0.083983
    53  H    0.019547
    54  H    0.022735
    55  H    0.016928
    56  H    0.104766
    57  H    0.049075
    58  H    0.016755
    59  H    0.077030
    60  H    0.056501
    61  H    0.050665
    62  H    0.017889
    63  H    0.049568
    64  H   -0.014135
    65  H    0.004977
    66  H    0.041563
    67  H    0.011415
    68  H   -0.036919
    69  H    0.077298
    70  H    0.019557
    71  H    0.009349
    72  H    0.001300
    73  H    0.016269
    74  H    0.028807
    75  H   -0.002686
    76  H    0.028139
    77  H   -0.004150
    78  H   -0.021232
    79  H    0.057413
    80  H    0.219455
    81  H    0.173907
 Sum of Mulliken charges =  -0.00000

 Dipole moment (field-independent basis, Debye):
    X=              3.8471    Y=              1.0457    Z=              0.9904  Tot=              4.1078
 Quadrupole moment (field-independent basis, Debye-Ang):
   XX=           -264.9410   YY=           -241.2408   ZZ=           -253.3746
   XY=            -18.4222   XZ=             16.1039   YZ=             10.9780

 Normal termination of Gaussian 16 at Sat Jun 29 21:30:51 2019.
