 Gaussian 16, Revision A.03,
 Gaussian 16:  ES64L-G16RevA.03 25-Dec-2016

 --------------------------
 # td=(NStates=1) B3LYP/SVP
 --------------------------

 --
 TD
 --
 Symbolic Z-matrix:
 Charge =  0 Multiplicity = 1

                         Standard orientation:
 ---------------------------------------------------------------------
 Center     Atomic      Atomic             Coordinates (Angstroms)
 Number     Number       Type             X           Y           Z
 ---------------------------------------------------------------------
      1          8           0       -4.472294   -4.762435    1.923234
      2          8           0        3.017723   -5.015996    1.157905
      3          8           0        6.898082   -1.591475    2.053514
      4          8           0        3.827392   -3.226822    0.047281
      5          8           0        7.723934   -0.494896    0.159065
      6          8           0       -3.063567    2.627464   -0.260792
      7          7           0       -0.279484   -0.623236   -0.513366
      8          7           0        1.623216    1.815657   -0.348947
      9          7           0       -3.456481   -3.171111    0.658073
     10          7           0       -0.718643    3.006297   -0.153488
     11          6           0        0.630700   -2.523724   -1.362952
     12          6           0        0.919583   -1.119698   -1.000282
     13          6           0       -0.688243   -2.754152   -1.228132
     14          6           0       -1.263050   -1.531540   -0.741777
     15          6           0        3.753837    1.420230   -0.436526
     16          6           0        2.449366    0.825480   -0.645655
     17          6           0        2.157132   -0.436324   -1.080947
     18          6           0        3.574361    2.742773   -0.094122
     19          6           0        1.644591   -3.441306   -1.994566
     20          6           0       -5.620889   -2.608924    1.442273
     21          6           0       -3.689479   -1.888595    0.151971
     22          6           0        2.134039    3.005879   -0.135285
     23          6           0       -5.014197   -1.485631    0.429469
     24          6           0        5.108112    0.665393   -0.457034
     25          6           0       -2.713751   -1.199080   -0.444217
     26          6           0       -1.480524   -3.968108   -1.824308
     27          6           0       -4.490823   -3.635864    1.446369
     28          6           0        2.129219   -4.551725   -1.048671
     29          6           0        5.395359   -0.013487    1.001405
     30          6           0        4.619625    3.753678    0.368289
     31          6           0        1.331470    4.175024    0.107942
     32          6           0       -7.026127   -3.213056    1.175187
     33          6           0       -5.862209   -0.604960   -0.207698
     34          6           0       -0.054144    4.151129    0.110676
     35          6           0       -0.988235    5.300036    0.373083
     36          6           0       -2.233848    4.798661    0.393791
     37          6           0        3.010491   -4.140682    0.096379
     38          6           0       -5.383460    0.376379   -1.248539
     39          6           0        6.758072   -0.703147    0.918219
     40          6           0       -3.561642    5.471196    0.577141
     41          6           0       -2.099695    3.296291   -0.000092
     42          6           0       -0.460855    6.582676    0.820826
     43          6           0       -4.305527    5.762176   -0.731391
     44          1           0       -0.596914    0.311970   -0.216342
     45          1           0        3.000980   -0.918839   -1.349744
     46          1           0        2.509538   -2.759123   -2.249957
     47          1           0        1.427696   -3.861418   -3.019086
     48          1           0       -5.561194   -2.159969    2.384031
     49          1           0        5.038743    0.064075   -1.260892
     50          1           0        5.969978    1.339044   -0.714067
     51          1           0       -2.976243   -0.285665   -0.635156
     52          1           0        0.491420    2.013704   -0.502654
     53          1           0       -1.696893   -4.773969   -0.970763
     54          1           0       -2.508200   -3.772971   -2.185074
     55          1           0       -1.086673   -4.315245   -2.855253
     56          1           0       -2.693762   -3.923652    0.612937
     57          1           0        1.339940   -5.320113   -0.797441
     58          1           0        2.888932   -5.357680   -1.484816
     59          1           0        4.698336   -0.851652    1.214792
     60          1           0        5.530493    0.873501    1.671522
     61          1           0        4.825720    4.617079   -0.322640
     62          1           0        5.598995    3.160671    0.602250
     63          1           0        4.290804    4.153130    1.353305
     64          1           0        1.939521    5.133721    0.045514
     65          1           0       -7.828618   -2.506124    1.548930
     66          1           0       -7.156227   -4.214171    1.630662
     67          1           0       -7.216885   -3.437364    0.204190
     68          1           0       -6.872388   -0.750675    0.015883
     69          1           0       -5.062411    1.286710   -0.882813
     70          1           0       -6.249873    0.784018   -1.811316
     71          1           0       -4.655654   -0.255945   -1.989395
     72          1           0       -3.422671    6.380068    1.122052
     73          1           0       -4.403614    4.810475    1.243067
     74          1           0        0.079973    6.324144    1.698441
     75          1           0       -1.322228    7.385717    0.878779
     76          1           0        0.359559    7.079156    0.107084
     77          1           0       -3.844129    6.311923   -1.398189
     78          1           0       -5.110617    6.404025   -0.419013
     79          1           0       -4.601264    5.014529   -1.561517
     80          1           0        3.489104   -4.609763    1.802711
     81          1           0        7.680763   -1.895271    1.967448
 ---------------------------------------------------------------------

 SCF Done:  E(RB3LYP) =  -1949.12306729     A.U. after   16 cycles

 Excitation energies and oscillator strengths:

 Excited State   1:      Singlet-A      2.0708 eV  598.71 nm  f=0.4764  <S**2>=0.000
     156 ->157         0.70790
     156 <-157        -0.11646
 This state for optimization and/or second-order correction.
 Total Energy, E(TD-HF/TD-DFT) =  -1949.04696531
 Copying the excited state density for this state as the 1-particle RhoCI density.

 The electronic state is 1-A.
 Alpha  occ. eigenvalues --  -19.18355 -19.16154 -19.13983 -19.13912 -19.10686
 Alpha  occ. eigenvalues --  -19.10533 -14.39501 -14.37072 -14.34884 -14.29620
 Alpha  occ. eigenvalues --  -10.33681 -10.33001 -10.28681 -10.26834 -10.24741
 Alpha  occ. eigenvalues --  -10.24625 -10.24263 -10.23401 -10.23217 -10.22733
 Alpha  occ. eigenvalues --  -10.22559 -10.22305 -10.22251 -10.22068 -10.21040
 Alpha  occ. eigenvalues --  -10.20960 -10.20814 -10.20719 -10.20532 -10.20495
 Alpha  occ. eigenvalues --  -10.20305 -10.20295 -10.20269 -10.20215 -10.19863
 Alpha  occ. eigenvalues --  -10.19535 -10.19343 -10.18945 -10.18942 -10.18744
 Alpha  occ. eigenvalues --  -10.18555 -10.18301 -10.16740  -1.10791  -1.08199
 Alpha  occ. eigenvalues --   -1.03199  -1.02178  -1.01379  -1.00189  -0.99857
 Alpha  occ. eigenvalues --   -0.99138  -0.94826  -0.91607  -0.83038  -0.82028
 Alpha  occ. eigenvalues --   -0.81468  -0.80572  -0.79826  -0.78925  -0.78268
 Alpha  occ. eigenvalues --   -0.76692  -0.76518  -0.75583  -0.74936  -0.72727
 Alpha  occ. eigenvalues --   -0.70774  -0.70084  -0.69376  -0.68907  -0.68214
 Alpha  occ. eigenvalues --   -0.67272  -0.66059  -0.65003  -0.62972  -0.62239
 Alpha  occ. eigenvalues --   -0.61510  -0.59724  -0.58920  -0.58472  -0.58088
 Alpha  occ. eigenvalues --   -0.56309  -0.55471  -0.55064  -0.54414  -0.53130
 Alpha  occ. eigenvalues --   -0.52074  -0.51849  -0.51368  -0.49691  -0.49268
 Alpha  occ. eigenvalues --   -0.48874  -0.48555  -0.48274  -0.48032  -0.47464
 Alpha  occ. eigenvalues --   -0.46809  -0.46518  -0.46100  -0.45821  -0.45029
 Alpha  occ. eigenvalues --   -0.44782  -0.44716  -0.44605  -0.43876  -0.43841
 Alpha  occ. eigenvalues --   -0.43652  -0.43361  -0.42865  -0.42304  -0.42175
 Alpha  occ. eigenvalues --   -0.41989  -0.41748  -0.41672  -0.41298  -0.41241
 Alpha  occ. eigenvalues --   -0.41085  -0.40732  -0.40568  -0.40088  -0.39701
 Alpha  occ. eigenvalues --   -0.39283  -0.38956  -0.38702  -0.38428  -0.38342
 Alpha  occ. eigenvalues --   -0.38182  -0.38118  -0.37791  -0.37671  -0.37115
 Alpha  occ. eigenvalues --   -0.36618  -0.36552  -0.35864  -0.35836  -0.35172
 Alpha  occ. eigenvalues --   -0.34975  -0.34234  -0.34133  -0.33643  -0.33200
 Alpha  occ. eigenvalues --   -0.32942  -0.32132  -0.31758  -0.30381  -0.29329
 Alpha  occ. eigenvalues --   -0.28587  -0.28284  -0.27296  -0.26578  -0.25739
 Alpha  occ. eigenvalues --   -0.25338  -0.24754  -0.23974  -0.23503  -0.22062
 Alpha  occ. eigenvalues --   -0.18153
 Alpha virt. eigenvalues --   -0.10115  -0.05384  -0.03975  -0.02017  -0.01732
 Alpha virt. eigenvalues --    0.00537   0.01912   0.02468   0.03711   0.04084
 Alpha virt. eigenvalues --    0.04629   0.04988   0.05748   0.06176   0.06393

 Mulliken charges:
               1
     1  O   -0.232507
     2  O   -0.150265
     3  O   -0.171500
     4  O   -0.243760
     5  O   -0.244172
     6  O   -0.186205
     7  N   -0.052650
     8  N   -0.070622
     9  N   -0.155325
    10  N   -0.352146
    11  C   -0.091283
    12  C    0.093821
    13  C   -0.108969
    14  C    0.038144
    15  C   -0.117321
    16  C    0.032135
    17  C    0.024013
    18  C   -0.118689
    19  C    0.108177
    20  C   -0.008294
    21  C    0.135401
    22  C   -0.005582
    23  C   -0.040915
    24  C    0.109822
    25  C   -0.028683
    26  C    0.006650
    27  C    0.072704
    28  C   -0.021314
    29  C    0.032371
    30  C    0.056345
    31  C   -0.120498
    32  C    0.076072
    33  C   -0.089931
    34  C    0.103900
    35  C   -0.067404
    36  C   -0.181555
    37  C    0.129917
    38  C    0.072680
    39  C    0.163751
    40  C    0.053169
    41  C    0.169644
    42  C    0.059135
    43  C    0.056456
    44  H    0.155370
    45  H   -0.074146
    46  H    0.013641
    47  H    0.022905
    48  H    0.022013
    49  H   -0.019621
    50  H    0.023932
    51  H   -0.088158
    52  H    0.195003
    53  H    0.040855
    54  H    0.023919
    55  H    0.040317
    56  H    0.156500
    57  H    0.035286
    58  H    0.060739
    59  H    0.065082
    60  H    0.061476
    61  H    0.040103
    62  H    0.020621
    63  H    0.024756
    64  H   -0.005490
    65  H    0.028009
    66  H    0.034425
    67  H   -0.013763
    68  H   -0.025028
    69  H    0.044831
    70  H   -0.005519
    71  H    0.057110
    72  H   -0.011451
    73  H    0.031749
    74  H    0.028595
    75  H    0.038717
    76  H    0.026924
    77  H   -0.049368
    78  H   -0.004420
    79  H    0.026528
    80  H    0.141984
    81  H    0.100857
 Sum of Mulliken charges =  -0.00000

 Dipole moment (field-independent basis, Debye):
    X=              0.0271    Y=              0.5145    Z=             -1.1292  Tot=              1.2412
 Quadrupole moment (field-independent basis, Debye-Ang):
   XX=           -260.6921   YY=           -241.7656   ZZ=           -252.1974
   XY=             -9.6432   XZ=             12.3143   YZ=             16.3415

 Normal termination of Gaussian 16 at Wed Jun 26 21:32:40 2019.
