 Gaussian 16, Revision A.03,
 Gaussian 16:  ES64L-G16RevA.03 25-Dec-2016

 --------------------------
 # td=(NStates=1) B3LYP/SVP
 --------------------------

 --
 TD
 --
 Symbolic Z-matrix:
 Charge =  0 Multiplicity = 1

                         Standard orientation:
 ---------------------------------------------------------------------
 Center     Atomic      Atomic             Coordinates (Angstroms)
 Number     Number       Type             X           Y           Z
 ---------------------------------------------------------------------
      1          8           0       -4.465980   -4.613606    1.932658
      2          8           0        2.770092   -4.681081    1.471083
      3          8           0        7.182177   -1.351016    1.855655
      4          8           0        3.695592   -3.177333    0.180769
      5          8           0        7.629601   -0.579408   -0.327787
      6          8           0       -2.983379    2.483799   -0.216991
      7          7           0       -0.360942   -0.612127   -0.548178
      8          7           0        1.560166    1.728770   -0.348751
      9          7           0       -3.486082   -3.024180    0.524856
     10          7           0       -0.732020    2.972178   -0.084361
     11          6           0        0.510215   -2.514203   -1.293066
     12          6           0        0.843228   -1.192854   -0.879694
     13          6           0       -0.910707   -2.688577   -1.261938
     14          6           0       -1.434826   -1.415942   -0.694663
     15          6           0        3.820516    1.290383   -0.422288
     16          6           0        2.448376    0.667987   -0.610396
     17          6           0        2.051555   -0.631270   -0.863539
     18          6           0        3.580380    2.602632   -0.043433
     19          6           0        1.559392   -3.611404   -1.882484
     20          6           0       -5.631454   -2.440934    1.354034
     21          6           0       -3.723900   -1.744508    0.068160
     22          6           0        2.264430    2.914871   -0.090064
     23          6           0       -5.100699   -1.298847    0.413132
     24          6           0        5.052322    0.417850   -0.498376
     25          6           0       -2.753124   -1.049072   -0.467645
     26          6           0       -1.663939   -3.860867   -1.738825
     27          6           0       -4.481039   -3.499014    1.385841
     28          6           0        2.045713   -4.664882   -0.851839
     29          6           0        5.379202   -0.322062    0.703609
     30          6           0        4.727523    3.555751    0.428605
     31          6           0        1.406746    4.094624    0.161858
     32          6           0       -7.011625   -3.048687    0.976830
     33          6           0       -5.863521   -0.314694   -0.174534
     34          6           0       -0.016777    4.058651    0.237480
     35          6           0       -0.864234    5.205621    0.435624
     36          6           0       -2.122029    4.681987    0.406806
     37          6           0        2.843121   -4.000135    0.299133
     38          6           0       -5.385511    0.616941   -1.278594
     39          6           0        6.859133   -0.835203    0.613690
     40          6           0       -3.404917    5.419784    0.536996
     41          6           0       -1.991271    3.267766    0.040565
     42          6           0       -0.233517    6.521288    0.741782
     43          6           0       -4.053432    5.724810   -0.880494
     44          1           0       -0.659582    0.198362   -0.093738
     45          1           0        2.914851   -1.368517   -1.082139
     46          1           0        2.404411   -2.858394   -2.202009
     47          1           0        1.222485   -4.029237   -2.780017
     48          1           0       -6.000997   -2.021140    2.382102
     49          1           0        5.050807   -0.329479   -1.258876
     50          1           0        6.009755    1.043867   -0.895945
     51          1           0       -2.880890   -0.029486   -0.339787
     52          1           0        0.559292    1.994886   -0.484385
     53          1           0       -1.560539   -4.825461   -0.984711
     54          1           0       -2.690851   -3.582487   -2.213748
     55          1           0       -0.942508   -4.188835   -2.575883
     56          1           0       -2.577031   -3.352533    0.419259
     57          1           0        1.186666   -5.084192   -0.338414
     58          1           0        2.573700   -5.557349   -1.308685
     59          1           0        4.755206   -1.312577    0.679056
     60          1           0        5.363286    0.331676    1.613783
     61          1           0        4.760037    4.558822    0.061941
     62          1           0        5.706620    3.168465    0.323644
     63          1           0        4.655549    3.689728    1.527663
     64          1           0        1.953699    5.023286    0.334629
     65          1           0       -7.983851   -2.513746    1.023406
     66          1           0       -7.254154   -4.022819    1.619050
     67          1           0       -7.007721   -3.553123   -0.036921
     68          1           0       -6.938187   -0.557934    0.065555
     69          1           0       -4.692054    1.483849   -0.864185
     70          1           0       -6.299291    1.009675   -1.695815
     71          1           0       -4.892886    0.039124   -2.076739
     72          1           0       -3.332405    6.443596    1.197451
     73          1           0       -4.088019    4.694177    1.237513
     74          1           0        0.544325    6.469000    1.602181
     75          1           0       -1.069447    7.220029    1.203716
     76          1           0        0.200860    7.180033    0.083251
     77          1           0       -3.174555    6.334834   -1.410879
     78          1           0       -5.002362    6.088094   -0.774818
     79          1           0       -4.138773    4.663727   -1.330223
     80          1           0        3.273741   -4.140125    2.232696
     81          1           0        8.086146   -1.857869    1.939303
 ---------------------------------------------------------------------

 SCF Done:  E(RB3LYP) =  -1949.13237475     A.U. after   23 cycles

 Excitation energies and oscillator strengths:

 Excited State   1:      Singlet-A      1.8852 eV  657.68 nm  f=0.3995  <S**2>=0.000
     156 ->157         0.71037
     156 <-157        -0.12767
 This state for optimization and/or second-order correction.
 Total Energy, E(TD-HF/TD-DFT) =  -1949.06309535
 Copying the excited state density for this state as the 1-particle RhoCI density.

 The electronic state is 1-A.
 Alpha  occ. eigenvalues --  -19.19855 -19.18978 -19.15059 -19.13493 -19.11957
 Alpha  occ. eigenvalues --  -19.08142 -14.38398 -14.37638 -14.34687 -14.27506
 Alpha  occ. eigenvalues --  -10.34225 -10.32856 -10.30876 -10.24673 -10.24616
 Alpha  occ. eigenvalues --  -10.24591 -10.23889 -10.23638 -10.23497 -10.23371
 Alpha  occ. eigenvalues --  -10.23008 -10.22758 -10.22694 -10.21807 -10.21667
 Alpha  occ. eigenvalues --  -10.21594 -10.21332 -10.21105 -10.20973 -10.20962
 Alpha  occ. eigenvalues --  -10.20669 -10.20436 -10.19968 -10.19796 -10.19730
 Alpha  occ. eigenvalues --  -10.19370 -10.19304 -10.18997 -10.18592 -10.18200
 Alpha  occ. eigenvalues --  -10.18029 -10.17890 -10.17736  -1.11479  -1.06977
 Alpha  occ. eigenvalues --   -1.02997  -1.01865  -1.00162  -0.99624  -0.98255
 Alpha  occ. eigenvalues --   -0.96446  -0.96012  -0.91574  -0.83432  -0.81955
 Alpha  occ. eigenvalues --   -0.81698  -0.81371  -0.79672  -0.78856  -0.78616
 Alpha  occ. eigenvalues --   -0.77592  -0.76395  -0.74875  -0.73918  -0.71998
 Alpha  occ. eigenvalues --   -0.70472  -0.69863  -0.68871  -0.68596  -0.68036
 Alpha  occ. eigenvalues --   -0.67362  -0.65892  -0.64935  -0.62723  -0.61182
 Alpha  occ. eigenvalues --   -0.60819  -0.59754  -0.59191  -0.58748  -0.57494
 Alpha  occ. eigenvalues --   -0.56437  -0.55626  -0.55001  -0.53824  -0.53009
 Alpha  occ. eigenvalues --   -0.52526  -0.52211  -0.51449  -0.50552  -0.49659
 Alpha  occ. eigenvalues --   -0.49426  -0.49313  -0.48506  -0.47886  -0.47439
 Alpha  occ. eigenvalues --   -0.47153  -0.46272  -0.46114  -0.45713  -0.45091
 Alpha  occ. eigenvalues --   -0.44692  -0.44522  -0.44196  -0.43878  -0.43309
 Alpha  occ. eigenvalues --   -0.43099  -0.42873  -0.42573  -0.42174  -0.42021
 Alpha  occ. eigenvalues --   -0.41745  -0.41427  -0.41219  -0.41086  -0.40929
 Alpha  occ. eigenvalues --   -0.40522  -0.40279  -0.39764  -0.39712  -0.39433
 Alpha  occ. eigenvalues --   -0.39328  -0.38948  -0.38732  -0.38385  -0.38160
 Alpha  occ. eigenvalues --   -0.37974  -0.37539  -0.37137  -0.37031  -0.36544
 Alpha  occ. eigenvalues --   -0.36214  -0.35689  -0.35517  -0.34834  -0.34385
 Alpha  occ. eigenvalues --   -0.34199  -0.33955  -0.33066  -0.32664  -0.32573
 Alpha  occ. eigenvalues --   -0.32112  -0.31951  -0.31206  -0.30225  -0.30027
 Alpha  occ. eigenvalues --   -0.28271  -0.26912  -0.26663  -0.26402  -0.26118
 Alpha  occ. eigenvalues --   -0.25419  -0.24999  -0.23310  -0.22769  -0.21689
 Alpha  occ. eigenvalues --   -0.18099
 Alpha virt. eigenvalues --   -0.10799  -0.06132  -0.04449  -0.02910  -0.01883
 Alpha virt. eigenvalues --   -0.01035   0.01173   0.01646   0.02285   0.02631
 Alpha virt. eigenvalues --    0.03558   0.04921   0.05222   0.05680   0.05818

 Mulliken charges:
               1
     1  O   -0.224503
     2  O   -0.234795
     3  O   -0.256339
     4  O   -0.199667
     5  O   -0.241496
     6  O   -0.308816
     7  N   -0.001629
     8  N   -0.143893
     9  N   -0.070080
    10  N   -0.211426
    11  C   -0.127617
    12  C    0.143479
    13  C   -0.162393
    14  C   -0.001818
    15  C   -0.016421
    16  C    0.057614
    17  C   -0.091578
    18  C   -0.134145
    19  C    0.066719
    20  C   -0.100553
    21  C    0.039040
    22  C    0.058064
    23  C    0.004677
    24  C    0.039987
    25  C   -0.046855
    26  C   -0.004897
    27  C    0.198151
    28  C    0.047494
    29  C   -0.040085
    30  C    0.124668
    31  C   -0.079707
    32  C   -0.048243
    33  C   -0.118474
    34  C    0.065828
    35  C   -0.049135
    36  C   -0.142219
    37  C    0.129974
    38  C    0.022936
    39  C    0.175155
    40  C   -0.054443
    41  C    0.117311
    42  C    0.063214
    43  C    0.014741
    44  H    0.123771
    45  H    0.038328
    46  H    0.034384
    47  H    0.003842
    48  H    0.066616
    49  H   -0.004061
    50  H    0.042958
    51  H   -0.029117
    52  H    0.135940
    53  H    0.062675
    54  H    0.067007
    55  H    0.022162
    56  H    0.109114
    57  H    0.021826
    58  H    0.069512
    59  H    0.078499
    60  H    0.044121
    61  H    0.009901
    62  H   -0.006604
    63  H    0.010765
    64  H   -0.031449
    65  H    0.037156
    66  H    0.038757
    67  H    0.012445
    68  H    0.009505
    69  H    0.129595
    70  H    0.001672
    71  H    0.030340
    72  H    0.016288
    73  H    0.025919
    74  H    0.027967
    75  H    0.008078
    76  H    0.005821
    77  H    0.035369
    78  H    0.001653
    79  H    0.041239
    80  H    0.232184
    81  H    0.217999
 Sum of Mulliken charges =  -0.00000

 Dipole moment (field-independent basis, Debye):
    X=              2.7210    Y=             -2.5032    Z=              0.6606  Tot=              3.7558
 Quadrupole moment (field-independent basis, Debye-Ang):
   XX=           -246.1156   YY=           -245.3552   ZZ=           -254.1351
   XY=            -12.7169   XZ=             20.9044   YZ=             13.6695

 Normal termination of Gaussian 16 at Thu Jul  4 01:59:41 2019.
