 Gaussian 16, Revision A.03,
 Gaussian 16:  ES64L-G16RevA.03 25-Dec-2016

 --------------------------
 # td=(NStates=1) B3LYP/SVP
 --------------------------

 --
 TD
 --
 Symbolic Z-matrix:
 Charge =  0 Multiplicity = 1

                         Standard orientation:
 ---------------------------------------------------------------------
 Center     Atomic      Atomic             Coordinates (Angstroms)
 Number     Number       Type             X           Y           Z
 ---------------------------------------------------------------------
      1          8           0        4.473870   -4.830177   -1.827666
      2          8           0       -3.039338   -4.810753   -1.308269
      3          8           0       -7.111915   -1.620096   -1.716128
      4          8           0       -3.875465   -3.161861    0.022053
      5          8           0       -7.773879   -0.323152    0.043476
      6          8           0        2.891467    2.438546    0.354579
      7          7           0        0.238398   -0.598799    0.575412
      8          7           0       -1.552015    1.733677    0.341719
      9          7           0        3.470378   -3.118696   -0.548139
     10          7           0        0.743651    2.880408   -0.026404
     11          6           0       -0.551273   -2.436779    1.390019
     12          6           0       -0.861336   -1.129718    0.975706
     13          6           0        0.845062   -2.651419    1.439214
     14          6           0        1.323331   -1.419558    0.838491
     15          6           0       -3.808302    1.350575    0.277517
     16          6           0       -2.473945    0.717983    0.444033
     17          6           0       -2.128436   -0.516514    0.773770
     18          6           0       -3.586196    2.677901   -0.036402
     19          6           0       -1.623239   -3.448832    1.935935
     20          6           0        5.536840   -2.553088   -1.390814
     21          6           0        3.730343   -1.908594   -0.006869
     22          6           0       -2.135716    2.868581   -0.131996
     23          6           0        5.129023   -1.566814   -0.409609
     24          6           0       -5.057954    0.609740    0.461774
     25          6           0        2.671609   -1.086121    0.539319
     26          6           0        1.609088   -3.803349    1.882253
     27          6           0        4.446708   -3.666623   -1.349181
     28          6           0       -1.991184   -4.509923    0.844415
     29          6           0       -5.466505   -0.200880   -0.729068
     30          6           0       -4.627729    3.702716   -0.373266
     31          6           0       -1.387422    4.050732   -0.542830
     32          6           0        7.035663   -2.950274   -1.461871
     33          6           0        5.939645   -0.520547    0.010480
     34          6           0        0.034108    4.037660   -0.397991
     35          6           0        0.970558    5.164653   -0.426528
     36          6           0        2.203350    4.770840   -0.326991
     37          6           0       -3.125044   -4.018108   -0.138548
     38          6           0        5.721644    0.435714    1.216121
     39          6           0       -6.874775   -0.710814   -0.663654
     40          6           0        3.561100    5.441807   -0.333639
     41          6           0        2.046035    3.185518    0.049854
     42          6           0        0.531473    6.560704   -0.789284
     43          6           0        4.083625    5.647708    1.074028
     44          1           0        0.412814    0.331654    0.029998
     45          1           0       -2.891123   -1.363681    0.779890
     46          1           0       -2.616529   -2.860690    2.029222
     47          1           0       -1.278703   -3.796976    2.917006
     48          1           0        5.347368   -1.964012   -2.359576
     49          1           0       -4.740077   -0.034572    1.284978
     50          1           0       -5.835300    1.234092    0.659378
     51          1           0        2.920091    0.018198    0.727947
     52          1           0       -0.311765    1.790460    0.266556
     53          1           0        1.672698   -4.616776    1.186211
     54          1           0        2.645497   -3.761454    2.121916
     55          1           0        1.289911   -4.202641    2.868037
     56          1           0        2.726992   -3.757810   -0.181281
     57          1           0       -1.114648   -4.807337    0.232793
     58          1           0       -2.499412   -5.333884    1.196392
     59          1           0       -4.620355   -0.877551   -0.712352
     60          1           0       -5.539424    0.603783   -1.643615
     61          1           0       -4.286206    4.717779    0.222076
     62          1           0       -5.632137    3.510759    0.144685
     63          1           0       -4.850235    3.812438   -1.549969
     64          1           0       -1.951082    4.997724   -0.829331
     65          1           0        7.693217   -2.031230   -1.756220
     66          1           0        7.171785   -3.866322   -2.184689
     67          1           0        7.434910   -3.485536   -0.265047
     68          1           0        6.890647   -0.361897   -0.741278
     69          1           0        5.094341    1.262068    0.725574
     70          1           0        6.410337    1.045321    1.796742
     71          1           0        4.909785    0.009620    1.975758
     72          1           0        3.376670    6.436645   -0.862369
     73          1           0        4.341070    4.771736   -0.923598
     74          1           0       -0.024233    6.512877   -1.723503
     75          1           0        1.326999    7.225439   -0.818163
     76          1           0       -0.202815    7.035037    0.029609
     77          1           0        3.818854    6.282741    1.737210
     78          1           0        5.136436    6.227496    0.879424
     79          1           0        4.440280    4.682208    1.528020
     80          1           0       -3.650302   -4.428149   -1.904666
     81          1           0       -8.158059   -1.523010   -1.692559
 ---------------------------------------------------------------------

 SCF Done:  E(RB3LYP) =  -1949.07964913     A.U. after   16 cycles

 Excitation energies and oscillator strengths:

 Excited State   1:      Singlet-A      1.9114 eV  648.65 nm  f=0.3827  <S**2>=0.000
     156 ->157         0.70759
 This state for optimization and/or second-order correction.
 Total Energy, E(TD-HF/TD-DFT) =  -1949.00940552
 Copying the excited state density for this state as the 1-particle RhoCI density.

 The electronic state is 1-A.
 Alpha  occ. eigenvalues --  -19.18158 -19.18073 -19.16312 -19.14219 -19.11446
 Alpha  occ. eigenvalues --  -19.10330 -14.38351 -14.37867 -14.34988 -14.30125
 Alpha  occ. eigenvalues --  -10.33766 -10.32784 -10.30022 -10.26366 -10.25215
 Alpha  occ. eigenvalues --  -10.24650 -10.23964 -10.23260 -10.22746 -10.22481
 Alpha  occ. eigenvalues --  -10.22404 -10.22295 -10.22175 -10.21672 -10.21452
 Alpha  occ. eigenvalues --  -10.21383 -10.21353 -10.21125 -10.20874 -10.20597
 Alpha  occ. eigenvalues --  -10.20577 -10.20301 -10.20297 -10.20095 -10.19922
 Alpha  occ. eigenvalues --  -10.19784 -10.19766 -10.19718 -10.19374 -10.19066
 Alpha  occ. eigenvalues --  -10.18801 -10.18698 -10.18094  -1.12434  -1.08634
 Alpha  occ. eigenvalues --   -1.04314  -1.03703  -1.02208  -1.00379  -0.99880
 Alpha  occ. eigenvalues --   -0.96926  -0.96012  -0.91855  -0.83247  -0.82141
 Alpha  occ. eigenvalues --   -0.81698  -0.81317  -0.80343  -0.78792  -0.77461
 Alpha  occ. eigenvalues --   -0.77034  -0.76094  -0.75060  -0.73544  -0.72998
 Alpha  occ. eigenvalues --   -0.71297  -0.69767  -0.68827  -0.67882  -0.67417
 Alpha  occ. eigenvalues --   -0.66654  -0.65639  -0.64476  -0.63378  -0.61752
 Alpha  occ. eigenvalues --   -0.59847  -0.58856  -0.58028  -0.57116  -0.57047
 Alpha  occ. eigenvalues --   -0.55701  -0.55232  -0.54243  -0.53763  -0.52949
 Alpha  occ. eigenvalues --   -0.52328  -0.51712  -0.51390  -0.50809  -0.50477
 Alpha  occ. eigenvalues --   -0.49871  -0.49347  -0.48769  -0.48501  -0.48302
 Alpha  occ. eigenvalues --   -0.47450  -0.46467  -0.45922  -0.45343  -0.45175
 Alpha  occ. eigenvalues --   -0.45038  -0.44638  -0.44259  -0.44187  -0.43777
 Alpha  occ. eigenvalues --   -0.43640  -0.43489  -0.43137  -0.42843  -0.42771
 Alpha  occ. eigenvalues --   -0.42263  -0.42007  -0.41879  -0.41336  -0.40903
 Alpha  occ. eigenvalues --   -0.40740  -0.40475  -0.40136  -0.40033  -0.39958
 Alpha  occ. eigenvalues --   -0.39692  -0.39312  -0.39069  -0.38625  -0.38343
 Alpha  occ. eigenvalues --   -0.38171  -0.37762  -0.37593  -0.37466  -0.36542
 Alpha  occ. eigenvalues --   -0.36465  -0.36293  -0.35769  -0.35066  -0.34759
 Alpha  occ. eigenvalues --   -0.34467  -0.34307  -0.33843  -0.33640  -0.33133
 Alpha  occ. eigenvalues --   -0.32576  -0.32564  -0.32095  -0.30598  -0.29899
 Alpha  occ. eigenvalues --   -0.29330  -0.28587  -0.26318  -0.26007  -0.25479
 Alpha  occ. eigenvalues --   -0.25231  -0.24466  -0.23944  -0.23824  -0.21568
 Alpha  occ. eigenvalues --   -0.17801
 Alpha virt. eigenvalues --   -0.10056  -0.05732  -0.04016  -0.01556  -0.01302
 Alpha virt. eigenvalues --   -0.00385   0.03013   0.03121   0.03399   0.04115
 Alpha virt. eigenvalues --    0.04337   0.04593   0.04923   0.05080   0.05631

 Mulliken charges:
               1
     1  O   -0.248018
     2  O   -0.212510
     3  O   -0.262936
     4  O   -0.143901
     5  O   -0.216966
     6  O   -0.153893
     7  N   -0.027815
     8  N   -0.214606
     9  N   -0.097769
    10  N   -0.321911
    11  C   -0.143044
    12  C    0.018269
    13  C   -0.095655
    14  C    0.036634
    15  C   -0.093586
    16  C    0.133622
    17  C   -0.133095
    18  C   -0.124617
    19  C    0.057852
    20  C   -0.069173
    21  C    0.059211
    22  C    0.079012
    23  C   -0.045173
    24  C    0.200381
    25  C   -0.132940
    26  C    0.080772
    27  C    0.158571
    28  C    0.061412
    29  C   -0.029476
    30  C   -0.014289
    31  C   -0.118522
    32  C   -0.053318
    33  C   -0.122823
    34  C    0.120742
    35  C   -0.105007
    36  C   -0.191708
    37  C    0.103734
    38  C   -0.016854
    39  C    0.180704
    40  C    0.061618
    41  C    0.108868
    42  C    0.107228
    43  C    0.034071
    44  H    0.165731
    45  H    0.031418
    46  H    0.022012
    47  H    0.020038
    48  H    0.061445
    49  H    0.018354
    50  H   -0.041595
    51  H    0.044426
    52  H    0.235181
    53  H    0.020176
    54  H    0.001047
    55  H    0.017980
    56  H    0.137638
    57  H    0.046138
    58  H    0.015985
    59  H    0.040997
    60  H    0.063710
    61  H    0.042203
    62  H    0.032370
    63  H    0.062739
    64  H    0.002942
    65  H    0.047129
    66  H    0.060385
    67  H    0.034924
    68  H    0.023798
    69  H    0.066113
    70  H    0.027103
    71  H    0.042551
    72  H    0.010313
    73  H    0.038215
    74  H    0.026039
    75  H   -0.011745
    76  H    0.023384
    77  H   -0.035469
    78  H   -0.007565
    79  H    0.039592
    80  H    0.158920
    81  H    0.202282
 Sum of Mulliken charges =  -0.00000

 Dipole moment (field-independent basis, Debye):
    X=             -1.8806    Y=              2.0999    Z=             -0.2357  Tot=              2.8287
 Quadrupole moment (field-independent basis, Debye-Ang):
   XX=           -256.3303   YY=           -246.8604   ZZ=           -254.3995
   XY=             15.8217   XZ=             14.6607   YZ=            -16.3742

 Normal termination of Gaussian 16 at Wed Jul  3 18:44:07 2019.
