 Gaussian 16, Revision A.03,
 Gaussian 16:  ES64L-G16RevA.03 25-Dec-2016

 --------------------------
 # td=(NStates=1) B3LYP/SVP
 --------------------------

 --
 TD
 --
 Symbolic Z-matrix:
 Charge =  0 Multiplicity = 1

                         Standard orientation:
 ---------------------------------------------------------------------
 Center     Atomic      Atomic             Coordinates (Angstroms)
 Number     Number       Type             X           Y           Z
 ---------------------------------------------------------------------
      1          8           0       -4.490540   -4.737844    1.985305
      2          8           0        2.999404   -4.825034    1.254843
      3          8           0        7.179549   -1.462687    1.911954
      4          8           0        3.821807   -3.204276   -0.020876
      5          8           0        7.543722   -0.654687   -0.132346
      6          8           0       -2.980564    2.547321   -0.280602
      7          7           0       -0.307070   -0.624546   -0.629468
      8          7           0        1.495153    1.841087   -0.370187
      9          7           0       -3.405879   -3.081627    0.815999
     10          7           0       -0.730790    2.930064   -0.162490
     11          6           0        0.632985   -2.454330   -1.463225
     12          6           0        0.888009   -1.087100   -0.965301
     13          6           0       -0.841137   -2.674450   -1.301599
     14          6           0       -1.334639   -1.518431   -0.751934
     15          6           0        3.711388    1.335808   -0.266295
     16          6           0        2.470968    0.855199   -0.512084
     17          6           0        2.135282   -0.466469   -0.886961
     18          6           0        3.524414    2.755762   -0.081946
     19          6           0        1.668468   -3.413384   -1.890915
     20          6           0       -5.575723   -2.602596    1.333903
     21          6           0       -3.549694   -1.783899    0.121595
     22          6           0        2.193456    3.011682   -0.059832
     23          6           0       -5.025436   -1.497610    0.360012
     24          6           0        5.062126    0.713124   -0.362586
     25          6           0       -2.622814   -1.040353   -0.490515
     26          6           0       -1.677756   -3.944572   -1.667868
     27          6           0       -4.510889   -3.612459    1.393240
     28          6           0        2.149579   -4.466417   -0.951783
     29          6           0        5.416364   -0.145499    0.888002
     30          6           0        4.533438    3.919809    0.154248
     31          6           0        1.388286    4.119300    0.096448
     32          6           0       -6.944659   -3.265541    1.002976
     33          6           0       -5.711609   -0.545704   -0.102367
     34          6           0        0.003762    4.032400    0.166540
     35          6           0       -0.925188    5.149653    0.508004
     36          6           0       -2.159233    4.694696    0.280522
     37          6           0        2.980871   -4.059736    0.170880
     38          6           0       -5.489285    0.367285   -1.250328
     39          6           0        6.746462   -0.744633    0.847567
     40          6           0       -3.636653    5.420450    0.524413
     41          6           0       -2.027801    3.308531    0.000732
     42          6           0       -0.553395    6.537686    1.015960
     43          6           0       -4.364863    5.469694   -0.762531
     44          1           0       -0.305809    0.221700   -0.108103
     45          1           0        3.049565   -1.077163   -0.752830
     46          1           0        2.627616   -2.667281   -2.293165
     47          1           0        1.355192   -3.906787   -2.730454
     48          1           0       -5.637292   -2.189121    2.271989
     49          1           0        5.180915   -0.026402   -1.180736
     50          1           0        5.887758    1.410953   -0.679359
     51          1           0       -2.927111   -0.062888   -0.986848
     52          1           0        0.281379    1.733271   -0.535301
     53          1           0       -1.834397   -4.747815   -0.905049
     54          1           0       -2.601638   -3.663399   -2.161394
     55          1           0       -1.313003   -4.408464   -2.505301
     56          1           0       -2.500306   -3.561447    0.949839
     57          1           0        1.437814   -5.125077   -0.683066
     58          1           0        3.046278   -5.033163   -1.576412
     59          1           0        4.695947   -0.993671    1.167055
     60          1           0        5.406044    0.548821    1.621237
     61          1           0        4.394277    4.608549   -0.372376
     62          1           0        5.646496    3.387475    0.028503
     63          1           0        4.566249    4.127985    1.260759
     64          1           0        1.799427    5.041835    0.535510
     65          1           0       -7.777427   -2.386494    1.157602
     66          1           0       -7.119436   -4.208701    1.502893
     67          1           0       -6.842677   -3.512816   -0.093741
     68          1           0       -6.772137   -0.489577    0.298370
     69          1           0       -5.053363    1.387854   -0.897061
     70          1           0       -6.458036    0.898552   -1.661894
     71          1           0       -4.682124   -0.108464   -2.058565
     72          1           0       -3.627636    6.422665    1.088823
     73          1           0       -4.243278    4.589974    1.190868
     74          1           0        0.360500    6.479037    1.890023
     75          1           0       -1.340610    7.080596    1.412628
     76          1           0       -0.000216    7.151665    0.174531
     77          1           0       -3.695554    6.241930   -1.582543
     78          1           0       -5.302189    6.099468   -0.943149
     79          1           0       -4.525419    4.442460   -1.390486
     80          1           0        3.535720   -4.576760    2.008906
     81          1           0        8.011067   -2.093865    1.633289
 ---------------------------------------------------------------------

 SCF Done:  E(RB3LYP) =  -1949.00766767     A.U. after   23 cycles

 Excitation energies and oscillator strengths:

 Excited State   1:      Singlet-A      1.9226 eV  644.88 nm  f=0.3963  <S**2>=0.000
     156 ->157         0.70873
     156 <-157        -0.13760
 This state for optimization and/or second-order correction.
 Total Energy, E(TD-HF/TD-DFT) =  -1948.93701419
 Copying the excited state density for this state as the 1-particle RhoCI density.

 The electronic state is 1-A.
 Alpha  occ. eigenvalues --  -19.19821 -19.18364 -19.12964 -19.11394 -19.09989
 Alpha  occ. eigenvalues --  -19.08886 -14.38203 -14.37497 -14.34130 -14.29251
 Alpha  occ. eigenvalues --  -10.33375 -10.31901 -10.28679 -10.25360 -10.25224
 Alpha  occ. eigenvalues --  -10.23841 -10.23814 -10.22684 -10.22563 -10.22547
 Alpha  occ. eigenvalues --  -10.22124 -10.21901 -10.21700 -10.21595 -10.21564
 Alpha  occ. eigenvalues --  -10.21258 -10.21192 -10.20726 -10.20686 -10.20487
 Alpha  occ. eigenvalues --  -10.20450 -10.20123 -10.20059 -10.20055 -10.20033
 Alpha  occ. eigenvalues --  -10.20012 -10.19928 -10.19712 -10.19668 -10.19631
 Alpha  occ. eigenvalues --  -10.19285 -10.18665 -10.18456  -1.11567  -1.07291
 Alpha  occ. eigenvalues --   -1.01842  -1.00963  -1.00640  -0.99741  -0.96708
 Alpha  occ. eigenvalues --   -0.96553  -0.93005  -0.91843  -0.83114  -0.82803
 Alpha  occ. eigenvalues --   -0.82204  -0.81994  -0.80030  -0.78993  -0.78536
 Alpha  occ. eigenvalues --   -0.77654  -0.77181  -0.75465  -0.74109  -0.73051
 Alpha  occ. eigenvalues --   -0.72433  -0.70685  -0.70120  -0.69058  -0.68012
 Alpha  occ. eigenvalues --   -0.67677  -0.65808  -0.65163  -0.64004  -0.62267
 Alpha  occ. eigenvalues --   -0.59773  -0.58870  -0.58599  -0.58156  -0.57894
 Alpha  occ. eigenvalues --   -0.56687  -0.55789  -0.55521  -0.53603  -0.53172
 Alpha  occ. eigenvalues --   -0.52665  -0.52198  -0.51274  -0.50624  -0.49788
 Alpha  occ. eigenvalues --   -0.49395  -0.49011  -0.48375  -0.48088  -0.47458
 Alpha  occ. eigenvalues --   -0.47185  -0.46735  -0.46514  -0.46322  -0.45638
 Alpha  occ. eigenvalues --   -0.44900  -0.44758  -0.44192  -0.43857  -0.43451
 Alpha  occ. eigenvalues --   -0.43218  -0.43040  -0.42879  -0.42403  -0.42017
 Alpha  occ. eigenvalues --   -0.41709  -0.41563  -0.41236  -0.40998  -0.40589
 Alpha  occ. eigenvalues --   -0.40429  -0.40373  -0.40111  -0.39851  -0.39742
 Alpha  occ. eigenvalues --   -0.38971  -0.38660  -0.38604  -0.38089  -0.37736
 Alpha  occ. eigenvalues --   -0.37420  -0.37169  -0.37064  -0.36901  -0.36544
 Alpha  occ. eigenvalues --   -0.36231  -0.35930  -0.35572  -0.35084  -0.34508
 Alpha  occ. eigenvalues --   -0.34154  -0.33287  -0.33206  -0.33022  -0.32458
 Alpha  occ. eigenvalues --   -0.32285  -0.30665  -0.29695  -0.28951  -0.28826
 Alpha  occ. eigenvalues --   -0.27787  -0.26831  -0.26634  -0.26124  -0.25340
 Alpha  occ. eigenvalues --   -0.25267  -0.24800  -0.23954  -0.23554  -0.22627
 Alpha  occ. eigenvalues --   -0.18778
 Alpha virt. eigenvalues --   -0.11489  -0.05958  -0.03653  -0.02447  -0.00883
 Alpha virt. eigenvalues --    0.00005   0.01762   0.02593   0.03098   0.03746
 Alpha virt. eigenvalues --    0.04159   0.04593   0.04626   0.05011   0.05270

 Mulliken charges:
               1
     1  O   -0.282516
     2  O   -0.158210
     3  O   -0.251860
     4  O   -0.250110
     5  O   -0.292080
     6  O   -0.253290
     7  N    0.010355
     8  N   -0.257539
     9  N   -0.149217
    10  N   -0.278990
    11  C   -0.125636
    12  C    0.052340
    13  C   -0.148419
    14  C    0.075969
    15  C   -0.041723
    16  C    0.047133
    17  C   -0.075823
    18  C   -0.180470
    19  C    0.088098
    20  C    0.020180
    21  C    0.176347
    22  C    0.171879
    23  C    0.009073
    24  C    0.041981
    25  C   -0.155217
    26  C    0.133711
    27  C    0.108224
    28  C    0.072583
    29  C    0.065753
    30  C    0.198742
    31  C   -0.140061
    32  C    0.003299
    33  C   -0.163094
    34  C    0.080072
    35  C   -0.087943
    36  C   -0.121063
    37  C    0.103107
    38  C   -0.033164
    39  C    0.144627
    40  C    0.060896
    41  C    0.127976
    42  C    0.047027
    43  C   -0.119635
    44  H    0.114024
    45  H    0.038150
    46  H    0.046615
    47  H   -0.022023
    48  H    0.021218
    49  H    0.018771
    50  H    0.034727
    51  H    0.064715
    52  H    0.234794
    53  H    0.042388
    54  H    0.011442
    55  H   -0.030873
    56  H    0.134948
    57  H   -0.016987
    58  H    0.077300
    59  H    0.065808
    60  H   -0.001943
    61  H   -0.064214
    62  H    0.021041
    63  H    0.032817
    64  H   -0.028758
    65  H    0.039335
    66  H    0.046350
    67  H    0.017601
    68  H   -0.004451
    69  H    0.076086
    70  H    0.024945
    71  H    0.058413
    72  H    0.026533
    73  H    0.041847
    74  H    0.034504
    75  H    0.004539
    76  H    0.044110
    77  H   -0.005873
    78  H    0.024225
    79  H    0.070514
    80  H    0.191437
    81  H    0.242613
 Sum of Mulliken charges =  -0.00000

 Dipole moment (field-independent basis, Debye):
    X=              2.2881    Y=             -0.4693    Z=              0.9812  Tot=              2.5334
 Quadrupole moment (field-independent basis, Debye-Ang):
   XX=           -261.5291   YY=           -240.1292   ZZ=           -254.4305
   XY=            -20.9077   XZ=             19.2881   YZ=             15.2236

 Normal termination of Gaussian 16 at Wed Jun 26 22:40:18 2019.
