 Gaussian 16, Revision A.03,
 Gaussian 16:  ES64L-G16RevA.03 25-Dec-2016

 --------------------------
 # td=(NStates=1) B3LYP/SVP
 --------------------------

 --
 TD
 --
 Symbolic Z-matrix:
 Charge =  0 Multiplicity = 1

                         Standard orientation:
 ---------------------------------------------------------------------
 Center     Atomic      Atomic             Coordinates (Angstroms)
 Number     Number       Type             X           Y           Z
 ---------------------------------------------------------------------
      1          8           0       -4.398984   -4.746228    1.944232
      2          8           0        3.100275   -4.828592    1.293686
      3          8           0        7.036854   -1.178621    1.999606
      4          8           0        3.783852   -3.082419    0.092443
      5          8           0        7.607423   -0.519440   -0.129449
      6          8           0       -3.026232    2.302174   -0.196524
      7          7           0       -0.172976   -0.613126   -0.531885
      8          7           0        1.456500    1.895251   -0.342384
      9          7           0       -3.376423   -3.018889    0.763464
     10          7           0       -0.778134    2.907976   -0.120034
     11          6           0        0.735019   -2.551283   -1.213008
     12          6           0        1.002991   -1.172319   -0.951099
     13          6           0       -0.543169   -2.712382   -1.305202
     14          6           0       -1.207874   -1.526238   -0.772507
     15          6           0        3.746121    1.564265   -0.477353
     16          6           0        2.359240    0.862305   -0.560380
     17          6           0        2.217700   -0.407481   -1.015765
     18          6           0        3.596198    2.842508   -0.042569
     19          6           0        1.697022   -3.519101   -1.874924
     20          6           0       -5.658733   -2.581517    1.422359
     21          6           0       -3.579642   -1.821914    0.126852
     22          6           0        2.068479    3.004729   -0.062159
     23          6           0       -5.044354   -1.608697    0.351262
     24          6           0        5.003015    0.703345   -0.558019
     25          6           0       -2.625235   -1.132879   -0.540719
     26          6           0       -1.327960   -3.969945   -1.622320
     27          6           0       -4.393579   -3.695278    1.364297
     28          6           0        2.219652   -4.589156   -0.932616
     29          6           0        5.425245   -0.017445    0.845788
     30          6           0        4.606370    3.833095    0.166890
     31          6           0        1.285233    4.171703    0.254953
     32          6           0       -7.010946   -3.156467    1.073956
     33          6           0       -5.863375   -0.772594   -0.365375
     34          6           0       -0.166750    4.073565    0.189866
     35          6           0       -1.121131    5.096111    0.528977
     36          6           0       -2.335330    4.658878    0.392294
     37          6           0        3.061813   -4.071225    0.207532
     38          6           0       -5.481736    0.218609   -1.490326
     39          6           0        6.823089   -0.565870    0.830442
     40          6           0       -3.667426    5.279851    0.514384
     41          6           0       -2.132288    3.141078    0.009899
     42          6           0       -0.777334    6.514249    0.847510
     43          6           0       -4.347002    5.713970   -0.729931
     44          1           0       -0.290648    0.227481   -0.280560
     45          1           0        2.979313   -1.021516   -1.011221
     46          1           0        2.569921   -3.170609   -2.251020
     47          1           0        0.938721   -3.907925   -2.608867
     48          1           0       -5.645968   -2.187674    2.336342
     49          1           0        4.967959   -0.149590   -1.313695
     50          1           0        5.795191    1.504201   -0.880238
     51          1           0       -2.895721   -0.194313   -0.761087
     52          1           0        0.269009    2.018243   -0.348607
     53          1           0       -1.270864   -4.882871   -0.926343
     54          1           0       -2.474178   -3.906139   -1.945776
     55          1           0       -0.893238   -4.402170   -2.565489
     56          1           0       -2.460540   -3.515739    0.795356
     57          1           0        1.594424   -5.401822   -0.387239
     58          1           0        2.829237   -5.339718   -1.472534
     59          1           0        4.665062   -0.838874    1.005773
     60          1           0        5.429383    0.718949    1.724459
     61          1           0        4.404044    4.618218   -0.426220
     62          1           0        5.762911    3.426167    0.296890
     63          1           0        4.622538    4.293748    1.225195
     64          1           0        1.768238    5.129570    0.392262
     65          1           0       -7.604891   -2.251872    1.106635
     66          1           0       -7.406223   -3.898356    1.630389
     67          1           0       -6.909904   -3.719310    0.006257
     68          1           0       -6.921318   -0.592491   -0.086328
     69          1           0       -4.976653    1.004712   -0.813429
     70          1           0       -6.416288    0.711581   -1.755513
     71          1           0       -4.716210    0.076979   -2.211586
     72          1           0       -3.527772    6.129828    1.192507
     73          1           0       -4.500252    4.633033    1.083461
     74          1           0       -0.003125    6.291217    1.664126
     75          1           0       -1.672590    7.110398    1.096293
     76          1           0       -0.141546    7.013805   -0.183174
     77          1           0       -3.892469    6.566693   -1.264005
     78          1           0       -5.356502    6.241803   -0.530461
     79          1           0       -4.256375    5.017331   -1.607197
     80          1           0        3.622374   -4.513660    1.881948
     81          1           0        7.906732   -1.451624    2.098680
 ---------------------------------------------------------------------

 SCF Done:  E(RB3LYP) =  -1949.06524240     A.U. after   16 cycles

 Excitation energies and oscillator strengths:

 Excited State   1:      Singlet-A      1.9809 eV  625.91 nm  f=0.3600  <S**2>=0.000
     156 ->157         0.70709
     156 <-157        -0.10264
 This state for optimization and/or second-order correction.
 Total Energy, E(TD-HF/TD-DFT) =  -1948.99244655
 Copying the excited state density for this state as the 1-particle RhoCI density.

 The electronic state is 1-A.
 Alpha  occ. eigenvalues --  -19.19425 -19.18521 -19.13571 -19.12328 -19.11200
 Alpha  occ. eigenvalues --  -19.10568 -14.37143 -14.37030 -14.34816 -14.30819
 Alpha  occ. eigenvalues --  -10.33601 -10.32141 -10.28819 -10.27395 -10.24496
 Alpha  occ. eigenvalues --  -10.24329 -10.23740 -10.23709 -10.22873 -10.22290
 Alpha  occ. eigenvalues --  -10.22040 -10.21697 -10.21205 -10.21056 -10.20915
 Alpha  occ. eigenvalues --  -10.20493 -10.20469 -10.20310 -10.20203 -10.20167
 Alpha  occ. eigenvalues --  -10.19994 -10.19746 -10.19515 -10.19486 -10.19482
 Alpha  occ. eigenvalues --  -10.19277 -10.19194 -10.18875 -10.18729 -10.18671
 Alpha  occ. eigenvalues --  -10.18063 -10.18061 -10.17814  -1.13720  -1.10277
 Alpha  occ. eigenvalues --   -1.03737  -1.01968  -1.00745  -0.99788  -0.99172
 Alpha  occ. eigenvalues --   -0.97703  -0.95768  -0.93179  -0.84250  -0.82002
 Alpha  occ. eigenvalues --   -0.80978  -0.80819  -0.80190  -0.79274  -0.78034
 Alpha  occ. eigenvalues --   -0.76573  -0.76466  -0.75327  -0.74073  -0.72393
 Alpha  occ. eigenvalues --   -0.71457  -0.71215  -0.69464  -0.68994  -0.67449
 Alpha  occ. eigenvalues --   -0.67244  -0.65567  -0.64363  -0.63394  -0.62944
 Alpha  occ. eigenvalues --   -0.62000  -0.60557  -0.59963  -0.59389  -0.58107
 Alpha  occ. eigenvalues --   -0.56031  -0.55497  -0.54642  -0.53016  -0.52754
 Alpha  occ. eigenvalues --   -0.52047  -0.51787  -0.51083  -0.50131  -0.49635
 Alpha  occ. eigenvalues --   -0.48856  -0.48603  -0.48145  -0.47878  -0.47570
 Alpha  occ. eigenvalues --   -0.47185  -0.46844  -0.46494  -0.46051  -0.45476
 Alpha  occ. eigenvalues --   -0.45400  -0.44855  -0.44774  -0.44158  -0.43821
 Alpha  occ. eigenvalues --   -0.43477  -0.43212  -0.42924  -0.42748  -0.42439
 Alpha  occ. eigenvalues --   -0.41958  -0.41708  -0.41184  -0.41068  -0.40931
 Alpha  occ. eigenvalues --   -0.40664  -0.40517  -0.40135  -0.39905  -0.39699
 Alpha  occ. eigenvalues --   -0.39333  -0.39177  -0.38770  -0.38608  -0.37980
 Alpha  occ. eigenvalues --   -0.37410  -0.37161  -0.36969  -0.36829  -0.36744
 Alpha  occ. eigenvalues --   -0.36460  -0.36081  -0.35527  -0.34942  -0.34724
 Alpha  occ. eigenvalues --   -0.34479  -0.34115  -0.33611  -0.33216  -0.33115
 Alpha  occ. eigenvalues --   -0.32833  -0.32225  -0.31216  -0.29673  -0.29090
 Alpha  occ. eigenvalues --   -0.28612  -0.27623  -0.26896  -0.25781  -0.25488
 Alpha  occ. eigenvalues --   -0.24840  -0.24587  -0.24277  -0.23539  -0.21835
 Alpha  occ. eigenvalues --   -0.17690
 Alpha virt. eigenvalues --   -0.09763  -0.05382  -0.03097  -0.01689   0.00058
 Alpha virt. eigenvalues --    0.01019   0.02168   0.02798   0.03081   0.03985
 Alpha virt. eigenvalues --    0.04731   0.05631   0.05862   0.06237   0.06761

 Mulliken charges:
               1
     1  O   -0.197657
     2  O   -0.063314
     3  O   -0.141475
     4  O   -0.250672
     5  O   -0.249706
     6  O   -0.224097
     7  N    0.048813
     8  N   -0.141910
     9  N   -0.098795
    10  N   -0.273909
    11  C   -0.099019
    12  C   -0.030615
    13  C   -0.104281
    14  C    0.046611
    15  C   -0.091602
    16  C    0.077520
    17  C    0.093561
    18  C   -0.084986
    19  C    0.193449
    20  C   -0.040623
    21  C    0.127193
    22  C    0.042386
    23  C   -0.035724
    24  C    0.022727
    25  C   -0.034576
    26  C   -0.014242
    27  C    0.101307
    28  C   -0.026026
    29  C   -0.036504
    30  C    0.077368
    31  C   -0.102265
    32  C    0.084852
    33  C   -0.162942
    34  C    0.075752
    35  C   -0.084881
    36  C   -0.157656
    37  C    0.103711
    38  C    0.051247
    39  C    0.148121
    40  C    0.058883
    41  C    0.161874
    42  C    0.017359
    43  C   -0.005157
    44  H    0.009697
    45  H   -0.072574
    46  H   -0.012022
    47  H    0.020951
    48  H   -0.001788
    49  H    0.043712
    50  H    0.031593
    51  H   -0.064045
    52  H    0.223741
    53  H    0.042593
    54  H    0.051136
    55  H    0.005029
    56  H    0.136168
    57  H    0.025387
    58  H    0.040938
    59  H    0.070150
    60  H    0.040595
    61  H    0.003350
    62  H    0.045090
    63  H    0.013498
    64  H   -0.029499
    65  H    0.017114
    66  H   -0.002563
    67  H    0.021589
    68  H    0.003411
    69  H    0.073422
    70  H    0.001621
    71  H    0.029910
    72  H   -0.010974
    73  H    0.033560
    74  H    0.046283
    75  H    0.032598
    76  H    0.052326
    77  H   -0.016757
    78  H    0.022093
    79  H    0.028916
    80  H    0.112705
    81  H    0.150949
 Sum of Mulliken charges =  -0.00000

 Dipole moment (field-independent basis, Debye):
    X=              2.4151    Y=              1.3191    Z=              1.2188  Tot=              3.0097
 Quadrupole moment (field-independent basis, Debye-Ang):
   XX=           -254.6325   YY=           -233.7446   ZZ=           -252.9990
   XY=            -19.7123   XZ=             21.5225   YZ=             11.3556

 Normal termination of Gaussian 16 at Sat Jun 29 11:54:21 2019.
