 Gaussian 16, Revision A.03,
 Gaussian 16:  ES64L-G16RevA.03 25-Dec-2016

 --------------------------
 # td=(NStates=1) B3LYP/SVP
 --------------------------

 --
 TD
 --
 Symbolic Z-matrix:
 Charge =  0 Multiplicity = 1

                         Standard orientation:
 ---------------------------------------------------------------------
 Center     Atomic      Atomic             Coordinates (Angstroms)
 Number     Number       Type             X           Y           Z
 ---------------------------------------------------------------------
      1          8           0        4.674932   -4.742481   -1.677364
      2          8           0       -2.906699   -5.160474   -1.323682
      3          8           0       -6.980664   -1.558987   -1.818985
      4          8           0       -3.550142   -3.094712   -0.271919
      5          8           0       -7.476993   -1.007017    0.395662
      6          8           0        2.798435    2.463186    0.210392
      7          7           0        0.281719   -0.499386    0.613523
      8          7           0       -1.588861    1.808098    0.280242
      9          7           0        3.501706   -3.124497   -0.550727
     10          7           0        0.620298    2.921504    0.087368
     11          6           0       -0.676777   -2.476452    1.341952
     12          6           0       -0.895288   -1.190082    0.924795
     13          6           0        0.718670   -2.675538    1.236108
     14          6           0        1.299008   -1.430502    0.660776
     15          6           0       -3.862722    1.396469    0.343571
     16          6           0       -2.509783    0.798812    0.527286
     17          6           0       -2.072475   -0.483777    0.902235
     18          6           0       -3.716328    2.751994    0.004555
     19          6           0       -1.591349   -3.451677    1.833009
     20          6           0        5.690687   -2.453603   -1.277835
     21          6           0        3.682991   -1.766988   -0.176817
     22          6           0       -2.188072    2.965816   -0.042412
     23          6           0        5.132196   -1.420688   -0.402776
     24          6           0       -5.104125    0.648705    0.440309
     25          6           0        2.604169   -1.033440    0.363309
     26          6           0        1.612444   -3.795849    1.745336
     27          6           0        4.668232   -3.678643   -1.211496
     28          6           0       -1.967264   -4.525343    0.756549
     29          6           0       -5.390251   -0.163140   -0.756487
     30          6           0       -4.675076    3.809772   -0.280713
     31          6           0       -1.456029    4.182713   -0.225662
     32          6           0        7.119745   -2.931322   -0.931726
     33          6           0        5.920500   -0.447012    0.150274
     34          6           0       -0.038523    4.081118   -0.283954
     35          6           0        0.832688    5.297440   -0.577871
     36          6           0        2.091248    4.776390   -0.376138
     37          6           0       -2.937177   -4.182760   -0.358584
     38          6           0        5.419687    0.598541    1.162513
     39          6           0       -6.761634   -0.979856   -0.633129
     40          6           0        3.412292    5.432681   -0.386817
     41          6           0        1.905564    3.338003   -0.040911
     42          6           0        0.363218    6.675521   -0.899903
     43          6           0        4.064128    5.588730    0.984878
     44          1           0        0.351923    0.362971   -0.021030
     45          1           0       -2.939104   -1.170327    1.131145
     46          1           0       -2.409365   -2.918751    2.330764
     47          1           0       -1.270493   -4.162586    2.654091
     48          1           0        5.781680   -2.327749   -2.317075
     49          1           0       -4.995435   -0.107071    1.116722
     50          1           0       -5.987367    1.385023    0.802858
     51          1           0        2.920223   -0.024485    0.640273
     52          1           0       -0.501657    1.829886    0.480057
     53          1           0        1.796076   -4.610148    0.950193
     54          1           0        2.406398   -3.326519    2.230863
     55          1           0        1.068305   -4.355788    2.514966
     56          1           0        2.564745   -3.761855   -0.441786
     57          1           0       -0.958260   -4.885980    0.249852
     58          1           0       -2.380886   -5.545587    1.213780
     59          1           0       -4.468527   -1.026125   -0.915288
     60          1           0       -5.292863    0.451452   -1.622291
     61          1           0       -4.532155    4.643793    0.353597
     62          1           0       -5.742258    3.373250   -0.138807
     63          1           0       -4.600631    4.091965   -1.377135
     64          1           0       -1.821252    5.224095   -0.432697
     65          1           0        7.851989   -1.937386   -1.092642
     66          1           0        7.588066   -3.719933   -1.610847
     67          1           0        7.153810   -3.202100    0.054842
     68          1           0        6.987227   -0.337150   -0.090035
     69          1           0        4.630556    1.136882    0.504888
     70          1           0        6.084991    1.154005    1.648292
     71          1           0        4.769898    0.047647    1.716512
     72          1           0        3.482053    6.418850   -1.045004
     73          1           0        4.214062    4.684571   -1.045301
     74          1           0       -0.038053    6.819164   -1.998110
     75          1           0        1.274259    7.289286   -0.966027
     76          1           0       -0.392550    7.165228   -0.278359
     77          1           0        3.319340    5.926869    1.663332
     78          1           0        5.111826    5.945771    1.054906
     79          1           0        4.271285    4.433072    1.487122
     80          1           0       -3.804356   -5.028271   -1.830779
     81          1           0       -7.836052   -2.408322   -1.786871
 ---------------------------------------------------------------------

 SCF Done:  E(RB3LYP) =  -1949.08640282     A.U. after   19 cycles

 Excitation energies and oscillator strengths:

 Excited State   1:      Singlet-A      1.8877 eV  656.79 nm  f=0.3805  <S**2>=0.000
     156 ->157         0.70861
     156 <-157        -0.11387
 This state for optimization and/or second-order correction.
 Total Energy, E(TD-HF/TD-DFT) =  -1949.01703034
 Copying the excited state density for this state as the 1-particle RhoCI density.

 The electronic state is 1-A.
 Alpha  occ. eigenvalues --  -19.21770 -19.20106 -19.15254 -19.12644 -19.12122
 Alpha  occ. eigenvalues --  -19.07882 -14.37470 -14.36429 -14.35223 -14.28732
 Alpha  occ. eigenvalues --  -10.34635 -10.32571 -10.29190 -10.25202 -10.24994
 Alpha  occ. eigenvalues --  -10.23837 -10.23473 -10.23447 -10.22895 -10.22308
 Alpha  occ. eigenvalues --  -10.22204 -10.21321 -10.20740 -10.20723 -10.20578
 Alpha  occ. eigenvalues --  -10.20456 -10.20438 -10.20382 -10.20260 -10.20253
 Alpha  occ. eigenvalues --  -10.20173 -10.20148 -10.20039 -10.19959 -10.19774
 Alpha  occ. eigenvalues --  -10.19748 -10.19550 -10.19337 -10.18621 -10.18615
 Alpha  occ. eigenvalues --  -10.18484 -10.18164 -10.16196  -1.09684  -1.06933
 Alpha  occ. eigenvalues --   -1.06278  -1.01830  -0.98396  -0.98214  -0.97634
 Alpha  occ. eigenvalues --   -0.96295  -0.92713  -0.89937  -0.83312  -0.82043
 Alpha  occ. eigenvalues --   -0.81328  -0.80328  -0.79705  -0.77798  -0.77079
 Alpha  occ. eigenvalues --   -0.76391  -0.75803  -0.74661  -0.73530  -0.72317
 Alpha  occ. eigenvalues --   -0.70577  -0.69297  -0.69032  -0.68838  -0.66965
 Alpha  occ. eigenvalues --   -0.65469  -0.64309  -0.63816  -0.61638  -0.60491
 Alpha  occ. eigenvalues --   -0.59695  -0.57946  -0.57185  -0.56714  -0.56508
 Alpha  occ. eigenvalues --   -0.55391  -0.54808  -0.53932  -0.53168  -0.52905
 Alpha  occ. eigenvalues --   -0.51774  -0.51405  -0.50608  -0.50271  -0.49408
 Alpha  occ. eigenvalues --   -0.48823  -0.48534  -0.48029  -0.47388  -0.47047
 Alpha  occ. eigenvalues --   -0.46878  -0.46417  -0.45723  -0.45518  -0.45230
 Alpha  occ. eigenvalues --   -0.44919  -0.44460  -0.44209  -0.43934  -0.43812
 Alpha  occ. eigenvalues --   -0.43162  -0.42782  -0.42524  -0.42169  -0.42058
 Alpha  occ. eigenvalues --   -0.41759  -0.41473  -0.41185  -0.40899  -0.40807
 Alpha  occ. eigenvalues --   -0.40502  -0.40284  -0.39487  -0.39148  -0.39059
 Alpha  occ. eigenvalues --   -0.38857  -0.38584  -0.38083  -0.37881  -0.37675
 Alpha  occ. eigenvalues --   -0.37630  -0.37422  -0.36964  -0.36766  -0.36468
 Alpha  occ. eigenvalues --   -0.36289  -0.35845  -0.35418  -0.34915  -0.34406
 Alpha  occ. eigenvalues --   -0.34349  -0.34190  -0.33293  -0.33130  -0.32603
 Alpha  occ. eigenvalues --   -0.31703  -0.31393  -0.29727  -0.29543  -0.28870
 Alpha  occ. eigenvalues --   -0.27721  -0.27696  -0.26809  -0.25922  -0.24933
 Alpha  occ. eigenvalues --   -0.24412  -0.24040  -0.23142  -0.22718  -0.20952
 Alpha  occ. eigenvalues --   -0.17018
 Alpha virt. eigenvalues --   -0.09511  -0.05553  -0.03796  -0.03213  -0.02869
 Alpha virt. eigenvalues --    0.00113   0.00715   0.01058   0.01956   0.02428
 Alpha virt. eigenvalues --    0.03624   0.04197   0.04879   0.05182   0.05961

 Mulliken charges:
               1
     1  O   -0.140299
     2  O   -0.217832
     3  O   -0.269485
     4  O   -0.244495
     5  O   -0.262142
     6  O   -0.267211
     7  N   -0.117730
     8  N   -0.126740
     9  N   -0.253419
    10  N   -0.279131
    11  C   -0.015825
    12  C    0.085987
    13  C   -0.217586
    14  C    0.131958
    15  C   -0.073441
    16  C    0.060728
    17  C   -0.085312
    18  C   -0.154275
    19  C    0.111422
    20  C   -0.063881
    21  C    0.092421
    22  C    0.100282
    23  C    0.047337
    24  C    0.165655
    25  C   -0.156452
    26  C    0.131887
    27  C    0.125747
    28  C   -0.086953
    29  C   -0.118021
    30  C    0.101751
    31  C   -0.129936
    32  C    0.005290
    33  C   -0.171312
    34  C    0.033391
    35  C   -0.065101
    36  C   -0.130815
    37  C    0.192859
    38  C    0.126881
    39  C    0.215819
    40  C   -0.033554
    41  C    0.151896
    42  C    0.065415
    43  C   -0.027663
    44  H    0.179663
    45  H    0.001733
    46  H    0.014248
    47  H    0.009205
    48  H    0.023014
    49  H   -0.032979
    50  H    0.040619
    51  H    0.007644
    52  H    0.188036
    53  H    0.026349
    54  H    0.031212
    55  H   -0.009618
    56  H    0.179533
    57  H    0.053996
    58  H    0.056393
    59  H    0.093960
    60  H    0.013871
    61  H    0.023725
    62  H    0.017750
    63  H    0.035048
    64  H   -0.018214
    65  H    0.029550
    66  H    0.040157
    67  H   -0.003146
    68  H   -0.002470
    69  H    0.098831
    70  H   -0.015560
    71  H   -0.009096
    72  H    0.023454
    73  H    0.031838
    74  H    0.033850
    75  H    0.009045
    76  H    0.038067
    77  H    0.010605
    78  H    0.027690
    79  H    0.035603
    80  H    0.219468
    81  H    0.258811
 Sum of Mulliken charges =  -0.00000

 Dipole moment (field-independent basis, Debye):
    X=             -2.7938    Y=             -1.7491    Z=             -1.2141  Tot=              3.5126
 Quadrupole moment (field-independent basis, Debye-Ang):
   XX=           -247.4979   YY=           -224.9145   ZZ=           -254.4656
   XY=             22.9860   XZ=             20.0526   YZ=             -8.4099

 Normal termination of Gaussian 16 at Fri Jul  5 09:01:53 2019.
