 Gaussian 16, Revision A.03,
 Gaussian 16:  ES64L-G16RevA.03 25-Dec-2016

 --------------------------
 # td=(NStates=1) B3LYP/SVP
 --------------------------

 --
 TD
 --
 Symbolic Z-matrix:
 Charge =  0 Multiplicity = 1

                         Standard orientation:
 ---------------------------------------------------------------------
 Center     Atomic      Atomic             Coordinates (Angstroms)
 Number     Number       Type             X           Y           Z
 ---------------------------------------------------------------------
      1          8           0       -4.540050   -4.636114    2.088332
      2          8           0        2.884410   -4.766514    1.422238
      3          8           0        7.208753   -1.344803    1.787247
      4          8           0        3.787439   -3.069184    0.100625
      5          8           0        7.677047   -0.584731   -0.265208
      6          8           0       -3.172768    2.498578   -0.116307
      7          7           0       -0.279730   -0.588289   -0.600686
      8          7           0        1.551956    1.738812   -0.336430
      9          7           0       -3.472082   -3.195882    0.553958
     10          7           0       -0.821642    2.972582   -0.110392
     11          6           0        0.760246   -2.469746   -1.355007
     12          6           0        1.004454   -1.151859   -0.914794
     13          6           0       -0.652121   -2.736301   -1.130229
     14          6           0       -1.273927   -1.519443   -0.703863
     15          6           0        3.830212    1.468594   -0.391906
     16          6           0        2.523440    0.848739   -0.524789
     17          6           0        2.262176   -0.489163   -0.928244
     18          6           0        3.567059    2.789867    0.059953
     19          6           0        1.704460   -3.500634   -1.839869
     20          6           0       -5.614617   -2.576003    1.297957
     21          6           0       -3.632410   -1.893523    0.024642
     22          6           0        2.050906    2.952992    0.060104
     23          6           0       -5.018395   -1.595202    0.233124
     24          6           0        5.091507    0.775883   -0.495872
     25          6           0       -2.683530   -1.165242   -0.561466
     26          6           0       -1.331083   -3.976446   -1.567351
     27          6           0       -4.487453   -3.640005    1.411681
     28          6           0        2.018806   -4.529414   -0.777727
     29          6           0        5.547577   -0.016391    0.777860
     30          6           0        4.479806    3.822639    0.399587
     31          6           0        1.302719    3.987920    0.279642
     32          6           0       -6.916418   -3.185065    0.968577
     33          6           0       -5.758076   -0.642496   -0.296800
     34          6           0       -0.159813    4.012602    0.136206
     35          6           0       -1.023747    5.089443    0.553231
     36          6           0       -2.283495    4.642524    0.359422
     37          6           0        2.961630   -4.054708    0.305730
     38          6           0       -5.502717    0.401705   -1.409694
     39          6           0        6.916309   -0.610232    0.687472
     40          6           0       -3.636592    5.359626    0.533296
     41          6           0       -2.178056    3.249496    0.044663
     42          6           0       -0.604836    6.496718    0.820900
     43          6           0       -4.232108    5.715970   -0.834177
     44          1           0       -0.385710    0.311270   -0.168099
     45          1           0        3.178036   -0.880506   -1.272750
     46          1           0        2.654987   -3.074866   -2.133593
     47          1           0        1.238138   -3.886593   -2.637987
     48          1           0       -5.848245   -1.988356    2.295865
     49          1           0        5.465131    0.083535   -1.531182
     50          1           0        5.877605    1.535481   -0.634090
     51          1           0       -2.978898   -0.136046   -0.823089
     52          1           0        0.403204    1.933269   -0.455821
     53          1           0       -1.180856   -4.981237   -0.911073
     54          1           0       -2.434723   -3.972935   -1.710317
     55          1           0       -1.197528   -4.357358   -2.718429
     56          1           0       -2.527249   -3.664242    0.612558
     57          1           0        1.010612   -4.871585   -0.586283
     58          1           0        2.588905   -5.542278   -1.354075
     59          1           0        4.660916   -0.920602    0.664242
     60          1           0        5.571543    0.492419    1.597336
     61          1           0        4.357786    4.661686   -0.079142
     62          1           0        5.428643    3.564796   -0.049206
     63          1           0        4.477429    3.925646    1.386573
     64          1           0        1.845087    4.946003    0.597426
     65          1           0       -7.834188   -2.502717    0.946401
     66          1           0       -7.116521   -4.044201    1.580074
     67          1           0       -6.972771   -3.707484   -0.080262
     68          1           0       -6.857945   -0.520208   -0.012023
     69          1           0       -4.986036    1.537092   -1.218333
     70          1           0       -6.473331    0.614060   -1.885474
     71          1           0       -4.936840   -0.085687   -2.194590
     72          1           0       -3.629492    6.357412    0.973038
     73          1           0       -4.391869    4.716904    1.119861
     74          1           0       -0.073200    6.767490    1.769108
     75          1           0       -1.621922    7.216781    0.875550
     76          1           0       -0.010016    6.895800    0.020407
     77          1           0       -3.632137    6.434374   -1.467865
     78          1           0       -5.129478    6.222008   -0.409298
     79          1           0       -4.261109    5.015751   -1.452148
     80          1           0        3.812663   -4.659372    1.847784
     81          1           0        8.109725   -1.881002    1.484766
 ---------------------------------------------------------------------

 SCF Done:  E(RB3LYP) =  -1949.05309792     A.U. after   18 cycles

 Excitation energies and oscillator strengths:

 Excited State   1:      Singlet-A      1.8043 eV  687.14 nm  f=0.3539  <S**2>=0.000
     156 ->157         0.71140
     156 <-157        -0.14938
 This state for optimization and/or second-order correction.
 Total Energy, E(TD-HF/TD-DFT) =  -1948.98678947
 Copying the excited state density for this state as the 1-particle RhoCI density.

 The electronic state is 1-A.
 Alpha  occ. eigenvalues --  -19.21565 -19.18464 -19.14112 -19.12423 -19.11477
 Alpha  occ. eigenvalues --  -19.11271 -14.37777 -14.37158 -14.35092 -14.30382
 Alpha  occ. eigenvalues --  -10.34732 -10.31619 -10.29403 -10.27129 -10.24152
 Alpha  occ. eigenvalues --  -10.23959 -10.23414 -10.23175 -10.22979 -10.22919
 Alpha  occ. eigenvalues --  -10.22755 -10.21663 -10.21293 -10.20888 -10.20586
 Alpha  occ. eigenvalues --  -10.20565 -10.20527 -10.20517 -10.20487 -10.19863
 Alpha  occ. eigenvalues --  -10.19828 -10.19821 -10.19652 -10.19488 -10.19356
 Alpha  occ. eigenvalues --  -10.19069 -10.19026 -10.18976 -10.18808 -10.18682
 Alpha  occ. eigenvalues --  -10.18487 -10.17121 -10.16646  -1.10979  -1.08448
 Alpha  occ. eigenvalues --   -1.03704  -1.01220  -0.99014  -0.98752  -0.97990
 Alpha  occ. eigenvalues --   -0.96981  -0.95248  -0.94885  -0.83076  -0.82492
 Alpha  occ. eigenvalues --   -0.81592  -0.81169  -0.80229  -0.79366  -0.77894
 Alpha  occ. eigenvalues --   -0.77343  -0.76609  -0.75756  -0.74124  -0.73179
 Alpha  occ. eigenvalues --   -0.71649  -0.70229  -0.69323  -0.68793  -0.67454
 Alpha  occ. eigenvalues --   -0.67023  -0.65579  -0.63880  -0.62503  -0.62017
 Alpha  occ. eigenvalues --   -0.61121  -0.59512  -0.58113  -0.57323  -0.56908
 Alpha  occ. eigenvalues --   -0.56087  -0.55474  -0.54907  -0.53839  -0.53342
 Alpha  occ. eigenvalues --   -0.52885  -0.52458  -0.51592  -0.50461  -0.50044
 Alpha  occ. eigenvalues --   -0.49239  -0.48684  -0.48292  -0.47976  -0.47616
 Alpha  occ. eigenvalues --   -0.47322  -0.47127  -0.46820  -0.45937  -0.45239
 Alpha  occ. eigenvalues --   -0.45206  -0.45035  -0.44680  -0.44342  -0.44000
 Alpha  occ. eigenvalues --   -0.43556  -0.43269  -0.43135  -0.42874  -0.42595
 Alpha  occ. eigenvalues --   -0.42201  -0.41944  -0.41474  -0.41318  -0.41029
 Alpha  occ. eigenvalues --   -0.40683  -0.40016  -0.39941  -0.39727  -0.39269
 Alpha  occ. eigenvalues --   -0.39200  -0.38839  -0.38669  -0.38362  -0.38113
 Alpha  occ. eigenvalues --   -0.37842  -0.37266  -0.36901  -0.36633  -0.36463
 Alpha  occ. eigenvalues --   -0.36193  -0.36116  -0.35144  -0.34982  -0.34540
 Alpha  occ. eigenvalues --   -0.33937  -0.33785  -0.33362  -0.32784  -0.32065
 Alpha  occ. eigenvalues --   -0.31962  -0.31630  -0.31472  -0.30199  -0.29162
 Alpha  occ. eigenvalues --   -0.28767  -0.27847  -0.26936  -0.26365  -0.25642
 Alpha  occ. eigenvalues --   -0.25110  -0.24982  -0.24665  -0.24246  -0.22053
 Alpha  occ. eigenvalues --   -0.17488
 Alpha virt. eigenvalues --   -0.10793  -0.06281  -0.04345  -0.03515  -0.00274
 Alpha virt. eigenvalues --   -0.00094   0.02073   0.02368   0.03110   0.03306
 Alpha virt. eigenvalues --    0.03476   0.03781   0.04834   0.05163   0.06005

 Mulliken charges:
               1
     1  O   -0.195087
     2  O   -0.163677
     3  O   -0.248274
     4  O   -0.307510
     5  O   -0.244252
     6  O   -0.235643
     7  N   -0.089522
     8  N   -0.149186
     9  N   -0.175279
    10  N   -0.239319
    11  C   -0.156986
    12  C    0.141652
    13  C   -0.094224
    14  C    0.080550
    15  C    0.011868
    16  C   -0.006247
    17  C   -0.018277
    18  C   -0.171382
    19  C    0.255574
    20  C   -0.089777
    21  C    0.137017
    22  C    0.108404
    23  C    0.060815
    24  C   -0.054042
    25  C   -0.111151
    26  C   -0.088100
    27  C    0.162156
    28  C   -0.049062
    29  C    0.020695
    30  C    0.282540
    31  C   -0.154268
    32  C    0.009943
    33  C   -0.183272
    34  C    0.033191
    35  C   -0.089410
    36  C   -0.123646
    37  C    0.195543
    38  C   -0.008729
    39  C    0.150048
    40  C    0.064962
    41  C    0.143913
    42  C    0.032438
    43  C    0.072203
    44  H    0.123370
    45  H   -0.023588
    46  H   -0.002302
    47  H   -0.042501
    48  H    0.061079
    49  H    0.062921
    50  H   -0.004461
    51  H    0.017547
    52  H    0.215983
    53  H    0.046717
    54  H    0.030187
    55  H    0.039179
    56  H    0.148812
    57  H    0.019682
    58  H    0.066378
    59  H    0.117800
    60  H   -0.025354
    61  H   -0.037203
    62  H   -0.015561
    63  H   -0.005181
    64  H   -0.012517
    65  H    0.028029
    66  H    0.020745
    67  H    0.004963
    68  H    0.009603
    69  H    0.106436
    70  H    0.001065
    71  H    0.012516
    72  H   -0.010820
    73  H    0.031637
    74  H    0.029517
    75  H    0.028500
    76  H    0.023878
    77  H   -0.003534
    78  H    0.018338
    79  H   -0.046338
    80  H    0.220684
    81  H    0.226607
 Sum of Mulliken charges =  -0.00000

 Dipole moment (field-independent basis, Debye):
    X=              2.8918    Y=              0.7888    Z=             -0.0024  Tot=              2.9975
 Quadrupole moment (field-independent basis, Debye-Ang):
   XX=           -254.6315   YY=           -229.7676   ZZ=           -257.4545
   XY=            -18.2076   XZ=             18.2993   YZ=             12.7749

 Normal termination of Gaussian 16 at Fri Jul  5 08:28:19 2019.
