 Gaussian 16, Revision A.03,
 Gaussian 16:  ES64L-G16RevA.03 25-Dec-2016

 --------------------------
 # td=(NStates=1) B3LYP/SVP
 --------------------------

 --
 TD
 --
 Symbolic Z-matrix:
 Charge =  0 Multiplicity = 1

                         Standard orientation:
 ---------------------------------------------------------------------
 Center     Atomic      Atomic             Coordinates (Angstroms)
 Number     Number       Type             X           Y           Z
 ---------------------------------------------------------------------
      1          8           0       -4.518731   -4.627869    2.009333
      2          8           0        3.103275   -4.798110    1.431955
      3          8           0        7.127253   -1.387793    1.773404
      4          8           0        3.819177   -3.186490    0.160457
      5          8           0        7.750849   -0.323134   -0.169492
      6          8           0       -3.084806    2.491193   -0.303647
      7          7           0       -0.325001   -0.559772   -0.633102
      8          7           0        1.538734    1.796131   -0.275189
      9          7           0       -3.413397   -3.154105    0.555732
     10          7           0       -0.853713    2.969248   -0.048533
     11          6           0        0.669660   -2.512151   -1.279776
     12          6           0        0.934147   -1.185346   -0.960125
     13          6           0       -0.722916   -2.733095   -1.229980
     14          6           0       -1.287209   -1.530918   -0.847864
     15          6           0        3.779076    1.420160   -0.413575
     16          6           0        2.457587    0.813615   -0.555263
     17          6           0        2.177196   -0.493626   -0.886151
     18          6           0        3.603394    2.804904   -0.034585
     19          6           0        1.639470   -3.526244   -1.745408
     20          6           0       -5.452152   -2.568384    1.461525
     21          6           0       -3.628992   -1.898391   -0.006536
     22          6           0        2.131378    3.006610    0.034554
     23          6           0       -5.016329   -1.572749    0.332629
     24          6           0        5.041767    0.740052   -0.518338
     25          6           0       -2.712032   -1.104330   -0.661443
     26          6           0       -1.471359   -4.053542   -1.796408
     27          6           0       -4.450213   -3.615129    1.374599
     28          6           0        2.121967   -4.581289   -0.817747
     29          6           0        5.435309   -0.041362    0.784649
     30          6           0        4.532240    3.816983    0.265780
     31          6           0        1.308925    4.108323    0.181644
     32          6           0       -6.888287   -3.166472    1.284045
     33          6           0       -5.836539   -0.649162   -0.264346
     34          6           0       -0.173532    4.028796    0.295397
     35          6           0       -1.002188    5.203498    0.511671
     36          6           0       -2.259556    4.743238    0.344489
     37          6           0        3.085627   -4.126537    0.271390
     38          6           0       -5.519919    0.297969   -1.377498
     39          6           0        6.868957   -0.619307    0.691043
     40          6           0       -3.658311    5.425620    0.435610
     41          6           0       -2.172253    3.282131   -0.044450
     42          6           0       -0.622839    6.552903    1.085079
     43          6           0       -4.324534    5.530680   -0.869131
     44          1           0       -0.569355    0.373727   -0.428645
     45          1           0        2.836252   -1.235864   -1.210376
     46          1           0        2.598124   -3.201718   -2.074157
     47          1           0        1.189344   -4.075597   -2.712949
     48          1           0       -5.411031   -2.129627    2.455452
     49          1           0        5.265370    0.076515   -1.368303
     50          1           0        5.853576    1.432861   -0.473643
     51          1           0       -2.827301   -0.135022   -0.749655
     52          1           0        0.733802    1.872439   -0.722421
     53          1           0       -1.738001   -4.730886   -1.041619
     54          1           0       -2.411232   -3.825575   -2.357493
     55          1           0       -0.837908   -4.437445   -2.600681
     56          1           0       -2.437898   -3.579536    0.626293
     57          1           0        1.371194   -5.146913   -0.265028
     58          1           0        2.573261   -5.359259   -1.509835
     59          1           0        4.853240   -0.840186    0.958739
     60          1           0        5.300774    0.520471    1.680913
     61          1           0        4.340882    4.918931   -0.392634
     62          1           0        5.542675    3.638005   -0.062764
     63          1           0        4.159821    4.090714    1.268641
     64          1           0        1.954488    5.067662    0.369437
     65          1           0       -7.582487   -2.465241    1.764020
     66          1           0       -6.817429   -4.137292    1.838912
     67          1           0       -7.255488   -3.542033    0.252536
     68          1           0       -6.986449   -0.800334    0.036194
     69          1           0       -5.191906    1.254174   -1.043691
     70          1           0       -6.271663    0.525347   -2.164693
     71          1           0       -4.760529   -0.017040   -2.230585
     72          1           0       -3.623600    6.381785    0.939812
     73          1           0       -4.125052    4.840720    1.030731
     74          1           0       -0.011766    6.370767    1.947917
     75          1           0       -1.527940    7.125098    1.102699
     76          1           0        0.071169    7.309194    0.364132
     77          1           0       -3.906827    6.304289   -1.569732
     78          1           0       -5.434885    5.868267   -0.729941
     79          1           0       -4.467070    4.435728   -1.186763
     80          1           0        3.853801   -4.454261    1.806454
     81          1           0        7.970294   -1.780449    1.771420
 ---------------------------------------------------------------------

 SCF Done:  E(RB3LYP) =  -1949.13724362     A.U. after   16 cycles

 Excitation energies and oscillator strengths:

 Excited State   1:      Singlet-A      1.8797 eV  659.60 nm  f=0.3489  <S**2>=0.000
     156 ->157         0.70536
     156 <-157        -0.11709
 This state for optimization and/or second-order correction.
 Total Energy, E(TD-HF/TD-DFT) =  -1949.06816606
 Copying the excited state density for this state as the 1-particle RhoCI density.

 The electronic state is 1-A.
 Alpha  occ. eigenvalues --  -19.19176 -19.18833 -19.14107 -19.12898 -19.11274
 Alpha  occ. eigenvalues --  -19.10835 -14.37449 -14.36829 -14.35152 -14.28459
 Alpha  occ. eigenvalues --  -10.33399 -10.33095 -10.28817 -10.26376 -10.24316
 Alpha  occ. eigenvalues --  -10.24075 -10.23618 -10.23438 -10.23148 -10.22995
 Alpha  occ. eigenvalues --  -10.22136 -10.21453 -10.21250 -10.21208 -10.20959
 Alpha  occ. eigenvalues --  -10.20948 -10.20678 -10.20347 -10.20291 -10.20242
 Alpha  occ. eigenvalues --  -10.20149 -10.19952 -10.19827 -10.19806 -10.19624
 Alpha  occ. eigenvalues --  -10.19622 -10.19327 -10.19133 -10.18704 -10.18206
 Alpha  occ. eigenvalues --  -10.18137 -10.18001 -10.17084  -1.13454  -1.09511
 Alpha  occ. eigenvalues --   -1.04581  -1.02717  -1.01264  -0.98815  -0.98442
 Alpha  occ. eigenvalues --   -0.96772  -0.95428  -0.93308  -0.83448  -0.83011
 Alpha  occ. eigenvalues --   -0.81276  -0.80655  -0.79892  -0.78896  -0.78629
 Alpha  occ. eigenvalues --   -0.77744  -0.76296  -0.75705  -0.73912  -0.72795
 Alpha  occ. eigenvalues --   -0.71545  -0.69606  -0.69177  -0.69101  -0.68390
 Alpha  occ. eigenvalues --   -0.67403  -0.65735  -0.64575  -0.62674  -0.62327
 Alpha  occ. eigenvalues --   -0.62005  -0.60759  -0.59191  -0.57750  -0.57387
 Alpha  occ. eigenvalues --   -0.56514  -0.55915  -0.54922  -0.53767  -0.53105
 Alpha  occ. eigenvalues --   -0.52667  -0.52185  -0.51569  -0.50618  -0.50250
 Alpha  occ. eigenvalues --   -0.50097  -0.49273  -0.48991  -0.48221  -0.47793
 Alpha  occ. eigenvalues --   -0.47601  -0.47168  -0.46622  -0.46259  -0.45921
 Alpha  occ. eigenvalues --   -0.45379  -0.45074  -0.44833  -0.44071  -0.43819
 Alpha  occ. eigenvalues --   -0.43537  -0.43253  -0.43132  -0.42701  -0.42572
 Alpha  occ. eigenvalues --   -0.42534  -0.41845  -0.41413  -0.41342  -0.41072
 Alpha  occ. eigenvalues --   -0.40658  -0.40252  -0.40016  -0.39627  -0.39277
 Alpha  occ. eigenvalues --   -0.39003  -0.38835  -0.38460  -0.38407  -0.38252
 Alpha  occ. eigenvalues --   -0.37983  -0.37974  -0.37829  -0.37493  -0.36866
 Alpha  occ. eigenvalues --   -0.36654  -0.35974  -0.35942  -0.35677  -0.35408
 Alpha  occ. eigenvalues --   -0.34307  -0.34075  -0.34028  -0.32994  -0.32668
 Alpha  occ. eigenvalues --   -0.32076  -0.31799  -0.31687  -0.30259  -0.29717
 Alpha  occ. eigenvalues --   -0.28080  -0.27426  -0.26971  -0.26196  -0.25700
 Alpha  occ. eigenvalues --   -0.25278  -0.24695  -0.24045  -0.23648  -0.21681
 Alpha  occ. eigenvalues --   -0.17853
 Alpha virt. eigenvalues --   -0.10478  -0.06257  -0.03935  -0.01737  -0.01152
 Alpha virt. eigenvalues --   -0.00339   0.01805   0.02850   0.03607   0.04198
 Alpha virt. eigenvalues --    0.04850   0.05207   0.05836   0.06456   0.06542

 Mulliken charges:
               1
     1  O   -0.192296
     2  O   -0.115790
     3  O   -0.158992
     4  O   -0.221552
     5  O   -0.277429
     6  O   -0.212720
     7  N   -0.110249
     8  N   -0.024311
     9  N   -0.160360
    10  N   -0.217021
    11  C   -0.031158
    12  C   -0.014404
    13  C   -0.186299
    14  C    0.015285
    15  C   -0.062967
    16  C    0.137385
    17  C    0.015436
    18  C   -0.066164
    19  C    0.040846
    20  C   -0.045928
    21  C    0.132867
    22  C    0.047835
    23  C   -0.039716
    24  C    0.115978
    25  C    0.017974
    26  C    0.113832
    27  C    0.121153
    28  C    0.033957
    29  C    0.045468
    30  C    0.015502
    31  C   -0.133083
    32  C    0.001376
    33  C   -0.114997
    34  C    0.053355
    35  C   -0.110784
    36  C   -0.209283
    37  C    0.097735
    38  C    0.022629
    39  C    0.160323
    40  C    0.233384
    41  C    0.123911
    42  C    0.081397
    43  C   -0.054535
    44  H    0.117729
    45  H   -0.058851
    46  H    0.002619
    47  H    0.028017
    48  H    0.048694
    49  H    0.023426
    50  H   -0.009351
    51  H   -0.070544
    52  H    0.097700
    53  H    0.010879
    54  H    0.027809
    55  H    0.005763
    56  H    0.157799
    57  H    0.014002
    58  H    0.050156
    59  H   -0.008278
    60  H    0.021451
    61  H    0.033586
    62  H    0.029374
    63  H    0.048805
    64  H   -0.002528
    65  H    0.023654
    66  H    0.036779
    67  H    0.031018
    68  H    0.026021
    69  H    0.052215
    70  H    0.002045
    71  H    0.027686
    72  H   -0.027128
    73  H   -0.057067
    74  H    0.031353
    75  H    0.013590
    76  H    0.023561
    77  H    0.023963
    78  H    0.003628
    79  H    0.048187
    80  H    0.141090
    81  H    0.163557
 Sum of Mulliken charges =  -0.00000

 Dipole moment (field-independent basis, Debye):
    X=              2.8952    Y=             -0.3350    Z=              0.2713  Tot=              2.9271
 Quadrupole moment (field-independent basis, Debye-Ang):
   XX=           -254.9226   YY=           -237.0890   ZZ=           -252.6233
   XY=            -18.0705   XZ=             16.7502   YZ=             15.5356

 Normal termination of Gaussian 16 at Fri Jun 28 06:19:28 2019.
