 Gaussian 16, Revision A.03,
 Gaussian 16:  ES64L-G16RevA.03 25-Dec-2016

 --------------------------
 # td=(NStates=1) B3LYP/SVP
 --------------------------

 --
 TD
 --
 Symbolic Z-matrix:
 Charge =  0 Multiplicity = 1

                         Standard orientation:
 ---------------------------------------------------------------------
 Center     Atomic      Atomic             Coordinates (Angstroms)
 Number     Number       Type             X           Y           Z
 ---------------------------------------------------------------------
      1          8           0        4.486478   -4.683670   -1.924705
      2          8           0       -2.891504   -5.041554   -1.049336
      3          8           0       -6.919571   -1.526487   -1.883398
      4          8           0       -3.813361   -3.279717    0.134195
      5          8           0       -7.790573   -0.238083   -0.214197
      6          8           0        3.036607    2.499319    0.277012
      7          7           0        0.293234   -0.594600    0.569968
      8          7           0       -1.589732    1.825006    0.466847
      9          7           0        3.458211   -3.203139   -0.780989
     10          7           0        0.713225    2.897376    0.075733
     11          6           0       -0.620377   -2.443648    1.390798
     12          6           0       -0.925036   -1.112959    0.972874
     13          6           0        0.793068   -2.661648    1.210880
     14          6           0        1.319031   -1.459093    0.703346
     15          6           0       -3.787891    1.464450    0.243858
     16          6           0       -2.503116    0.881989    0.578104
     17          6           0       -2.191376   -0.491690    0.892918
     18          6           0       -3.453407    2.748285    0.016842
     19          6           0       -1.615312   -3.462804    2.049873
     20          6           0        5.548703   -2.436011   -1.475733
     21          6           0        3.556847   -1.922467   -0.180405
     22          6           0       -2.134804    3.019219    0.047985
     23          6           0        4.945551   -1.437382   -0.421383
     24          6           0       -5.123802    0.768086    0.263121
     25          6           0        2.584723   -1.076541    0.393976
     26          6           0        1.490246   -3.896941    1.658111
     27          6           0        4.514936   -3.525987   -1.508430
     28          6           0       -2.113188   -4.553269    1.146201
     29          6           0       -5.408448   -0.208745   -0.842462
     30          6           0       -4.456841    3.772239   -0.510044
     31          6           0       -1.336581    4.092940   -0.318354
     32          6           0        7.000982   -3.014733   -1.141016
     33          6           0        5.725501   -0.548957    0.153811
     34          6           0        0.060201    4.047554   -0.313242
     35          6           0        0.996068    5.141270   -0.498888
     36          6           0        2.240049    4.607760   -0.286598
     37          6           0       -3.021667   -4.196366    0.093062
     38          6           0        5.419712    0.443279    1.177886
     39          6           0       -6.819260   -0.693346   -0.862915
     40          6           0        3.613392    5.289499   -0.361958
     41          6           0        2.025698    3.088730   -0.020645
     42          6           0        0.596842    6.648203   -0.708189
     43          6           0        4.151302    5.456820    1.170553
     44          1           0        0.311199    0.354798    0.258883
     45          1           0       -2.976642   -0.970100    1.092071
     46          1           0       -2.433508   -2.996029    2.546739
     47          1           0       -1.137125   -3.856688    2.887612
     48          1           0        5.784101   -2.002496   -2.636199
     49          1           0       -5.322944    0.203227    1.248482
     50          1           0       -5.779919    1.557828    0.325118
     51          1           0        2.915327   -0.028709    0.382224
     52          1           0       -0.468309    1.851892    0.370279
     53          1           0        1.503991   -4.711812    0.858557
     54          1           0        2.626580   -3.834634    2.046399
     55          1           0        1.132482   -4.327746    2.389124
     56          1           0        2.603514   -3.880834   -0.637339
     57          1           0       -1.345887   -5.351574    0.559876
     58          1           0       -2.817644   -4.999912    2.031527
     59          1           0       -4.596446   -0.940990   -0.552930
     60          1           0       -5.212871    0.218802   -1.785857
     61          1           0       -4.517141    4.577950    0.239290
     62          1           0       -5.591640    3.436920   -0.363740
     63          1           0       -4.175393    4.195078   -1.604247
     64          1           0       -1.768805    5.182593   -0.572114
     65          1           0        7.730180   -2.146922   -1.101418
     66          1           0        7.279156   -3.742571   -1.940630
     67          1           0        7.037970   -3.637440   -0.258118
     68          1           0        6.933063   -0.473757   -0.183526
     69          1           0        4.726179    1.142925    0.813324
     70          1           0        6.357900    0.809976    1.805475
     71          1           0        4.636806   -0.099181    1.720015
     72          1           0        3.434546    6.119447   -0.862408
     73          1           0        4.351852    4.660380   -0.752586
     74          1           0        0.329733    6.946521   -1.762855
     75          1           0        1.531515    7.414011   -0.437224
     76          1           0       -0.220129    6.857704   -0.034796
     77          1           0        3.661103    6.231593    1.560566
     78          1           0        5.146872    6.034580    1.137632
     79          1           0        4.332598    4.392867    1.578464
     80          1           0       -3.572890   -4.674381   -1.610797
     81          1           0       -7.849039   -1.790702   -2.075980
 ---------------------------------------------------------------------

 SCF Done:  E(RB3LYP) =  -1949.04792382     A.U. after   17 cycles

 Excitation energies and oscillator strengths:

 Excited State   1:      Singlet-A      1.8621 eV  665.84 nm  f=0.4707  <S**2>=0.000
     156 ->157         0.71470
     156 <-157        -0.14171
 This state for optimization and/or second-order correction.
 Total Energy, E(TD-HF/TD-DFT) =  -1948.97949365
 Copying the excited state density for this state as the 1-particle RhoCI density.

 The electronic state is 1-A.
 Alpha  occ. eigenvalues --  -19.19190 -19.18909 -19.14981 -19.12520 -19.09768
 Alpha  occ. eigenvalues --  -19.09731 -14.38173 -14.37992 -14.34656 -14.29169
 Alpha  occ. eigenvalues --  -10.33658 -10.32430 -10.28679 -10.25937 -10.25779
 Alpha  occ. eigenvalues --  -10.24101 -10.24017 -10.23831 -10.22865 -10.22848
 Alpha  occ. eigenvalues --  -10.22837 -10.22560 -10.21797 -10.21246 -10.21244
 Alpha  occ. eigenvalues --  -10.20975 -10.20677 -10.20653 -10.20452 -10.20416
 Alpha  occ. eigenvalues --  -10.20392 -10.19884 -10.19767 -10.19704 -10.19648
 Alpha  occ. eigenvalues --  -10.19541 -10.19340 -10.18888 -10.18547 -10.18071
 Alpha  occ. eigenvalues --  -10.17910 -10.17641 -10.17190  -1.10065  -1.09769
 Alpha  occ. eigenvalues --   -1.03897  -1.01907  -1.01790  -0.99888  -0.99084
 Alpha  occ. eigenvalues --   -0.98993  -0.94321  -0.92289  -0.83406  -0.82502
 Alpha  occ. eigenvalues --   -0.82228  -0.81871  -0.80085  -0.79182  -0.78390
 Alpha  occ. eigenvalues --   -0.77752  -0.76851  -0.75714  -0.73925  -0.73012
 Alpha  occ. eigenvalues --   -0.71612  -0.70634  -0.70184  -0.68299  -0.67882
 Alpha  occ. eigenvalues --   -0.67169  -0.66491  -0.65354  -0.62943  -0.62321
 Alpha  occ. eigenvalues --   -0.60869  -0.60046  -0.59385  -0.58670  -0.57907
 Alpha  occ. eigenvalues --   -0.56458  -0.55738  -0.55315  -0.53314  -0.52935
 Alpha  occ. eigenvalues --   -0.52429  -0.51782  -0.51146  -0.50553  -0.49985
 Alpha  occ. eigenvalues --   -0.49411  -0.49042  -0.48916  -0.48284  -0.47949
 Alpha  occ. eigenvalues --   -0.47403  -0.47159  -0.46574  -0.45872  -0.45546
 Alpha  occ. eigenvalues --   -0.45396  -0.45177  -0.45044  -0.44165  -0.43846
 Alpha  occ. eigenvalues --   -0.43801  -0.43189  -0.42940  -0.42929  -0.42400
 Alpha  occ. eigenvalues --   -0.42387  -0.42132  -0.41834  -0.41429  -0.40871
 Alpha  occ. eigenvalues --   -0.40789  -0.40646  -0.40172  -0.39922  -0.39887
 Alpha  occ. eigenvalues --   -0.39694  -0.38805  -0.38566  -0.38400  -0.38036
 Alpha  occ. eigenvalues --   -0.37881  -0.37673  -0.37055  -0.36855  -0.36456
 Alpha  occ. eigenvalues --   -0.36107  -0.35879  -0.35163  -0.35043  -0.34957
 Alpha  occ. eigenvalues --   -0.34684  -0.34012  -0.33790  -0.33539  -0.33274
 Alpha  occ. eigenvalues --   -0.32041  -0.32029  -0.31920  -0.30465  -0.30023
 Alpha  occ. eigenvalues --   -0.28364  -0.28001  -0.26701  -0.26011  -0.25891
 Alpha  occ. eigenvalues --   -0.25294  -0.25201  -0.23079  -0.22529  -0.22334
 Alpha  occ. eigenvalues --   -0.18052
 Alpha virt. eigenvalues --   -0.11052  -0.05500  -0.03980  -0.03370  -0.01005
 Alpha virt. eigenvalues --   -0.00771   0.01741   0.02937   0.03489   0.03938
 Alpha virt. eigenvalues --    0.04314   0.04837   0.05211   0.05519   0.06115

 Mulliken charges:
               1
     1  O   -0.243149
     2  O   -0.218791
     3  O   -0.164058
     4  O   -0.215333
     5  O   -0.265886
     6  O   -0.226120
     7  N   -0.024744
     8  N   -0.106192
     9  N   -0.102948
    10  N   -0.314112
    11  C   -0.113813
    12  C    0.076991
    13  C   -0.145005
    14  C    0.173779
    15  C   -0.066585
    16  C   -0.019807
    17  C    0.095862
    18  C   -0.120097
    19  C    0.166425
    20  C   -0.156193
    21  C    0.100261
    22  C    0.110423
    23  C    0.018262
    24  C    0.125814
    25  C   -0.155262
    26  C    0.137467
    27  C    0.119288
    28  C   -0.047701
    29  C    0.006551
    30  C    0.026035
    31  C   -0.158084
    32  C    0.032150
    33  C   -0.215499
    34  C    0.078892
    35  C   -0.070483
    36  C   -0.231247
    37  C    0.143790
    38  C    0.097267
    39  C    0.163279
    40  C    0.180012
    41  C    0.158326
    42  C    0.030395
    43  C   -0.008188
    44  H    0.094831
    45  H   -0.136748
    46  H   -0.001426
    47  H   -0.013035
    48  H    0.074488
    49  H    0.023506
    50  H   -0.039493
    51  H    0.011250
    52  H    0.191669
    53  H    0.018782
    54  H    0.043360
    55  H   -0.084647
    56  H    0.172561
    57  H    0.079063
    58  H    0.074898
    59  H    0.062095
    60  H    0.022785
    61  H    0.010642
    62  H    0.024659
    63  H    0.056586
    64  H    0.013867
    65  H    0.032859
    66  H    0.033310
    67  H    0.012647
    68  H    0.032247
    69  H    0.049571
    70  H    0.045422
    71  H   -0.000096
    72  H   -0.045674
    73  H   -0.007234
    74  H    0.034263
    75  H    0.032878
    76  H    0.026035
    77  H   -0.022479
    78  H   -0.008514
    79  H    0.071570
    80  H    0.172070
    81  H    0.189459
 Sum of Mulliken charges =  -0.00000

 Dipole moment (field-independent basis, Debye):
    X=             -1.7005    Y=             -1.2691    Z=              0.4846  Tot=              2.1765
 Quadrupole moment (field-independent basis, Debye-Ang):
   XX=           -256.4459   YY=           -246.3258   ZZ=           -250.8228
   XY=             19.7322   XZ=             16.7822   YZ=            -17.8294

 Normal termination of Gaussian 16 at Wed Jul  3 00:10:44 2019.
