 Gaussian 16, Revision A.03,
 Gaussian 16:  ES64L-G16RevA.03 25-Dec-2016

 --------------------------
 # td=(NStates=1) B3LYP/SVP
 --------------------------

 --
 TD
 --
 Symbolic Z-matrix:
 Charge =  0 Multiplicity = 1

                         Standard orientation:
 ---------------------------------------------------------------------
 Center     Atomic      Atomic             Coordinates (Angstroms)
 Number     Number       Type             X           Y           Z
 ---------------------------------------------------------------------
      1          8           0        4.333601   -4.738564   -1.850527
      2          8           0       -2.717407   -4.805349   -1.311775
      3          8           0       -6.953919   -1.645531   -1.915186
      4          8           0       -3.522276   -3.292469   -0.054530
      5          8           0       -7.637207   -0.552371   -0.047836
      6          8           0        3.021436    2.530112    0.269418
      7          7           0        0.271056   -0.536758    0.591307
      8          7           0       -1.583808    1.761904    0.454844
      9          7           0        3.325280   -3.113341   -0.608242
     10          7           0        0.680232    2.999403    0.038778
     11          6           0       -0.586958   -2.499399    1.506982
     12          6           0       -0.953352   -1.139421    1.041565
     13          6           0        0.788157   -2.627514    1.469211
     14          6           0        1.279619   -1.375324    0.786926
     15          6           0       -3.786332    1.441314    0.393789
     16          6           0       -2.527049    0.841148    0.684121
     17          6           0       -2.172899   -0.551597    0.969196
     18          6           0       -3.591755    2.721386    0.074202
     19          6           0       -1.628597   -3.499563    1.914904
     20          6           0        5.532385   -2.668891   -1.364867
     21          6           0        3.604671   -1.794758   -0.238368
     22          6           0       -2.162371    2.940486    0.092236
     23          6           0        5.029875   -1.579097   -0.419709
     24          6           0       -5.178634    0.668566    0.349150
     25          6           0        2.689962   -1.019628    0.445395
     26          6           0        1.456500   -3.820230    1.858219
     27          6           0        4.418255   -3.705826   -1.306493
     28          6           0       -1.818412   -4.614229    0.920247
     29          6           0       -5.410724   -0.184950   -0.935265
     30          6           0       -4.582202    3.821029   -0.297988
     31          6           0       -1.423858    4.077124   -0.207178
     32          6           0        6.841704   -3.321086   -1.016117
     33          6           0        5.819241   -0.546293    0.057490
     34          6           0        0.068547    4.096325   -0.252464
     35          6           0        0.941692    5.328135   -0.482116
     36          6           0        2.256654    4.879602   -0.250082
     37          6           0       -2.812771   -4.139442   -0.151267
     38          6           0        5.406757    0.546528    0.947963
     39          6           0       -6.787874   -0.788654   -0.831149
     40          6           0        3.505535    5.533865   -0.547736
     41          6           0        2.053768    3.346580    0.114394
     42          6           0        0.359853    6.665600   -0.776301
     43          6           0        4.452787    5.620781    0.750604
     44          1           0        0.247015    0.493665    0.057367
     45          1           0       -3.080749   -1.268158    1.150999
     46          1           0       -2.756618   -3.245817    2.298123
     47          1           0       -1.277870   -3.950225    2.737144
     48          1           0        5.250037   -2.251727   -2.469901
     49          1           0       -4.935560   -0.023179    1.189254
     50          1           0       -5.875481    1.374370    0.534851
     51          1           0        2.873422    0.178194    0.516921
     52          1           0       -0.471596    1.979455    0.633740
     53          1           0        1.448704   -4.660844    1.116492
     54          1           0        2.708465   -3.657870    1.952854
     55          1           0        0.912373   -4.155731    2.882141
     56          1           0        2.403206   -3.476390   -0.782580
     57          1           0       -1.095309   -5.146641    0.450922
     58          1           0       -2.400630   -5.405302    1.334296
     59          1           0       -4.716744   -1.077687   -0.845633
     60          1           0       -5.240804    0.455273   -1.801106
     61          1           0       -4.126165    4.707344    0.363999
     62          1           0       -5.611681    3.439127   -0.014967
     63          1           0       -4.570746    3.836541   -1.448169
     64          1           0       -1.959846    4.956859   -0.673299
     65          1           0        7.741735   -2.672180   -0.995835
     66          1           0        6.922952   -3.915510   -2.022293
     67          1           0        6.908540   -4.066080    0.089602
     68          1           0        6.781185   -0.759803   -0.373294
     69          1           0        4.797598    1.298817    0.563755
     70          1           0        6.265339    0.804258    1.490881
     71          1           0        4.426552    0.229515    1.592868
     72          1           0        3.298094    6.398937   -1.165450
     73          1           0        4.033681    4.684137   -1.234734
     74          1           0       -0.312163    6.439815   -1.718392
     75          1           0        1.047348    7.441192   -0.928078
     76          1           0       -0.444310    7.064980    0.128251
     77          1           0        4.198030    6.161821    1.786473
     78          1           0        5.450973    6.157403    0.485396
     79          1           0        4.734776    4.632683    1.217269
     80          1           0       -3.308563   -4.580318   -2.110890
     81          1           0       -7.801368   -2.081413   -1.839246
 ---------------------------------------------------------------------

 SCF Done:  E(RB3LYP) =  -1949.03748239     A.U. after   17 cycles

 Excitation energies and oscillator strengths:

 Excited State   1:      Singlet-A      1.7734 eV  699.13 nm  f=0.3656  <S**2>=0.000
     156 ->157         0.71372
     156 <-157        -0.14344
 This state for optimization and/or second-order correction.
 Total Energy, E(TD-HF/TD-DFT) =  -1948.97231047
 Copying the excited state density for this state as the 1-particle RhoCI density.

 The electronic state is 1-A.
 Alpha  occ. eigenvalues --  -19.17211 -19.17022 -19.13431 -19.13367 -19.12031
 Alpha  occ. eigenvalues --  -19.10875 -14.39411 -14.36442 -14.34888 -14.30525
 Alpha  occ. eigenvalues --  -10.31868 -10.31604 -10.29373 -10.27990 -10.25249
 Alpha  occ. eigenvalues --  -10.24281 -10.23088 -10.22987 -10.22428 -10.22127
 Alpha  occ. eigenvalues --  -10.21989 -10.21976 -10.21831 -10.21362 -10.21271
 Alpha  occ. eigenvalues --  -10.21177 -10.20941 -10.20824 -10.20787 -10.20571
 Alpha  occ. eigenvalues --  -10.20439 -10.20380 -10.20280 -10.19877 -10.19814
 Alpha  occ. eigenvalues --  -10.19810 -10.19809 -10.19463 -10.19285 -10.18752
 Alpha  occ. eigenvalues --  -10.18594 -10.18171 -10.17418  -1.13405  -1.09326
 Alpha  occ. eigenvalues --   -1.06426  -1.02242  -1.01325  -0.99275  -0.98200
 Alpha  occ. eigenvalues --   -0.97350  -0.95179  -0.92515  -0.83481  -0.81830
 Alpha  occ. eigenvalues --   -0.80961  -0.80365  -0.79773  -0.78882  -0.77807
 Alpha  occ. eigenvalues --   -0.76967  -0.76106  -0.74540  -0.73834  -0.71340
 Alpha  occ. eigenvalues --   -0.70164  -0.69548  -0.68372  -0.67670  -0.67009
 Alpha  occ. eigenvalues --   -0.66595  -0.65218  -0.64280  -0.62303  -0.61620
 Alpha  occ. eigenvalues --   -0.61008  -0.58926  -0.58238  -0.56833  -0.56342
 Alpha  occ. eigenvalues --   -0.55352  -0.54499  -0.54403  -0.53695  -0.52671
 Alpha  occ. eigenvalues --   -0.52274  -0.51715  -0.51071  -0.50166  -0.49827
 Alpha  occ. eigenvalues --   -0.49497  -0.48982  -0.48532  -0.48196  -0.47774
 Alpha  occ. eigenvalues --   -0.47218  -0.46498  -0.45956  -0.45730  -0.45357
 Alpha  occ. eigenvalues --   -0.44759  -0.44426  -0.44186  -0.43930  -0.43775
 Alpha  occ. eigenvalues --   -0.43158  -0.43069  -0.42733  -0.42249  -0.41873
 Alpha  occ. eigenvalues --   -0.41574  -0.41053  -0.40855  -0.40662  -0.40334
 Alpha  occ. eigenvalues --   -0.39900  -0.39732  -0.39626  -0.39283  -0.39085
 Alpha  occ. eigenvalues --   -0.38830  -0.38662  -0.38586  -0.38162  -0.37964
 Alpha  occ. eigenvalues --   -0.37947  -0.37515  -0.37226  -0.36794  -0.36734
 Alpha  occ. eigenvalues --   -0.36423  -0.35766  -0.35432  -0.35226  -0.34967
 Alpha  occ. eigenvalues --   -0.34353  -0.33644  -0.33363  -0.33101  -0.32638
 Alpha  occ. eigenvalues --   -0.32431  -0.32094  -0.31928  -0.29634  -0.29171
 Alpha  occ. eigenvalues --   -0.28942  -0.28736  -0.27239  -0.25893  -0.25279
 Alpha  occ. eigenvalues --   -0.25005  -0.24557  -0.24260  -0.22996  -0.21664
 Alpha  occ. eigenvalues --   -0.16481
 Alpha virt. eigenvalues --   -0.09688  -0.05973  -0.03682   0.00015   0.00525
 Alpha virt. eigenvalues --    0.02316   0.02467   0.02668   0.03375   0.03696
 Alpha virt. eigenvalues --    0.03819   0.04006   0.04452   0.05216   0.05388

 Mulliken charges:
               1
     1  O   -0.149551
     2  O   -0.238640
     3  O   -0.219708
     4  O   -0.106068
     5  O   -0.179479
     6  O   -0.265925
     7  N   -0.123455
     8  N   -0.136422
     9  N   -0.140219
    10  N   -0.284791
    11  C   -0.037414
    12  C    0.067316
    13  C   -0.092851
    14  C    0.028645
    15  C   -0.122609
    16  C    0.038569
    17  C   -0.098150
    18  C   -0.146548
    19  C    0.146619
    20  C   -0.076523
    21  C    0.118614
    22  C    0.052786
    23  C   -0.093068
    24  C    0.141896
    25  C   -0.188615
    26  C   -0.056740
    27  C    0.080408
    28  C    0.068409
    29  C    0.001001
    30  C    0.061169
    31  C   -0.137833
    32  C   -0.023665
    33  C   -0.062171
    34  C    0.023414
    35  C   -0.082021
    36  C   -0.158070
    37  C    0.035244
    38  C    0.104656
    39  C    0.137670
    40  C    0.056450
    41  C    0.201963
    42  C    0.035509
    43  C   -0.079778
    44  H    0.213127
    45  H    0.036355
    46  H    0.044957
    47  H   -0.056676
    48  H    0.079947
    49  H    0.014263
    50  H   -0.022344
    51  H    0.073920
    52  H    0.203479
    53  H    0.038680
    54  H    0.057411
    55  H    0.050595
    56  H    0.129221
    57  H   -0.018181
    58  H    0.010369
    59  H    0.060640
    60  H    0.045267
    61  H    0.066899
    62  H    0.020259
    63  H    0.044123
    64  H   -0.011550
    65  H    0.034736
    66  H    0.044171
    67  H    0.066211
    68  H   -0.039593
    69  H    0.043492
    70  H    0.009478
    71  H    0.033721
    72  H    0.008089
    73  H    0.049726
    74  H    0.045591
    75  H    0.006535
    76  H    0.056009
    77  H    0.023100
    78  H    0.017620
    79  H    0.044572
    80  H    0.211146
    81  H    0.164613
 Sum of Mulliken charges =  -0.00000

 Dipole moment (field-independent basis, Debye):
    X=             -1.4306    Y=             -1.0202    Z=             -1.3944  Tot=              2.2431
 Quadrupole moment (field-independent basis, Debye-Ang):
   XX=           -254.4735   YY=           -240.3778   ZZ=           -252.4865
   XY=             17.5779   XZ=             11.5643   YZ=            -11.4738

 Normal termination of Gaussian 16 at Wed Jul  3 17:08:37 2019.
