 Gaussian 16, Revision A.03,
 Gaussian 16:  ES64L-G16RevA.03 25-Dec-2016

 --------------------------
 # td=(NStates=1) B3LYP/SVP
 --------------------------

 --
 TD
 --
 Symbolic Z-matrix:
 Charge =  0 Multiplicity = 1

                         Standard orientation:
 ---------------------------------------------------------------------
 Center     Atomic      Atomic             Coordinates (Angstroms)
 Number     Number       Type             X           Y           Z
 ---------------------------------------------------------------------
      1          8           0       -4.214018   -4.626438    2.071511
      2          8           0        2.789409   -4.609307    1.407092
      3          8           0        7.153255   -1.205859    2.015630
      4          8           0        3.832068   -3.208411    0.020776
      5          8           0        7.643902   -0.463555   -0.143964
      6          8           0       -2.969387    2.373428   -0.284881
      7          7           0       -0.241472   -0.652382   -0.706321
      8          7           0        1.495682    1.761500   -0.415858
      9          7           0       -3.342346   -3.196234    0.472718
     10          7           0       -0.796163    2.895205   -0.108488
     11          6           0        0.646944   -2.477239   -1.511702
     12          6           0        0.901833   -1.168300   -0.979561
     13          6           0       -0.706441   -2.738039   -1.391636
     14          6           0       -1.281302   -1.495222   -0.816516
     15          6           0        3.724733    1.448256   -0.362398
     16          6           0        2.416164    0.784338   -0.703303
     17          6           0        2.170103   -0.509538   -0.885324
     18          6           0        3.505183    2.780951    0.023770
     19          6           0        1.661817   -3.501767   -1.869782
     20          6           0       -5.429199   -2.633486    1.484302
     21          6           0       -3.619510   -1.916421    0.093040
     22          6           0        2.075807    2.971764   -0.026087
     23          6           0       -5.052249   -1.571865    0.460692
     24          6           0        5.013312    0.733567   -0.428068
     25          6           0       -2.637560   -1.099765   -0.526709
     26          6           0       -1.451612   -3.921843   -1.852657
     27          6           0       -4.292235   -3.678994    1.375112
     28          6           0        2.071659   -4.551249   -0.914561
     29          6           0        5.446325   -0.084577    0.758979
     30          6           0        4.614165    3.716754    0.480032
     31          6           0        1.278138    4.079368    0.240918
     32          6           0       -6.798671   -3.338150    1.217086
     33          6           0       -5.756888   -0.512964   -0.102596
     34          6           0       -0.129987    4.004423    0.204631
     35          6           0       -1.145955    5.147085    0.468301
     36          6           0       -2.298732    4.582375    0.323419
     37          6           0        2.958561   -3.998905    0.161469
     38          6           0       -5.531761    0.579117   -1.063291
     39          6           0        6.871914   -0.598362    0.819729
     40          6           0       -3.648305    5.241352    0.484441
     41          6           0       -2.054709    3.216211   -0.052139
     42          6           0       -0.714679    6.580017    0.743008
     43          6           0       -4.309533    5.649074   -0.806713
     44          1           0       -0.414600    0.142192    0.074486
     45          1           0        2.941286   -1.051192   -1.128087
     46          1           0        2.655762   -3.140049   -2.220388
     47          1           0        0.993266   -3.860441   -2.750984
     48          1           0       -5.486665   -2.531317    2.558073
     49          1           0        5.092390    0.045692   -1.341682
     50          1           0        5.766080    1.651459   -0.704766
     51          1           0       -2.832067    0.018752   -0.912464
     52          1           0        0.383171    1.849225   -0.650643
     53          1           0       -1.478204   -4.929286   -1.297022
     54          1           0       -2.563281   -3.489349   -2.146912
     55          1           0       -1.080684   -4.098602   -2.957583
     56          1           0       -2.258478   -3.592208    0.243500
     57          1           0        1.117431   -4.987409   -0.425461
     58          1           0        2.416605   -5.467796   -1.435433
     59          1           0        4.577831   -0.760421    0.885087
     60          1           0        5.583611    0.581240    1.655781
     61          1           0        4.515809    4.575010   -0.157138
     62          1           0        5.442977    3.126220    0.264731
     63          1           0        4.408740    4.019468    1.505629
     64          1           0        1.765452    4.938948    0.756485
     65          1           0       -7.567692   -2.523547    1.468348
     66          1           0       -6.923258   -4.178735    1.742955
     67          1           0       -6.896707   -3.487063    0.084988
     68          1           0       -6.663697   -0.501627    0.377657
     69          1           0       -4.862760    1.574629   -0.691241
     70          1           0       -6.555425    1.136618   -1.290007
     71          1           0       -4.959328    0.158318   -1.959337
     72          1           0       -3.787565    6.205866    1.219719
     73          1           0       -4.417803    4.223426    0.715248
     74          1           0        0.055778    6.739731    1.706630
     75          1           0       -1.658519    7.000106    0.986387
     76          1           0        0.057775    6.981782   -0.175973
     77          1           0       -3.701596    6.264667   -1.492290
     78          1           0       -5.264526    6.126750   -0.831188
     79          1           0       -4.514824    4.580293   -1.471780
     80          1           0        3.330500   -4.070987    2.156048
     81          1           0        8.107488   -1.313628    1.979636
 ---------------------------------------------------------------------

 SCF Done:  E(RB3LYP) =  -1949.05364530     A.U. after   16 cycles

 Excitation energies and oscillator strengths:

 Excited State   1:      Singlet-A      1.8139 eV  683.53 nm  f=0.3155  <S**2>=0.000
     156 ->157         0.70629
     156 <-157        -0.10659
 This state for optimization and/or second-order correction.
 Total Energy, E(TD-HF/TD-DFT) =  -1948.98698621
 Copying the excited state density for this state as the 1-particle RhoCI density.

 The electronic state is 1-A.
 Alpha  occ. eigenvalues --  -19.19560 -19.18460 -19.14608 -19.13323 -19.11241
 Alpha  occ. eigenvalues --  -19.09237 -14.38605 -14.37503 -14.35361 -14.29392
 Alpha  occ. eigenvalues --  -10.33430 -10.33151 -10.28913 -10.25686 -10.24436
 Alpha  occ. eigenvalues --  -10.24189 -10.23463 -10.23263 -10.22808 -10.22482
 Alpha  occ. eigenvalues --  -10.22321 -10.22267 -10.22234 -10.21640 -10.21267
 Alpha  occ. eigenvalues --  -10.21155 -10.20983 -10.20970 -10.20842 -10.20607
 Alpha  occ. eigenvalues --  -10.20423 -10.19967 -10.19925 -10.19853 -10.19784
 Alpha  occ. eigenvalues --  -10.19663 -10.19618 -10.19519 -10.19260 -10.19191
 Alpha  occ. eigenvalues --  -10.18777 -10.18639 -10.18419  -1.09846  -1.09630
 Alpha  occ. eigenvalues --   -1.05205  -1.01174  -1.00719  -1.00400  -1.00366
 Alpha  occ. eigenvalues --   -0.96501  -0.95282  -0.93147  -0.83427  -0.82429
 Alpha  occ. eigenvalues --   -0.81954  -0.81008  -0.80607  -0.79034  -0.78094
 Alpha  occ. eigenvalues --   -0.77449  -0.76356  -0.74892  -0.74115  -0.72108
 Alpha  occ. eigenvalues --   -0.71540  -0.69800  -0.69262  -0.68140  -0.67897
 Alpha  occ. eigenvalues --   -0.67543  -0.65508  -0.63594  -0.61750  -0.60908
 Alpha  occ. eigenvalues --   -0.59922  -0.59533  -0.59241  -0.57647  -0.56493
 Alpha  occ. eigenvalues --   -0.55454  -0.54667  -0.54355  -0.53614  -0.52568
 Alpha  occ. eigenvalues --   -0.52496  -0.52362  -0.51460  -0.50778  -0.49670
 Alpha  occ. eigenvalues --   -0.49046  -0.48873  -0.48691  -0.48462  -0.47926
 Alpha  occ. eigenvalues --   -0.47262  -0.47030  -0.46795  -0.46152  -0.45278
 Alpha  occ. eigenvalues --   -0.44883  -0.44621  -0.44468  -0.43979  -0.43675
 Alpha  occ. eigenvalues --   -0.43571  -0.43382  -0.42722  -0.42392  -0.42077
 Alpha  occ. eigenvalues --   -0.42041  -0.41869  -0.41581  -0.41460  -0.41308
 Alpha  occ. eigenvalues --   -0.40905  -0.40792  -0.40623  -0.40477  -0.40308
 Alpha  occ. eigenvalues --   -0.39660  -0.39374  -0.38818  -0.38424  -0.38065
 Alpha  occ. eigenvalues --   -0.37820  -0.37743  -0.36578  -0.36365  -0.36139
 Alpha  occ. eigenvalues --   -0.36069  -0.35365  -0.34988  -0.34865  -0.34171
 Alpha  occ. eigenvalues --   -0.33845  -0.33306  -0.33002  -0.32900  -0.32756
 Alpha  occ. eigenvalues --   -0.32620  -0.32202  -0.30509  -0.29839  -0.29477
 Alpha  occ. eigenvalues --   -0.28147  -0.27658  -0.26671  -0.25983  -0.25743
 Alpha  occ. eigenvalues --   -0.25361  -0.24828  -0.24315  -0.24116  -0.21571
 Alpha  occ. eigenvalues --   -0.17693
 Alpha virt. eigenvalues --   -0.10370  -0.05578  -0.03807  -0.02122  -0.00821
 Alpha virt. eigenvalues --    0.00256   0.01315   0.02023   0.02487   0.02706
 Alpha virt. eigenvalues --    0.03326   0.04007   0.04503   0.04914   0.05411

 Mulliken charges:
               1
     1  O   -0.168163
     2  O   -0.271270
     3  O   -0.183413
     4  O   -0.191462
     5  O   -0.245779
     6  O   -0.263275
     7  N    0.002237
     8  N   -0.193793
     9  N   -0.174280
    10  N   -0.191172
    11  C   -0.097733
    12  C   -0.002402
    13  C   -0.145676
    14  C   -0.013674
    15  C   -0.092129
    16  C    0.114443
    17  C    0.049107
    18  C   -0.172872
    19  C    0.028015
    20  C   -0.070134
    21  C    0.052815
    22  C    0.099496
    23  C   -0.005725
    24  C   -0.024279
    25  C   -0.176991
    26  C   -0.057447
    27  C    0.114881
    28  C    0.051982
    29  C    0.029770
    30  C    0.208149
    31  C   -0.132087
    32  C    0.046895
    33  C   -0.049477
    34  C    0.047488
    35  C   -0.074412
    36  C   -0.097332
    37  C    0.146722
    38  C   -0.034708
    39  C    0.164896
    40  C   -0.043115
    41  C    0.100009
    42  C    0.021571
    43  C   -0.042562
    44  H    0.198814
    45  H   -0.106225
    46  H    0.022457
    47  H    0.018235
    48  H    0.032090
    49  H    0.039556
    50  H    0.036840
    51  H    0.079493
    52  H    0.200349
    53  H    0.068269
    54  H    0.060437
    55  H    0.043800
    56  H    0.198488
    57  H    0.021042
    58  H    0.056094
    59  H    0.055354
    60  H    0.025138
    61  H    0.015241
    62  H   -0.013072
    63  H    0.028068
    64  H   -0.016540
    65  H    0.026191
    66  H    0.006665
    67  H    0.019686
    68  H   -0.041299
    69  H    0.123426
    70  H    0.026230
    71  H    0.043407
    72  H    0.043590
    73  H    0.050818
    74  H    0.042077
    75  H    0.017165
    76  H    0.064609
    77  H    0.003626
    78  H    0.011559
    79  H    0.029372
    80  H    0.229681
    81  H    0.176160
 Sum of Mulliken charges =  -0.00000

 Dipole moment (field-independent basis, Debye):
    X=              2.4528    Y=              1.2457    Z=              1.0734  Tot=              2.9530
 Quadrupole moment (field-independent basis, Debye-Ang):
   XX=           -254.8000   YY=           -241.3063   ZZ=           -254.7874
   XY=             -6.8831   XZ=             18.9124   YZ=             15.2102

 Normal termination of Gaussian 16 at Sat Jun 29 07:41:08 2019.
