 Gaussian 16, Revision A.03,
 Gaussian 16:  ES64L-G16RevA.03 25-Dec-2016

 --------------------------
 # td=(NStates=1) B3LYP/SVP
 --------------------------

 --
 TD
 --
 Symbolic Z-matrix:
 Charge =  0 Multiplicity = 1

                         Standard orientation:
 ---------------------------------------------------------------------
 Center     Atomic      Atomic             Coordinates (Angstroms)
 Number     Number       Type             X           Y           Z
 ---------------------------------------------------------------------
      1          8           0       -4.376468   -4.664351    2.112673
      2          8           0        2.688638   -4.628610    1.345658
      3          8           0        6.856442   -1.417250    2.059020
      4          8           0        3.836184   -3.231333   -0.043474
      5          8           0        7.662352   -0.635160    0.174048
      6          8           0       -3.032843    2.276648   -0.188549
      7          7           0       -0.208908   -0.457832   -0.564157
      8          7           0        1.550682    1.845753   -0.523270
      9          7           0       -3.341781   -3.126112    0.671805
     10          7           0       -0.797050    2.888761   -0.053364
     11          6           0        0.696345   -2.424519   -1.510544
     12          6           0        1.000004   -1.155364   -1.024895
     13          6           0       -0.734035   -2.575152   -1.391993
     14          6           0       -1.320435   -1.432561   -0.686623
     15          6           0        3.762050    1.517385   -0.368275
     16          6           0        2.504400    0.822722   -0.617145
     17          6           0        2.290810   -0.554679   -0.968929
     18          6           0        3.532588    2.802001   -0.005828
     19          6           0        1.607517   -3.485980   -2.026462
     20          6           0       -5.524301   -2.564328    1.388491
     21          6           0       -3.550601   -1.906645    0.056297
     22          6           0        2.076198    3.020360   -0.088377
     23          6           0       -4.963144   -1.493071    0.401181
     24          6           0        5.125396    0.730284   -0.279486
     25          6           0       -2.626830   -1.066756   -0.473556
     26          6           0       -1.435061   -3.815351   -1.760129
     27          6           0       -4.402150   -3.654308    1.391691
     28          6           0        2.153205   -4.492649   -1.034992
     29          6           0        5.341931   -0.127604    0.841570
     30          6           0        4.560707    3.897384    0.250796
     31          6           0        1.288528    4.074450    0.243672
     32          6           0       -6.836242   -3.143525    1.037087
     33          6           0       -5.762605   -0.550391   -0.035554
     34          6           0       -0.121390    4.051749    0.156285
     35          6           0       -1.052248    5.106708    0.444306
     36          6           0       -2.276178    4.599966    0.251164
     37          6           0        2.974943   -4.112976    0.105339
     38          6           0       -5.348217    0.388107   -1.335789
     39          6           0        6.770779   -0.691069    0.909826
     40          6           0       -3.717754    5.225649    0.561078
     41          6           0       -2.151503    3.160309   -0.101006
     42          6           0       -0.566730    6.499151    0.832001
     43          6           0       -4.319699    5.493380   -0.769959
     44          1           0       -0.367896    0.529480   -0.211985
     45          1           0        3.119311   -1.326039   -1.133731
     46          1           0        2.327517   -3.065360   -2.441125
     47          1           0        1.134796   -4.012260   -2.859831
     48          1           0       -5.399395   -2.223694    2.470953
     49          1           0        5.263783    0.174943   -1.414151
     50          1           0        6.055185    1.517835   -0.355052
     51          1           0       -2.762801    0.136937   -0.454561
     52          1           0        0.526685    1.945903   -0.527621
     53          1           0       -1.572763   -4.616874   -0.862667
     54          1           0       -2.369252   -3.706260   -2.127919
     55          1           0       -0.971710   -4.499366   -2.666846
     56          1           0       -2.423049   -3.487158    0.891563
     57          1           0        1.192232   -5.170031   -0.719086
     58          1           0        2.835878   -5.303024   -1.586142
     59          1           0        4.483092   -0.903379    0.746765
     60          1           0        5.081881    0.494621    1.846038
     61          1           0        4.435427    4.658081   -0.642837
     62          1           0        5.623620    3.435381   -0.016615
     63          1           0        4.722522    4.417669    1.229933
     64          1           0        1.776563    5.180203    0.233340
     65          1           0       -7.778457   -2.408792    1.353028
     66          1           0       -7.064808   -3.988762    1.670528
     67          1           0       -7.066588   -3.508586   -0.115755
     68          1           0       -6.975350   -0.450460    0.287782
     69          1           0       -4.806919    1.356764   -1.209374
     70          1           0       -6.303041    0.461674   -1.896928
     71          1           0       -4.565573   -0.193938   -1.743427
     72          1           0       -3.490023    6.383942    1.109901
     73          1           0       -4.289103    4.712585    1.156229
     74          1           0        0.164444    6.360803    1.594450
     75          1           0       -1.413588    6.922140    1.318369
     76          1           0       -0.266038    7.067914   -0.117749
     77          1           0       -3.792610    6.446278   -1.344336
     78          1           0       -5.376207    5.697428   -0.558135
     79          1           0       -4.193129    4.590077   -1.455307
     80          1           0        3.313867   -4.201221    1.864303
     81          1           0        7.838784   -1.935059    1.948456
 ---------------------------------------------------------------------

 SCF Done:  E(RB3LYP) =  -1949.04765519     A.U. after   17 cycles

 Excitation energies and oscillator strengths:

 Excited State   1:      Singlet-A      1.7730 eV  699.30 nm  f=0.3482  <S**2>=0.000
     156 ->157         0.71116
     156 <-157        -0.12988
 This state for optimization and/or second-order correction.
 Total Energy, E(TD-HF/TD-DFT) =  -1948.98249966
 Copying the excited state density for this state as the 1-particle RhoCI density.

 The electronic state is 1-A.
 Alpha  occ. eigenvalues --  -19.20125 -19.17645 -19.14605 -19.13466 -19.11729
 Alpha  occ. eigenvalues --  -19.10906 -14.38366 -14.37497 -14.36009 -14.28850
 Alpha  occ. eigenvalues --  -10.34396 -10.31722 -10.29865 -10.26800 -10.25465
 Alpha  occ. eigenvalues --  -10.24524 -10.24339 -10.24040 -10.23919 -10.23845
 Alpha  occ. eigenvalues --  -10.22762 -10.22747 -10.22025 -10.21472 -10.21462
 Alpha  occ. eigenvalues --  -10.21277 -10.21078 -10.20860 -10.20859 -10.20636
 Alpha  occ. eigenvalues --  -10.20610 -10.20544 -10.20525 -10.20331 -10.19962
 Alpha  occ. eigenvalues --  -10.19913 -10.19878 -10.19521 -10.19480 -10.19444
 Alpha  occ. eigenvalues --  -10.19243 -10.18933 -10.17632  -1.11676  -1.10398
 Alpha  occ. eigenvalues --   -1.02904  -1.01903  -1.00543  -1.00238  -0.98245
 Alpha  occ. eigenvalues --   -0.95992  -0.93670  -0.92256  -0.83485  -0.82237
 Alpha  occ. eigenvalues --   -0.81444  -0.81052  -0.79559  -0.79042  -0.78221
 Alpha  occ. eigenvalues --   -0.77772  -0.76683  -0.75640  -0.73871  -0.72733
 Alpha  occ. eigenvalues --   -0.70731  -0.69771  -0.69156  -0.68767  -0.67003
 Alpha  occ. eigenvalues --   -0.66181  -0.65171  -0.64532  -0.62869  -0.61474
 Alpha  occ. eigenvalues --   -0.60041  -0.59164  -0.58055  -0.57672  -0.56897
 Alpha  occ. eigenvalues --   -0.55622  -0.55396  -0.54156  -0.53464  -0.52552
 Alpha  occ. eigenvalues --   -0.52331  -0.52076  -0.50881  -0.50525  -0.50083
 Alpha  occ. eigenvalues --   -0.49558  -0.49037  -0.48638  -0.48246  -0.47679
 Alpha  occ. eigenvalues --   -0.47244  -0.46848  -0.46071  -0.45574  -0.44956
 Alpha  occ. eigenvalues --   -0.44620  -0.44310  -0.44175  -0.44036  -0.43593
 Alpha  occ. eigenvalues --   -0.43205  -0.43030  -0.42931  -0.42658  -0.42227
 Alpha  occ. eigenvalues --   -0.42078  -0.41443  -0.41201  -0.40930  -0.40784
 Alpha  occ. eigenvalues --   -0.40601  -0.40420  -0.39860  -0.39519  -0.39321
 Alpha  occ. eigenvalues --   -0.39205  -0.38976  -0.38765  -0.38568  -0.38094
 Alpha  occ. eigenvalues --   -0.37767  -0.37653  -0.37494  -0.37309  -0.36715
 Alpha  occ. eigenvalues --   -0.36394  -0.35345  -0.35129  -0.34739  -0.34479
 Alpha  occ. eigenvalues --   -0.34358  -0.33907  -0.33470  -0.33304  -0.32665
 Alpha  occ. eigenvalues --   -0.31525  -0.31178  -0.30960  -0.30012  -0.29802
 Alpha  occ. eigenvalues --   -0.29007  -0.27849  -0.27083  -0.26764  -0.26019
 Alpha  occ. eigenvalues --   -0.25600  -0.25071  -0.24852  -0.23746  -0.22144
 Alpha  occ. eigenvalues --   -0.18146
 Alpha virt. eigenvalues --   -0.11206  -0.06733  -0.04158  -0.03474  -0.00644
 Alpha virt. eigenvalues --    0.00550   0.01649   0.01901   0.02378   0.03567
 Alpha virt. eigenvalues --    0.03947   0.04404   0.04701   0.04876   0.05242

 Mulliken charges:
               1
     1  O   -0.234714
     2  O   -0.140494
     3  O   -0.270807
     4  O   -0.265481
     5  O   -0.161652
     6  O   -0.246845
     7  N   -0.235920
     8  N   -0.085054
     9  N   -0.101490
    10  N   -0.337740
    11  C   -0.123512
    12  C    0.098089
    13  C   -0.119462
    14  C    0.103995
    15  C   -0.044311
    16  C    0.104925
    17  C   -0.076480
    18  C   -0.091143
    19  C    0.294616
    20  C   -0.058011
    21  C    0.129243
    22  C    0.058099
    23  C    0.017627
    24  C   -0.053685
    25  C   -0.172817
    26  C    0.031734
    27  C    0.117811
    28  C   -0.045958
    29  C   -0.030414
    30  C    0.011024
    31  C   -0.127085
    32  C   -0.013800
    33  C   -0.200118
    34  C    0.056650
    35  C   -0.135007
    36  C   -0.180759
    37  C    0.155510
    38  C    0.011609
    39  C    0.154534
    40  C    0.096182
    41  C    0.184616
    42  C    0.163967
    43  C   -0.038735
    44  H    0.163940
    45  H    0.051220
    46  H   -0.078947
    47  H   -0.003391
    48  H    0.062456
    49  H    0.041261
    50  H    0.027578
    51  H    0.107979
    52  H    0.124536
    53  H    0.031758
    54  H   -0.007152
    55  H    0.022700
    56  H    0.139486
    57  H    0.043793
    58  H    0.067291
    59  H    0.069894
    60  H    0.056434
    61  H    0.041600
    62  H    0.018917
    63  H    0.047356
    64  H    0.026286
    65  H    0.024223
    66  H    0.024619
    67  H    0.046280
    68  H    0.045548
    69  H    0.069902
    70  H    0.019731
    71  H    0.006146
    72  H    0.011428
    73  H   -0.022189
    74  H    0.014061
    75  H   -0.009636
    76  H    0.053133
    77  H    0.027382
    78  H    0.011450
    79  H    0.043656
    80  H    0.156325
    81  H    0.224210
 Sum of Mulliken charges =  -0.00000

 Dipole moment (field-independent basis, Debye):
    X=              2.3342    Y=              0.2278    Z=             -0.4718  Tot=              2.3922
 Quadrupole moment (field-independent basis, Debye-Ang):
   XX=           -258.9357   YY=           -238.1963   ZZ=           -256.0828
   XY=            -14.1294   XZ=             11.8476   YZ=             15.5526

 Normal termination of Gaussian 16 at Fri Jun 28 04:36:22 2019.
