 Gaussian 16, Revision A.03,
 Gaussian 16:  ES64L-G16RevA.03 25-Dec-2016

 --------------------------
 # td=(NStates=1) B3LYP/SVP
 --------------------------

 --
 TD
 --
 Symbolic Z-matrix:
 Charge =  0 Multiplicity = 1

                         Standard orientation:
 ---------------------------------------------------------------------
 Center     Atomic      Atomic             Coordinates (Angstroms)
 Number     Number       Type             X           Y           Z
 ---------------------------------------------------------------------
      1          8           0        4.347444   -5.005086   -1.776879
      2          8           0       -3.070652   -4.808047   -1.201022
      3          8           0       -7.173058   -1.596874   -1.700189
      4          8           0       -3.906501   -3.065854   -0.138674
      5          8           0       -7.615852   -0.420838    0.273581
      6          8           0        3.088326    2.352188    0.149069
      7          7           0        0.243429   -0.495691    0.513537
      8          7           0       -1.487330    1.828327    0.392816
      9          7           0        3.340177   -3.353058   -0.625143
     10          7           0        0.837518    2.907827   -0.054109
     11          6           0       -0.721724   -2.325365    1.299045
     12          6           0       -0.974548   -1.066145    0.832777
     13          6           0        0.676323   -2.617728    1.206604
     14          6           0        1.307153   -1.408577    0.662574
     15          6           0       -3.855810    1.611562    0.148801
     16          6           0       -2.550328    0.896140    0.382246
     17          6           0       -2.315174   -0.418285    0.726851
     18          6           0       -3.464622    2.868955   -0.091163
     19          6           0       -1.782356   -3.277275    1.900160
     20          6           0        5.542945   -2.760718   -1.370960
     21          6           0        3.569292   -2.066591   -0.216611
     22          6           0       -2.044631    3.104348    0.040150
     23          6           0        5.008587   -1.703214   -0.434099
     24          6           0       -5.134441    0.849279    0.312046
     25          6           0        2.658057   -1.119423    0.305732
     26          6           0        1.509405   -3.710129    1.982904
     27          6           0        4.421850   -3.880801   -1.317412
     28          6           0       -2.266621   -4.433485    0.971961
     29          6           0       -5.445908   -0.113188   -0.827560
     30          6           0       -4.470986    3.972906   -0.360940
     31          6           0       -1.132303    4.203900   -0.198051
     32          6           0        6.988411   -3.352634   -1.045470
     33          6           0        5.803055   -0.837789    0.364340
     34          6           0        0.293598    4.055240   -0.256620
     35          6           0        1.326671    5.176877   -0.479809
     36          6           0        2.463909    4.626356   -0.386346
     37          6           0       -3.160655   -3.926402   -0.166551
     38          6           0        5.378936    0.178569    1.270547
     39          6           0       -6.890858   -0.713730   -0.681903
     40          6           0        3.746001    5.288897   -0.392920
     41          6           0        2.198692    3.158125    0.014388
     42          6           0        0.838877    6.594940   -0.755692
     43          6           0        4.346606    5.772554    0.877574
     44          1           0        0.294942    0.229527   -0.333328
     45          1           0       -3.126085   -1.093929    0.852453
     46          1           0       -2.543051   -2.818625    2.489439
     47          1           0       -1.341207   -3.936249    2.825965
     48          1           0        5.464492   -2.345837   -2.336837
     49          1           0       -5.454268    0.379488    1.315100
     50          1           0       -6.050667    1.464407    0.435707
     51          1           0        3.241475   -0.125456    0.378131
     52          1           0       -0.460962    1.993117    0.515371
     53          1           0        1.620404   -4.663724    1.301158
     54          1           0        2.488344   -3.484068    2.549829
     55          1           0        0.760915   -4.251823    2.578560
     56          1           0        2.508378   -4.021363   -0.609985
     57          1           0       -1.573389   -5.108946    0.490010
     58          1           0       -2.949569   -5.135166    1.673779
     59          1           0       -4.811308   -0.867302   -0.681368
     60          1           0       -5.252703    0.281105   -1.794650
     61          1           0       -4.109445    4.934501    0.083688
     62          1           0       -5.492010    3.602076   -0.102005
     63          1           0       -4.412593    4.377864   -1.320395
     64          1           0       -1.702671    5.232466   -0.424808
     65          1           0        7.619453   -2.342085   -1.071091
     66          1           0        7.106148   -4.106175   -1.800345
     67          1           0        6.914683   -3.547307    0.041357
     68          1           0        6.815234   -0.756179   -0.086172
     69          1           0        4.946388    0.965692    0.774742
     70          1           0        6.371848    0.534653    1.747318
     71          1           0        4.710129   -0.235302    2.104463
     72          1           0        3.585202    6.428328   -1.031358
     73          1           0        4.457422    4.883405   -0.931992
     74          1           0       -0.071936    6.566231   -1.520931
     75          1           0        1.537948    7.199976   -1.141440
     76          1           0        0.296381    6.884366    0.136084
     77          1           0        3.638106    6.486831    1.407781
     78          1           0        5.469785    6.137232    0.803645
     79          1           0        4.222325    5.017478    1.742326
     80          1           0       -3.661995   -4.429836   -1.819641
     81          1           0       -8.154778   -1.948125   -1.576955
 ---------------------------------------------------------------------

 SCF Done:  E(RB3LYP) =  -1949.08822970     A.U. after   16 cycles

 Excitation energies and oscillator strengths:

 Excited State   1:      Singlet-A      1.8543 eV  668.62 nm  f=0.3587  <S**2>=0.000
     156 ->157         0.70760
     156 <-157        -0.10219
 This state for optimization and/or second-order correction.
 Total Energy, E(TD-HF/TD-DFT) =  -1949.02008399
 Copying the excited state density for this state as the 1-particle RhoCI density.

 The electronic state is 1-A.
 Alpha  occ. eigenvalues --  -19.19861 -19.18214 -19.14775 -19.13836 -19.11175
 Alpha  occ. eigenvalues --  -19.10931 -14.37215 -14.37147 -14.35292 -14.29795
 Alpha  occ. eigenvalues --  -10.33283 -10.32387 -10.29003 -10.27255 -10.24707
 Alpha  occ. eigenvalues --  -10.24214 -10.23696 -10.23520 -10.23181 -10.22444
 Alpha  occ. eigenvalues --  -10.22087 -10.21837 -10.21246 -10.20886 -10.20871
 Alpha  occ. eigenvalues --  -10.20659 -10.20566 -10.20554 -10.20333 -10.20279
 Alpha  occ. eigenvalues --  -10.20029 -10.20021 -10.19937 -10.19617 -10.19538
 Alpha  occ. eigenvalues --  -10.19533 -10.19469 -10.19321 -10.19217 -10.19206
 Alpha  occ. eigenvalues --  -10.18890 -10.17851 -10.17833  -1.13319  -1.08093
 Alpha  occ. eigenvalues --   -1.04300  -1.03636  -1.02761  -1.00385  -0.96522
 Alpha  occ. eigenvalues --   -0.95630  -0.94670  -0.93954  -0.82499  -0.81701
 Alpha  occ. eigenvalues --   -0.81151  -0.80668  -0.79782  -0.78039  -0.77237
 Alpha  occ. eigenvalues --   -0.76287  -0.76000  -0.75610  -0.73905  -0.71870
 Alpha  occ. eigenvalues --   -0.70548  -0.69907  -0.68936  -0.67625  -0.67275
 Alpha  occ. eigenvalues --   -0.66688  -0.64639  -0.63699  -0.62055  -0.61583
 Alpha  occ. eigenvalues --   -0.59781  -0.59255  -0.58553  -0.57127  -0.56881
 Alpha  occ. eigenvalues --   -0.55680  -0.55073  -0.54224  -0.53695  -0.53208
 Alpha  occ. eigenvalues --   -0.52749  -0.51251  -0.50955  -0.50445  -0.50078
 Alpha  occ. eigenvalues --   -0.49084  -0.48960  -0.48524  -0.48388  -0.47762
 Alpha  occ. eigenvalues --   -0.47442  -0.46725  -0.46024  -0.45670  -0.45145
 Alpha  occ. eigenvalues --   -0.44449  -0.44135  -0.43674  -0.43581  -0.43436
 Alpha  occ. eigenvalues --   -0.43180  -0.43035  -0.42922  -0.42580  -0.42337
 Alpha  occ. eigenvalues --   -0.42037  -0.41685  -0.41469  -0.41384  -0.41166
 Alpha  occ. eigenvalues --   -0.40809  -0.40361  -0.39955  -0.39720  -0.39261
 Alpha  occ. eigenvalues --   -0.38998  -0.38943  -0.38794  -0.38481  -0.38132
 Alpha  occ. eigenvalues --   -0.38037  -0.37589  -0.37332  -0.36675  -0.36371
 Alpha  occ. eigenvalues --   -0.36156  -0.35932  -0.35601  -0.35261  -0.34901
 Alpha  occ. eigenvalues --   -0.34665  -0.34400  -0.33738  -0.33641  -0.33237
 Alpha  occ. eigenvalues --   -0.32570  -0.31889  -0.30227  -0.29880  -0.29320
 Alpha  occ. eigenvalues --   -0.28966  -0.28745  -0.26540  -0.26319  -0.25791
 Alpha  occ. eigenvalues --   -0.25178  -0.24823  -0.24498  -0.24064  -0.21100
 Alpha  occ. eigenvalues --   -0.17427
 Alpha virt. eigenvalues --   -0.09939  -0.05220  -0.03733  -0.00753  -0.00409
 Alpha virt. eigenvalues --    0.00126   0.01663   0.02272   0.03261   0.03370
 Alpha virt. eigenvalues --    0.03697   0.04470   0.05378   0.05490   0.05850

 Mulliken charges:
               1
     1  O   -0.215974
     2  O   -0.167648
     3  O   -0.238414
     4  O   -0.137457
     5  O   -0.246711
     6  O   -0.177574
     7  N   -0.127486
     8  N   -0.163733
     9  N   -0.111655
    10  N   -0.240916
    11  C   -0.065229
    12  C    0.030503
    13  C   -0.158525
    14  C    0.090365
    15  C    0.027030
    16  C    0.085179
    17  C   -0.029154
    18  C   -0.145415
    19  C    0.043593
    20  C   -0.076440
    21  C    0.031545
    22  C    0.060983
    23  C   -0.093360
    24  C    0.009924
    25  C   -0.111226
    26  C    0.077292
    27  C    0.094703
    28  C   -0.008174
    29  C    0.087909
    30  C    0.141075
    31  C   -0.128808
    32  C    0.062798
    33  C   -0.141604
    34  C    0.043435
    35  C   -0.060189
    36  C   -0.188721
    37  C    0.091694
    38  C    0.087826
    39  C    0.169745
    40  C    0.069785
    41  C    0.146892
    42  C    0.177580
    43  C   -0.022429
    44  H    0.186751
    45  H   -0.009381
    46  H    0.012783
    47  H    0.015658
    48  H    0.027775
    49  H    0.036015
    50  H   -0.004687
    51  H    0.045336
    52  H    0.153289
    53  H   -0.005448
    54  H    0.070837
    55  H   -0.017942
    56  H    0.163109
    57  H    0.026802
    58  H    0.059015
    59  H   -0.009775
    60  H    0.021075
    61  H    0.000011
    62  H    0.034883
    63  H   -0.013516
    64  H   -0.000239
    65  H    0.034262
    66  H    0.051476
    67  H    0.025436
    68  H    0.002228
    69  H    0.055161
    70  H    0.011581
    71  H    0.045541
    72  H   -0.003905
    73  H   -0.037025
    74  H    0.021844
    75  H   -0.014324
    76  H    0.019779
    77  H    0.000715
    78  H    0.043763
    79  H    0.010517
    80  H    0.147329
    81  H    0.220257
 Sum of Mulliken charges =  -0.00000

 Dipole moment (field-independent basis, Debye):
    X=             -3.1320    Y=              1.0289    Z=             -0.7793  Tot=              3.3875
 Quadrupole moment (field-independent basis, Debye-Ang):
   XX=           -243.0848   YY=           -245.4464   ZZ=           -253.7829
   XY=             20.7344   XZ=             15.7126   YZ=            -12.3364

 Normal termination of Gaussian 16 at Wed Jul  3 04:04:21 2019.
