 Gaussian 16, Revision A.03,
 Gaussian 16:  ES64L-G16RevA.03 25-Dec-2016

 --------------------------
 # td=(NStates=1) B3LYP/SVP
 --------------------------

 --
 TD
 --
 Symbolic Z-matrix:
 Charge =  0 Multiplicity = 1

                         Standard orientation:
 ---------------------------------------------------------------------
 Center     Atomic      Atomic             Coordinates (Angstroms)
 Number     Number       Type             X           Y           Z
 ---------------------------------------------------------------------
      1          8           0       -4.503330   -4.687408    1.926120
      2          8           0        3.014575   -4.896886    1.098682
      3          8           0        7.159160   -1.479387    1.728855
      4          8           0        3.613916   -3.025529    0.022314
      5          8           0        7.709588   -0.444420   -0.209708
      6          8           0       -2.976905    2.431717   -0.361990
      7          7           0       -0.286460   -0.606217   -0.522034
      8          7           0        1.591103    1.766473   -0.384905
      9          7           0       -3.337470   -3.038958    0.705027
     10          7           0       -0.667387    2.873704   -0.117261
     11          6           0        0.631060   -2.433567   -1.404192
     12          6           0        0.904091   -1.167817   -0.926295
     13          6           0       -0.753672   -2.669607   -1.203536
     14          6           0       -1.316876   -1.444764   -0.691371
     15          6           0        3.761293    1.403777   -0.224617
     16          6           0        2.460113    0.745311   -0.504428
     17          6           0        2.192902   -0.555850   -0.860092
     18          6           0        3.578369    2.712860    0.082329
     19          6           0        1.543764   -3.408421   -1.935659
     20          6           0       -5.674286   -2.508566    1.392079
     21          6           0       -3.543080   -1.802858    0.200206
     22          6           0        2.093112    2.953392    0.002058
     23          6           0       -5.131754   -1.493758    0.359995
     24          6           0        5.091686    0.594750   -0.310173
     25          6           0       -2.717155   -1.004111   -0.448596
     26          6           0       -1.604701   -3.859588   -1.570688
     27          6           0       -4.472221   -3.670737    1.307026
     28          6           0        2.085761   -4.525704   -0.995318
     29          6           0        5.486533   -0.174053    0.834238
     30          6           0        4.591500    3.811549    0.524701
     31          6           0        1.276141    4.047279    0.352776
     32          6           0       -6.960784   -3.200714    1.135466
     33          6           0       -5.919226   -0.592902   -0.179029
     34          6           0       -0.101117    3.993612    0.164693
     35          6           0       -1.022072    5.170657    0.494857
     36          6           0       -2.290731    4.689867    0.296018
     37          6           0        2.995400   -4.027431    0.077815
     38          6           0       -5.478946    0.436197   -1.255553
     39          6           0        6.847489   -0.686879    0.666411
     40          6           0       -3.561630    5.268279    0.411414
     41          6           0       -2.087889    3.237180   -0.073777
     42          6           0       -0.599377    6.524916    0.776821
     43          6           0       -4.020566    5.851640   -0.939871
     44          1           0       -0.430851    0.382777   -0.111526
     45          1           0        3.048829   -1.176860   -1.126311
     46          1           0        2.418452   -2.860718   -2.274641
     47          1           0        1.078864   -4.031802   -2.844259
     48          1           0       -5.500333   -2.147035    2.337418
     49          1           0        5.047700    0.033308   -1.286919
     50          1           0        5.913986    1.344159   -0.331652
     51          1           0       -3.032030    0.002824   -0.839254
     52          1           0        0.555695    1.558123   -0.533400
     53          1           0       -1.475102   -4.672039   -0.926992
     54          1           0       -2.554390   -3.646453   -1.824086
     55          1           0       -1.141044   -4.423453   -2.423544
     56          1           0       -2.319603   -3.434452    0.559324
     57          1           0        1.269303   -5.002088   -0.637703
     58          1           0        2.729140   -5.323433   -1.438619
     59          1           0        5.001200   -1.054606    1.236866
     60          1           0        5.303495    0.278799    1.641333
     61          1           0        4.294706    4.879533    0.079669
     62          1           0        5.469385    3.132476    0.120028
     63          1           0        4.684729    3.776871    1.664215
     64          1           0        1.768006    4.957245    0.724426
     65          1           0       -7.761244   -2.504026    1.125925
     66          1           0       -7.035249   -4.059707    1.856702
     67          1           0       -7.201111   -3.540335    0.148670
     68          1           0       -7.056051   -0.782252    0.119014
     69          1           0       -5.002664    1.333301   -0.537200
     70          1           0       -6.246152    0.923170   -1.771418
     71          1           0       -4.713003   -0.099635   -1.876225
     72          1           0       -3.566605    6.130801    1.107711
     73          1           0       -4.430446    4.399926    0.561329
     74          1           0        0.371832    6.399741    1.520812
     75          1           0       -1.415734    7.204013    1.471682
     76          1           0       -0.259516    6.993172   -0.093026
     77          1           0       -3.280130    6.612453   -1.356756
     78          1           0       -5.068034    6.427876   -0.877753
     79          1           0       -4.002705    5.111101   -1.679112
     80          1           0        3.543351   -4.624356    1.937592
     81          1           0        8.060014   -1.931766    1.843445
 ---------------------------------------------------------------------

 SCF Done:  E(RB3LYP) =  -1949.09261825     A.U. after   16 cycles

 Excitation energies and oscillator strengths:

 Excited State   1:      Singlet-A      2.0271 eV  611.62 nm  f=0.3482  <S**2>=0.000
     156 ->157         0.70426
     156 <-157        -0.10435
 This state for optimization and/or second-order correction.
 Total Energy, E(TD-HF/TD-DFT) =  -1949.01812188
 Copying the excited state density for this state as the 1-particle RhoCI density.

 The electronic state is 1-A.
 Alpha  occ. eigenvalues --  -19.19247 -19.17605 -19.13952 -19.12227 -19.12113
 Alpha  occ. eigenvalues --  -19.11159 -14.38154 -14.37359 -14.36155 -14.29334
 Alpha  occ. eigenvalues --  -10.32790 -10.32217 -10.29679 -10.27230 -10.24182
 Alpha  occ. eigenvalues --  -10.23665 -10.22874 -10.22609 -10.22466 -10.22338
 Alpha  occ. eigenvalues --  -10.22166 -10.21728 -10.20892 -10.20739 -10.20546
 Alpha  occ. eigenvalues --  -10.20542 -10.20389 -10.20342 -10.20297 -10.19858
 Alpha  occ. eigenvalues --  -10.19782 -10.19396 -10.19233 -10.19099 -10.18957
 Alpha  occ. eigenvalues --  -10.18806 -10.18744 -10.18613 -10.18567 -10.18484
 Alpha  occ. eigenvalues --  -10.18213 -10.18046 -10.17561  -1.10898  -1.07298
 Alpha  occ. eigenvalues --   -1.04590  -1.02589  -1.01249  -0.99207  -0.98265
 Alpha  occ. eigenvalues --   -0.98002  -0.94656  -0.92469  -0.83289  -0.82771
 Alpha  occ. eigenvalues --   -0.81749  -0.80803  -0.80477  -0.78771  -0.78296
 Alpha  occ. eigenvalues --   -0.77692  -0.76350  -0.75549  -0.73863  -0.72988
 Alpha  occ. eigenvalues --   -0.70965  -0.69310  -0.68873  -0.68303  -0.67861
 Alpha  occ. eigenvalues --   -0.67597  -0.64917  -0.63652  -0.62218  -0.61734
 Alpha  occ. eigenvalues --   -0.60979  -0.60486  -0.58707  -0.57912  -0.57527
 Alpha  occ. eigenvalues --   -0.56013  -0.55673  -0.54941  -0.53867  -0.52700
 Alpha  occ. eigenvalues --   -0.52400  -0.51504  -0.51016  -0.50209  -0.49889
 Alpha  occ. eigenvalues --   -0.49521  -0.48971  -0.48225  -0.47593  -0.47104
 Alpha  occ. eigenvalues --   -0.46817  -0.46547  -0.46340  -0.45675  -0.45421
 Alpha  occ. eigenvalues --   -0.45049  -0.44659  -0.44544  -0.44133  -0.43917
 Alpha  occ. eigenvalues --   -0.43820  -0.42497  -0.42431  -0.42283  -0.41991
 Alpha  occ. eigenvalues --   -0.41852  -0.41413  -0.41226  -0.41038  -0.40850
 Alpha  occ. eigenvalues --   -0.40765  -0.40503  -0.40333  -0.40002  -0.39744
 Alpha  occ. eigenvalues --   -0.39308  -0.39158  -0.38844  -0.38604  -0.37962
 Alpha  occ. eigenvalues --   -0.37575  -0.37493  -0.37146  -0.36960  -0.36520
 Alpha  occ. eigenvalues --   -0.36468  -0.36212  -0.35319  -0.35019  -0.34860
 Alpha  occ. eigenvalues --   -0.34325  -0.34205  -0.33979  -0.33800  -0.32804
 Alpha  occ. eigenvalues --   -0.32555  -0.31310  -0.30321  -0.29931  -0.29322
 Alpha  occ. eigenvalues --   -0.28626  -0.27579  -0.26392  -0.25773  -0.25418
 Alpha  occ. eigenvalues --   -0.24965  -0.24490  -0.24259  -0.23565  -0.21753
 Alpha  occ. eigenvalues --   -0.17719
 Alpha virt. eigenvalues --   -0.09617  -0.05066  -0.01695  -0.00371   0.00377
 Alpha virt. eigenvalues --    0.00564   0.02109   0.02812   0.03368   0.03559
 Alpha virt. eigenvalues --    0.03757   0.04119   0.04509   0.04900   0.05868

 Mulliken charges:
               1
     1  O   -0.176670
     2  O   -0.222451
     3  O   -0.246354
     4  O   -0.183775
     5  O   -0.259692
     6  O   -0.205818
     7  N   -0.075774
     8  N   -0.052483
     9  N   -0.151122
    10  N   -0.296380
    11  C   -0.072093
    12  C    0.066517
    13  C   -0.212927
    14  C   -0.003672
    15  C   -0.119570
    16  C    0.036707
    17  C   -0.051314
    18  C   -0.139867
    19  C    0.062636
    20  C   -0.059250
    21  C    0.111394
    22  C    0.089989
    23  C   -0.009476
    24  C    0.108485
    25  C   -0.138836
    26  C    0.185145
    27  C    0.135663
    28  C    0.074436
    29  C    0.137267
    30  C    0.027606
    31  C   -0.143953
    32  C    0.094466
    33  C   -0.195331
    34  C    0.093679
    35  C   -0.082411
    36  C   -0.121934
    37  C    0.102748
    38  C    0.018171
    39  C    0.160441
    40  C    0.037641
    41  C    0.166814
    42  C    0.008246
    43  C   -0.025799
    44  H    0.161689
    45  H    0.006831
    46  H   -0.000614
    47  H    0.025984
    48  H    0.019807
    49  H    0.035678
    50  H    0.011623
    51  H    0.052715
    52  H    0.148624
    53  H   -0.005786
    54  H    0.011664
    55  H   -0.018380
    56  H    0.168678
    57  H   -0.016298
    58  H    0.041946
    59  H    0.011587
    60  H   -0.055634
    61  H    0.067253
    62  H    0.039020
    63  H    0.046950
    64  H   -0.038012
    65  H   -0.006599
    66  H    0.043193
    67  H   -0.011577
    68  H    0.007944
    69  H    0.091985
    70  H   -0.003152
    71  H    0.050555
    72  H    0.002499
    73  H    0.044510
    74  H    0.040340
    75  H    0.052953
    76  H    0.035287
    77  H    0.001619
    78  H    0.030877
    79  H    0.007280
    80  H    0.214614
    81  H    0.211245
 Sum of Mulliken charges =  -0.00000

 Dipole moment (field-independent basis, Debye):
    X=              2.5266    Y=              0.1041    Z=              1.6525  Tot=              3.0208
 Quadrupole moment (field-independent basis, Debye-Ang):
   XX=           -260.2207   YY=           -232.9881   ZZ=           -252.7298
   XY=            -22.7100   XZ=             24.2759   YZ=              9.6244

 Normal termination of Gaussian 16 at Mon Jul  1 06:32:17 2019.
