 Gaussian 16, Revision A.03,
 Gaussian 16:  ES64L-G16RevA.03 25-Dec-2016

 --------------------------
 # td=(NStates=1) B3LYP/SVP
 --------------------------

 --
 TD
 --
 Symbolic Z-matrix:
 Charge =  0 Multiplicity = 1

                         Standard orientation:
 ---------------------------------------------------------------------
 Center     Atomic      Atomic             Coordinates (Angstroms)
 Number     Number       Type             X           Y           Z
 ---------------------------------------------------------------------
      1          8           0       -4.508549   -4.654968    1.881555
      2          8           0        2.684488   -4.696639    1.359481
      3          8           0        7.182993   -1.357007    1.926183
      4          8           0        3.728644   -3.202077    0.070661
      5          8           0        7.658626   -0.672018   -0.219271
      6          8           0       -3.095047    2.504089   -0.206756
      7          7           0       -0.296665   -0.588207   -0.656903
      8          7           0        1.577774    1.722476   -0.386503
      9          7           0       -3.472914   -3.074163    0.736668
     10          7           0       -0.778018    2.863474   -0.047687
     11          6           0        0.578719   -2.600376   -1.365537
     12          6           0        0.970663   -1.174020   -0.924548
     13          6           0       -0.750097   -2.656773   -1.193179
     14          6           0       -1.341087   -1.452409   -0.697974
     15          6           0        3.811356    1.421796   -0.355855
     16          6           0        2.567357    0.765627   -0.680641
     17          6           0        2.252899   -0.592367   -0.830233
     18          6           0        3.610739    2.810450   -0.027825
     19          6           0        1.607924   -3.471222   -1.919502
     20          6           0       -5.604252   -2.581060    1.281786
     21          6           0       -3.638417   -1.815543    0.182814
     22          6           0        2.142300    2.926668   -0.018721
     23          6           0       -5.103080   -1.480575    0.283536
     24          6           0        5.167606    0.680121   -0.445330
     25          6           0       -2.579521   -0.970004   -0.347060
     26          6           0       -1.554292   -3.816870   -1.685644
     27          6           0       -4.561185   -3.572562    1.263203
     28          6           0        2.129674   -4.583758   -0.902839
     29          6           0        5.427574   -0.124083    0.760468
     30          6           0        4.509816    3.854771    0.312056
     31          6           0        1.314229    4.069268    0.329639
     32          6           0       -6.958123   -3.157569    0.933867
     33          6           0       -5.841448   -0.490366   -0.199641
     34          6           0       -0.051438    3.908172    0.222409
     35          6           0       -0.987999    5.126443    0.434865
     36          6           0       -2.204470    4.705717    0.304173
     37          6           0        2.958819   -4.070272    0.192413
     38          6           0       -5.354154    0.544260   -1.099754
     39          6           0        6.877426   -0.741586    0.783971
     40          6           0       -3.528931    5.372529    0.495056
     41          6           0       -2.118250    3.243732   -0.095827
     42          6           0       -0.498568    6.526776    0.794174
     43          6           0       -4.200570    5.611791   -0.873530
     44          1           0       -0.346036    0.302569    0.117553
     45          1           0        3.047064   -1.379364   -1.149032
     46          1           0        2.539859   -2.993935   -2.403236
     47          1           0        1.026372   -4.080859   -2.787300
     48          1           0       -5.782921   -2.021604    2.168728
     49          1           0        5.139166    0.096153   -1.340760
     50          1           0        5.991592    1.470182   -0.632653
     51          1           0       -2.836173    0.006623   -0.513872
     52          1           0        0.493885    1.584865   -0.635723
     53          1           0       -1.226506   -4.723963   -0.997319
     54          1           0       -2.767377   -3.552464   -1.916567
     55          1           0       -1.149742   -3.807041   -2.765159
     56          1           0       -2.452193   -3.608172    0.812388
     57          1           0        1.352125   -5.067638   -0.308959
     58          1           0        2.837764   -5.534719   -1.315696
     59          1           0        4.948332   -1.002764    1.023849
     60          1           0        5.300777    0.299018    1.796569
     61          1           0        4.489163    4.673128   -0.382943
     62          1           0        5.477337    3.368646    0.220186
     63          1           0        4.545885    4.076240    1.484554
     64          1           0        1.890224    4.839365    0.648680
     65          1           0       -7.703542   -2.441352    1.254757
     66          1           0       -6.997206   -4.132275    1.547046
     67          1           0       -7.180980   -3.248957   -0.287845
     68          1           0       -6.842441   -0.767021    0.283093
     69          1           0       -4.918644    1.441116   -0.465553
     70          1           0       -6.232877    0.751816   -1.836397
     71          1           0       -4.633808    0.096680   -1.798549
     72          1           0       -3.594200    6.304477    1.071698
     73          1           0       -4.339904    4.725513    0.929345
     74          1           0        0.126583    6.796353    1.614892
     75          1           0       -1.242516    7.119943    1.072875
     76          1           0       -0.014393    7.109028    0.044715
     77          1           0       -3.272605    5.920817   -1.615559
     78          1           0       -5.105825    6.120580   -0.886200
     79          1           0       -4.588066    4.504769   -1.218200
     80          1           0        3.304802   -4.493696    2.032580
     81          1           0        7.989240   -1.888407    1.655427
 ---------------------------------------------------------------------

 SCF Done:  E(RB3LYP) =  -1949.05133147     A.U. after   17 cycles

 Excitation energies and oscillator strengths:

 Excited State   1:      Singlet-A      1.8171 eV  682.33 nm  f=0.4627  <S**2>=0.000
     156 ->157         0.71351
     156 <-157        -0.13948
 This state for optimization and/or second-order correction.
 Total Energy, E(TD-HF/TD-DFT) =  -1948.98455509
 Copying the excited state density for this state as the 1-particle RhoCI density.

 The electronic state is 1-A.
 Alpha  occ. eigenvalues --  -19.19955 -19.19223 -19.14285 -19.12166 -19.10157
 Alpha  occ. eigenvalues --  -19.10100 -14.39242 -14.38745 -14.35843 -14.28547
 Alpha  occ. eigenvalues --  -10.32939 -10.32350 -10.28529 -10.26314 -10.25850
 Alpha  occ. eigenvalues --  -10.24043 -10.23909 -10.23867 -10.23533 -10.23104
 Alpha  occ. eigenvalues --  -10.22909 -10.22668 -10.22052 -10.21932 -10.21267
 Alpha  occ. eigenvalues --  -10.20813 -10.20454 -10.20376 -10.20345 -10.20325
 Alpha  occ. eigenvalues --  -10.20200 -10.20150 -10.20044 -10.19834 -10.19729
 Alpha  occ. eigenvalues --  -10.19297 -10.19121 -10.18665 -10.18310 -10.18271
 Alpha  occ. eigenvalues --  -10.17493 -10.17362 -10.16949  -1.12397  -1.09963
 Alpha  occ. eigenvalues --   -1.04124  -1.03871  -1.00746  -0.97944  -0.97880
 Alpha  occ. eigenvalues --   -0.95788  -0.95422  -0.91948  -0.83268  -0.82807
 Alpha  occ. eigenvalues --   -0.81387  -0.81335  -0.79539  -0.79179  -0.78728
 Alpha  occ. eigenvalues --   -0.77630  -0.76779  -0.75157  -0.74088  -0.72535
 Alpha  occ. eigenvalues --   -0.71607  -0.69933  -0.69447  -0.68230  -0.67695
 Alpha  occ. eigenvalues --   -0.67227  -0.65933  -0.65085  -0.62652  -0.61595
 Alpha  occ. eigenvalues --   -0.60049  -0.59539  -0.59174  -0.57882  -0.56493
 Alpha  occ. eigenvalues --   -0.55372  -0.54924  -0.54315  -0.53494  -0.53034
 Alpha  occ. eigenvalues --   -0.52015  -0.51176  -0.51119  -0.50503  -0.49829
 Alpha  occ. eigenvalues --   -0.49417  -0.48996  -0.48930  -0.48355  -0.48209
 Alpha  occ. eigenvalues --   -0.47393  -0.47017  -0.46633  -0.46083  -0.45458
 Alpha  occ. eigenvalues --   -0.44950  -0.44752  -0.44303  -0.44116  -0.43860
 Alpha  occ. eigenvalues --   -0.43486  -0.43065  -0.43002  -0.42882  -0.42618
 Alpha  occ. eigenvalues --   -0.42178  -0.41956  -0.41607  -0.41451  -0.40903
 Alpha  occ. eigenvalues --   -0.40451  -0.40376  -0.39998  -0.39871  -0.39728
 Alpha  occ. eigenvalues --   -0.39532  -0.39332  -0.39003  -0.38702  -0.38177
 Alpha  occ. eigenvalues --   -0.38035  -0.37976  -0.37761  -0.36432  -0.35946
 Alpha  occ. eigenvalues --   -0.35550  -0.35341  -0.34769  -0.34424  -0.34355
 Alpha  occ. eigenvalues --   -0.33962  -0.33752  -0.33494  -0.33185  -0.32884
 Alpha  occ. eigenvalues --   -0.31811  -0.31569  -0.30463  -0.30014  -0.29724
 Alpha  occ. eigenvalues --   -0.27354  -0.26719  -0.26558  -0.26378  -0.25883
 Alpha  occ. eigenvalues --   -0.25662  -0.24491  -0.24152  -0.23605  -0.21593
 Alpha  occ. eigenvalues --   -0.17303
 Alpha virt. eigenvalues --   -0.10396  -0.05591  -0.03988  -0.01121  -0.00959
 Alpha virt. eigenvalues --   -0.00071   0.00743   0.01032   0.03296   0.03660
 Alpha virt. eigenvalues --    0.04197   0.04487   0.04857   0.05399   0.05429

 Mulliken charges:
               1
     1  O   -0.259241
     2  O   -0.172303
     3  O   -0.172964
     4  O   -0.175196
     5  O   -0.297229
     6  O   -0.232232
     7  N   -0.176234
     8  N   -0.184089
     9  N   -0.078823
    10  N   -0.264089
    11  C   -0.033164
    12  C   -0.010787
    13  C   -0.176268
    14  C    0.167125
    15  C   -0.133287
    16  C    0.101829
    17  C   -0.037269
    18  C   -0.136926
    19  C    0.038004
    20  C   -0.059613
    21  C    0.039813
    22  C    0.050116
    23  C   -0.075043
    24  C    0.162254
    25  C   -0.075932
    26  C   -0.054977
    27  C    0.125866
    28  C   -0.021766
    29  C    0.036901
    30  C    0.119991
    31  C   -0.099832
    32  C   -0.024106
    33  C   -0.127086
    34  C    0.154748
    35  C   -0.090907
    36  C   -0.147733
    37  C    0.081846
    38  C    0.047469
    39  C    0.128285
    40  C    0.096057
    41  C    0.163538
    42  C    0.185214
    43  C   -0.084890
    44  H    0.206292
    45  H    0.045183
    46  H    0.057085
    47  H    0.028898
    48  H    0.048178
    49  H    0.009189
    50  H    0.032408
    51  H   -0.030069
    52  H    0.192685
    53  H    0.061923
    54  H    0.069113
    55  H    0.051967
    56  H    0.196610
    57  H    0.024141
    58  H    0.076157
    59  H    0.000795
    60  H    0.018183
    61  H    0.033370
    62  H   -0.017259
    63  H    0.042937
    64  H   -0.077973
    65  H    0.015525
    66  H    0.059745
    67  H    0.039023
    68  H   -0.014151
    69  H    0.124035
    70  H    0.018040
    71  H    0.028028
    72  H   -0.001390
    73  H    0.003993
    74  H   -0.011749
    75  H   -0.056395
    76  H   -0.005526
    77  H    0.034763
    78  H    0.000103
    79  H    0.036366
    80  H    0.167012
    81  H    0.195694
 Sum of Mulliken charges =  -0.00000

 Dipole moment (field-independent basis, Debye):
    X=              2.2726    Y=             -1.4648    Z=              0.8768  Tot=              2.8424
 Quadrupole moment (field-independent basis, Debye-Ang):
   XX=           -256.9449   YY=           -244.7752   ZZ=           -254.1496
   XY=            -18.6984   XZ=             17.3164   YZ=             12.5188

 Normal termination of Gaussian 16 at Mon Jul  1 01:52:30 2019.
