 Gaussian 16, Revision A.03,
 Gaussian 16:  ES64L-G16RevA.03 25-Dec-2016

 --------------------------
 # td=(NStates=1) B3LYP/SVP
 --------------------------

 --
 TD
 --
 Symbolic Z-matrix:
 Charge =  0 Multiplicity = 1

                         Standard orientation:
 ---------------------------------------------------------------------
 Center     Atomic      Atomic             Coordinates (Angstroms)
 Number     Number       Type             X           Y           Z
 ---------------------------------------------------------------------
      1          8           0        4.643445   -4.622236   -1.914860
      2          8           0       -2.846702   -4.778530   -1.448137
      3          8           0       -7.064057   -1.687058   -1.722384
      4          8           0       -3.715673   -3.143561   -0.082739
      5          8           0       -7.703017   -0.521548    0.052815
      6          8           0        3.030732    2.651140    0.259725
      7          7           0        0.285775   -0.587752    0.611712
      8          7           0       -1.539404    1.688267    0.291484
      9          7           0        3.498114   -3.095340   -0.630785
     10          7           0        0.720691    2.962656    0.090090
     11          6           0       -0.598403   -2.506073    1.430210
     12          6           0       -0.956929   -1.164448    0.931712
     13          6           0        0.819210   -2.699186    1.252003
     14          6           0        1.266304   -1.461484    0.708139
     15          6           0       -3.778055    1.298222    0.361465
     16          6           0       -2.491115    0.712300    0.554713
     17          6           0       -2.189894   -0.636956    0.944387
     18          6           0       -3.647217    2.627062    0.093479
     19          6           0       -1.602299   -3.533613    1.902832
     20          6           0        5.667590   -2.378065   -1.343616
     21          6           0        3.678734   -1.817459   -0.140719
     22          6           0       -2.230535    2.876553    0.014517
     23          6           0        5.136495   -1.522362   -0.315457
     24          6           0       -5.113953    0.642806    0.525104
     25          6           0        2.688678   -1.089439    0.530491
     26          6           0        1.517555   -3.964211    1.728776
     27          6           0        4.600918   -3.542448   -1.386751
     28          6           0       -1.953490   -4.590929    0.768723
     29          6           0       -5.409808   -0.247981   -0.766866
     30          6           0       -4.681349    3.791431   -0.356575
     31          6           0       -1.426009    4.083055   -0.183354
     32          6           0        7.143472   -3.018303   -1.110243
     33          6           0        5.844861   -0.539480    0.321095
     34          6           0       -0.066255    4.105555   -0.254229
     35          6           0        0.829020    5.191295   -0.525811
     36          6           0        2.094774    4.709928   -0.363293
     37          6           0       -2.940408   -4.021566   -0.296413
     38          6           0        5.446991    0.503636    1.343276
     39          6           0       -6.862824   -0.756868   -0.717819
     40          6           0        3.496664    5.497237   -0.574256
     41          6           0        2.016966    3.315989    0.064834
     42          6           0        0.371830    6.522928   -0.885277
     43          6           0        4.222644    5.693080    0.752537
     44          1           0        0.501279    0.352110    0.549043
     45          1           0       -3.011309   -1.296329    1.193375
     46          1           0       -2.465170   -3.252407    2.326824
     47          1           0       -1.137414   -4.179205    2.854020
     48          1           0        5.538262   -1.793537   -2.295705
     49          1           0       -5.375193    0.227874    1.540285
     50          1           0       -5.839263    1.379641    0.515668
     51          1           0        3.110724   -0.037699    0.776353
     52          1           0       -0.506565    1.805915    0.586672
     53          1           0        1.214470   -4.848059    1.006718
     54          1           0        2.654193   -3.897481    1.489006
     55          1           0        1.309854   -4.202810    2.824711
     56          1           0        2.628840   -3.493819   -0.692747
     57          1           0       -0.997962   -4.863768    0.269301
     58          1           0       -2.546424   -5.530856    1.042910
     59          1           0       -4.622287   -0.994693   -0.887352
     60          1           0       -5.489629    0.520468   -1.658466
     61          1           0       -4.800467    4.497385    0.670284
     62          1           0       -5.659358    3.041914   -0.645149
     63          1           0       -4.387963    4.318716   -1.400361
     64          1           0       -2.113282    5.042806   -0.267521
     65          1           0        8.017176   -2.190007   -1.041178
     66          1           0        7.252435   -3.596645   -2.088187
     67          1           0        7.201818   -3.742335   -0.117689
     68          1           0        6.823873   -0.497247   -0.067514
     69          1           0        4.982743    1.227790    1.010669
     70          1           0        6.584484    0.526978    1.934506
     71          1           0        4.734193   -0.187624    2.041135
     72          1           0        3.224339    6.549966   -1.090476
     73          1           0        4.233551    5.026057   -1.237163
     74          1           0       -0.302661    6.557867   -1.794550
     75          1           0        1.339460    7.259414   -1.267970
     76          1           0       -0.051255    7.170660    0.145804
     77          1           0        3.508345    6.089988    1.744165
     78          1           0        4.987174    6.455990    0.791014
     79          1           0        4.499058    4.768927    1.335763
     80          1           0       -3.807585   -4.745379   -2.219357
     81          1           0       -8.111520   -1.912266   -1.615371
 ---------------------------------------------------------------------

 SCF Done:  E(RB3LYP) =  -1949.01565788     A.U. after   20 cycles

 Excitation energies and oscillator strengths:

 Excited State   1:      Singlet-A      1.8770 eV  660.54 nm  f=0.3673  <S**2>=0.000
     155 ->157         0.11682
     156 ->157         0.69715
     156 <-157        -0.12676
 This state for optimization and/or second-order correction.
 Total Energy, E(TD-HF/TD-DFT) =  -1948.94667860
 Copying the excited state density for this state as the 1-particle RhoCI density.

 The electronic state is 1-A.
 Alpha  occ. eigenvalues --  -19.20084 -19.17616 -19.14990 -19.13536 -19.12486
 Alpha  occ. eigenvalues --  -19.07741 -14.38829 -14.37294 -14.35683 -14.27018
 Alpha  occ. eigenvalues --  -10.33787 -10.31812 -10.30419 -10.25554 -10.25117
 Alpha  occ. eigenvalues --  -10.24302 -10.23967 -10.23766 -10.23663 -10.23265
 Alpha  occ. eigenvalues --  -10.23243 -10.22504 -10.22432 -10.22423 -10.22025
 Alpha  occ. eigenvalues --  -10.22013 -10.21877 -10.21728 -10.21534 -10.21202
 Alpha  occ. eigenvalues --  -10.21193 -10.20295 -10.20225 -10.20223 -10.19963
 Alpha  occ. eigenvalues --  -10.19841 -10.19633 -10.19592 -10.19530 -10.19440
 Alpha  occ. eigenvalues --  -10.18079 -10.17937 -10.17710  -1.09962  -1.09145
 Alpha  occ. eigenvalues --   -1.05091  -1.00615  -1.00559  -1.00155  -0.98928
 Alpha  occ. eigenvalues --   -0.96653  -0.96560  -0.89847  -0.82994  -0.82590
 Alpha  occ. eigenvalues --   -0.81716  -0.81585  -0.78213  -0.77268  -0.77170
 Alpha  occ. eigenvalues --   -0.76338  -0.76025  -0.74624  -0.73159  -0.71638
 Alpha  occ. eigenvalues --   -0.70219  -0.69357  -0.68615  -0.67336  -0.66834
 Alpha  occ. eigenvalues --   -0.66118  -0.65532  -0.64806  -0.61739  -0.59791
 Alpha  occ. eigenvalues --   -0.59318  -0.58790  -0.58585  -0.57809  -0.56824
 Alpha  occ. eigenvalues --   -0.56515  -0.55335  -0.54911  -0.54068  -0.52715
 Alpha  occ. eigenvalues --   -0.51536  -0.51164  -0.50754  -0.49672  -0.49357
 Alpha  occ. eigenvalues --   -0.49199  -0.48990  -0.48441  -0.48252  -0.47875
 Alpha  occ. eigenvalues --   -0.47170  -0.46551  -0.45999  -0.45713  -0.45550
 Alpha  occ. eigenvalues --   -0.44766  -0.44096  -0.43773  -0.43572  -0.43230
 Alpha  occ. eigenvalues --   -0.42757  -0.42568  -0.42377  -0.42099  -0.41774
 Alpha  occ. eigenvalues --   -0.41388  -0.41374  -0.41328  -0.40950  -0.40633
 Alpha  occ. eigenvalues --   -0.40352  -0.39724  -0.39454  -0.39114  -0.38842
 Alpha  occ. eigenvalues --   -0.38612  -0.38364  -0.38239  -0.37875  -0.37822
 Alpha  occ. eigenvalues --   -0.37576  -0.37309  -0.37137  -0.37036  -0.36617
 Alpha  occ. eigenvalues --   -0.36145  -0.35894  -0.35256  -0.35041  -0.34465
 Alpha  occ. eigenvalues --   -0.34275  -0.34034  -0.33809  -0.32786  -0.32485
 Alpha  occ. eigenvalues --   -0.32355  -0.31463  -0.30328  -0.29762  -0.29070
 Alpha  occ. eigenvalues --   -0.28942  -0.27715  -0.26374  -0.25910  -0.25766
 Alpha  occ. eigenvalues --   -0.25586  -0.24883  -0.22539  -0.22024  -0.21063
 Alpha  occ. eigenvalues --   -0.18097
 Alpha virt. eigenvalues --   -0.10810  -0.05454  -0.04583  -0.03821  -0.00865
 Alpha virt. eigenvalues --   -0.00548   0.00983   0.01593   0.02328   0.02597
 Alpha virt. eigenvalues --    0.03057   0.03259   0.04335   0.04787   0.05123

 Mulliken charges:
               1
     1  O   -0.180224
     2  O   -0.324504
     3  O   -0.271271
     4  O   -0.192452
     5  O   -0.176699
     6  O   -0.248112
     7  N    0.011788
     8  N   -0.145963
     9  N   -0.084528
    10  N   -0.352822
    11  C   -0.102436
    12  C    0.126949
    13  C   -0.135931
    14  C    0.013825
    15  C   -0.103854
    16  C    0.076261
    17  C   -0.065002
    18  C   -0.096122
    19  C    0.107275
    20  C   -0.078430
    21  C    0.034544
    22  C    0.041491
    23  C   -0.043200
    24  C    0.128848
    25  C   -0.099077
    26  C    0.012491
    27  C    0.128408
    28  C   -0.021372
    29  C   -0.040577
    30  C   -0.058816
    31  C   -0.140596
    32  C   -0.038596
    33  C   -0.127100
    34  C    0.149710
    35  C   -0.036720
    36  C   -0.138126
    37  C    0.161547
    38  C    0.115562
    39  C    0.136767
    40  C    0.087606
    41  C    0.125297
    42  C   -0.047770
    43  C   -0.073870
    44  H    0.104863
    45  H    0.008614
    46  H   -0.020651
    47  H    0.025506
    48  H    0.063249
    49  H    0.030187
    50  H   -0.037096
    51  H    0.041576
    52  H    0.172837
    53  H    0.037902
    54  H    0.043552
    55  H    0.061037
    56  H    0.099834
    57  H    0.041180
    58  H    0.061224
    59  H    0.065755
    60  H    0.051137
    61  H    0.079977
    62  H    0.047726
    63  H    0.075027
    64  H    0.006701
    65  H    0.052049
    66  H    0.052440
    67  H    0.057669
    68  H   -0.033813
    69  H    0.005015
    70  H    0.043149
    71  H    0.046808
    72  H    0.006709
    73  H    0.019260
    74  H    0.040320
    75  H    0.026553
    76  H    0.054137
    77  H   -0.008455
    78  H    0.012551
    79  H    0.043472
    80  H    0.277753
    81  H    0.210047
 Sum of Mulliken charges =  -0.00000

 Dipole moment (field-independent basis, Debye):
    X=             -3.4930    Y=             -3.3195    Z=             -0.2384  Tot=              4.8246
 Quadrupole moment (field-independent basis, Debye-Ang):
   XX=           -245.2659   YY=           -248.0282   ZZ=           -252.2599
   XY=             11.8329   XZ=             13.1872   YZ=            -11.4911

 Normal termination of Gaussian 16 at Fri Jun 28 15:54:37 2019.
