 Gaussian 16, Revision A.03,
 Gaussian 16:  ES64L-G16RevA.03 25-Dec-2016

 --------------------------
 # td=(NStates=1) B3LYP/SVP
 --------------------------

 --
 TD
 --
 Symbolic Z-matrix:
 Charge =  0 Multiplicity = 1

                         Standard orientation:
 ---------------------------------------------------------------------
 Center     Atomic      Atomic             Coordinates (Angstroms)
 Number     Number       Type             X           Y           Z
 ---------------------------------------------------------------------
      1          8           0        4.062480   -4.984426   -1.923212
      2          8           0       -3.365575   -4.631643   -1.240776
      3          8           0       -7.000623   -1.227163   -1.850122
      4          8           0       -4.132685   -2.999565    0.022619
      5          8           0       -7.615289   -0.028505   -0.027002
      6          8           0        3.321238    2.281361    0.396093
      7          7           0        0.216290   -0.624144    0.571217
      8          7           0       -1.461632    2.003393    0.344539
      9          7           0        3.133151   -3.369624   -0.584112
     10          7           0        0.997190    2.920935    0.182010
     11          6           0       -0.856905   -2.375501    1.412469
     12          6           0       -1.087901   -1.048167    0.950769
     13          6           0        0.468995   -2.778960    1.309570
     14          6           0        1.129382   -1.646474    0.617295
     15          6           0       -3.683082    1.748121    0.295825
     16          6           0       -2.428954    1.059281    0.551656
     17          6           0       -2.256128   -0.341722    0.894789
     18          6           0       -3.366927    3.055355   -0.066478
     19          6           0       -1.927757   -3.358795    1.921683
     20          6           0        5.305722   -2.925316   -1.360892
     21          6           0        3.459601   -1.997745   -0.151921
     22          6           0       -1.936116    3.149745   -0.030545
     23          6           0        4.848212   -1.822341   -0.358980
     24          6           0       -5.086667    1.205114    0.378914
     25          6           0        2.463677   -1.185679    0.277525
     26          6           0        1.212431   -3.889786    1.779298
     27          6           0        4.165070   -3.927718   -1.308311
     28          6           0       -2.487431   -4.485419    1.005779
     29          6           0       -5.253271    0.049805   -0.767485
     30          6           0       -4.267368    4.214984   -0.379070
     31          6           0       -1.079224    4.213296   -0.324151
     32          6           0        6.695767   -3.542363   -1.266651
     33          6           0        5.681872   -0.916313    0.229619
     34          6           0        0.436495    4.031173   -0.181963
     35          6           0        1.427154    5.051574   -0.535388
     36          6           0        2.658507    4.521389   -0.327877
     37          6           0       -3.335238   -3.946663   -0.116870
     38          6           0        5.353259    0.027049    1.313865
     39          6           0       -6.732897   -0.371305   -0.809904
     40          6           0        4.040259    5.069387   -0.381224
     41          6           0        2.395755    3.064911    0.140063
     42          6           0        1.185668    6.583166   -0.848705
     43          6           0        4.773988    5.288274    0.941065
     44          1           0        0.400969    0.139647   -0.076328
     45          1           0       -3.095378   -0.928041    0.945895
     46          1           0       -2.867344   -2.706665    2.096958
     47          1           0       -1.504258   -3.922355    2.715104
     48          1           0        5.242123   -2.765646   -2.414292
     49          1           0       -4.967623    0.733483    1.415693
     50          1           0       -5.944501    1.877043    0.302696
     51          1           0        2.625649    0.079433    0.588693
     52          1           0       -0.489891    1.818571    0.605574
     53          1           0        1.503506   -4.678244    1.060661
     54          1           0        2.088021   -3.766466    2.338285
     55          1           0        0.686066   -4.288261    2.674173
     56          1           0        2.230356   -3.702666   -0.516317
     57          1           0       -1.506494   -4.816398    0.691880
     58          1           0       -3.242724   -5.284785    1.455733
     59          1           0       -4.667683   -0.817176   -0.493983
     60          1           0       -5.252833    0.326653   -1.579932
     61          1           0       -4.179710    4.838180    0.395746
     62          1           0       -5.129949    3.758235   -0.704846
     63          1           0       -3.728906    4.605164   -1.308730
     64          1           0       -1.350812    5.160513   -0.755085
     65          1           0        7.592025   -2.955019   -1.608341
     66          1           0        6.998470   -4.567361   -1.963442
     67          1           0        6.866087   -4.078273   -0.274871
     68          1           0        6.864501   -0.874818   -0.185342
     69          1           0        5.073464    1.082484    0.760521
     70          1           0        6.209497    0.099372    1.962201
     71          1           0        4.383460   -0.220779    1.760038
     72          1           0        4.093228    6.097395   -0.822460
     73          1           0        4.479957    4.427340   -1.085076
     74          1           0        0.312672    6.616452   -1.747269
     75          1           0        1.958595    7.028845   -1.610788
     76          1           0        0.966012    7.138417    0.151030
     77          1           0        4.168415    5.837130    1.496742
     78          1           0        5.810172    5.802840    0.559178
     79          1           0        5.163325    4.279547    1.350492
     80          1           0       -3.863120   -4.176487   -1.891486
     81          1           0       -7.772387   -1.625844   -1.727693
 ---------------------------------------------------------------------

 SCF Done:  E(RB3LYP) =  -1949.01979769     A.U. after   17 cycles

 Excitation energies and oscillator strengths:

 Excited State   1:      Singlet-A      1.8099 eV  685.02 nm  f=0.3621  <S**2>=0.000
     156 ->157         0.71000
     156 <-157        -0.13543
 This state for optimization and/or second-order correction.
 Total Energy, E(TD-HF/TD-DFT) =  -1948.95328335
 Copying the excited state density for this state as the 1-particle RhoCI density.

 The electronic state is 1-A.
 Alpha  occ. eigenvalues --  -19.20087 -19.17288 -19.13709 -19.12541 -19.12047
 Alpha  occ. eigenvalues --  -19.10085 -14.38117 -14.36359 -14.36161 -14.29383
 Alpha  occ. eigenvalues --  -10.33901 -10.32049 -10.28828 -10.27688 -10.24631
 Alpha  occ. eigenvalues --  -10.24383 -10.23878 -10.23656 -10.23648 -10.23240
 Alpha  occ. eigenvalues --  -10.22963 -10.22254 -10.21795 -10.21371 -10.21263
 Alpha  occ. eigenvalues --  -10.21042 -10.21037 -10.20926 -10.20807 -10.20704
 Alpha  occ. eigenvalues --  -10.20603 -10.20435 -10.20226 -10.19779 -10.19594
 Alpha  occ. eigenvalues --  -10.19328 -10.19156 -10.18859 -10.18565 -10.18541
 Alpha  occ. eigenvalues --  -10.18489 -10.18480 -10.18206  -1.12620  -1.09725
 Alpha  occ. eigenvalues --   -1.02375  -1.01528  -1.00796  -1.00234  -1.00161
 Alpha  occ. eigenvalues --   -0.98160  -0.94054  -0.92977  -0.83316  -0.82243
 Alpha  occ. eigenvalues --   -0.81762  -0.81700  -0.79534  -0.79390  -0.78848
 Alpha  occ. eigenvalues --   -0.78082  -0.76815  -0.74865  -0.74447  -0.73233
 Alpha  occ. eigenvalues --   -0.72448  -0.70374  -0.69648  -0.69226  -0.68149
 Alpha  occ. eigenvalues --   -0.67071  -0.65522  -0.64617  -0.62735  -0.62560
 Alpha  occ. eigenvalues --   -0.61851  -0.60979  -0.59352  -0.58296  -0.57693
 Alpha  occ. eigenvalues --   -0.56481  -0.55851  -0.55189  -0.54052  -0.52583
 Alpha  occ. eigenvalues --   -0.52271  -0.52150  -0.51297  -0.51114  -0.50123
 Alpha  occ. eigenvalues --   -0.49552  -0.49272  -0.48829  -0.48016  -0.47754
 Alpha  occ. eigenvalues --   -0.47370  -0.47228  -0.46916  -0.46285  -0.45702
 Alpha  occ. eigenvalues --   -0.45251  -0.44979  -0.44779  -0.44477  -0.44278
 Alpha  occ. eigenvalues --   -0.44196  -0.43570  -0.43430  -0.43112  -0.42848
 Alpha  occ. eigenvalues --   -0.42342  -0.42120  -0.41817  -0.41670  -0.41348
 Alpha  occ. eigenvalues --   -0.41233  -0.41042  -0.40814  -0.40224  -0.39721
 Alpha  occ. eigenvalues --   -0.39558  -0.39126  -0.38424  -0.38129  -0.38018
 Alpha  occ. eigenvalues --   -0.37806  -0.37610  -0.37557  -0.37121  -0.36514
 Alpha  occ. eigenvalues --   -0.35820  -0.35304  -0.34901  -0.34812  -0.34223
 Alpha  occ. eigenvalues --   -0.33899  -0.33673  -0.33506  -0.33306  -0.33076
 Alpha  occ. eigenvalues --   -0.32282  -0.32202  -0.31735  -0.30500  -0.29361
 Alpha  occ. eigenvalues --   -0.28229  -0.27616  -0.26571  -0.26155  -0.25769
 Alpha  occ. eigenvalues --   -0.24941  -0.24642  -0.23957  -0.23686  -0.22201
 Alpha  occ. eigenvalues --   -0.17603
 Alpha virt. eigenvalues --   -0.10633  -0.06564  -0.04366  -0.02305   0.00262
 Alpha virt. eigenvalues --    0.00605   0.01488   0.02936   0.03914   0.03998
 Alpha virt. eigenvalues --    0.04640   0.04951   0.05663   0.05782   0.06383

 Mulliken charges:
               1
     1  O   -0.229367
     2  O   -0.115788
     3  O   -0.153646
     4  O   -0.274724
     5  O   -0.239408
     6  O   -0.232178
     7  N   -0.116001
     8  N    0.008927
     9  N   -0.125954
    10  N   -0.265209
    11  C   -0.123859
    12  C    0.120592
    13  C   -0.108469
    14  C    0.034291
    15  C   -0.098144
    16  C    0.031799
    17  C   -0.033004
    18  C   -0.211827
    19  C    0.086833
    20  C    0.013889
    21  C    0.132658
    22  C    0.111378
    23  C    0.036037
    24  C    0.066524
    25  C   -0.235033
    26  C    0.098337
    27  C    0.101478
    28  C    0.026455
    29  C    0.183305
    30  C    0.231838
    31  C   -0.119830
    32  C   -0.060713
    33  C   -0.188726
    34  C    0.014631
    35  C   -0.117280
    36  C   -0.165789
    37  C    0.102380
    38  C    0.038273
    39  C    0.101653
    40  C    0.089916
    41  C    0.173130
    42  C   -0.013770
    43  C    0.006845
    44  H    0.141607
    45  H   -0.046172
    46  H    0.031063
    47  H   -0.002064
    48  H    0.033432
    49  H    0.034896
    50  H    0.025647
    51  H    0.125209
    52  H    0.127648
    53  H    0.031441
    54  H    0.005268
    55  H   -0.004623
    56  H    0.098708
    57  H    0.023243
    58  H    0.083567
    59  H    0.066933
    60  H   -0.109552
    61  H    0.009736
    62  H   -0.007568
    63  H    0.020055
    64  H   -0.033778
    65  H    0.031870
    66  H    0.037055
    67  H    0.022661
    68  H    0.032743
    69  H    0.101972
    70  H    0.021706
    71  H    0.025448
    72  H   -0.014041
    73  H   -0.001196
    74  H    0.026334
    75  H    0.040855
    76  H    0.072346
    77  H   -0.001878
    78  H    0.021990
    79  H    0.043731
    80  H    0.173214
    81  H    0.128044
 Sum of Mulliken charges =  -0.00000

 Dipole moment (field-independent basis, Debye):
    X=             -1.2012    Y=              0.3408    Z=             -0.2588  Tot=              1.2751
 Quadrupole moment (field-independent basis, Debye-Ang):
   XX=           -259.3762   YY=           -246.2531   ZZ=           -253.6529
   XY=             20.5288   XZ=             14.5157   YZ=            -15.9718

 Normal termination of Gaussian 16 at Thu Jun 27 01:41:24 2019.
