 Gaussian 16, Revision A.03,
 Gaussian 16:  ES64L-G16RevA.03 25-Dec-2016

 --------------------------
 # td=(NStates=1) B3LYP/SVP
 --------------------------

 --
 TD
 --
 Symbolic Z-matrix:
 Charge =  0 Multiplicity = 1

                         Standard orientation:
 ---------------------------------------------------------------------
 Center     Atomic      Atomic             Coordinates (Angstroms)
 Number     Number       Type             X           Y           Z
 ---------------------------------------------------------------------
      1          8           0       -4.338824   -4.704111    2.095215
      2          8           0        3.142880   -4.836461    1.254677
      3          8           0        6.939265   -1.693174    1.793924
      4          8           0        3.838656   -3.095387   -0.003191
      5          8           0        7.721812   -0.516411    0.037376
      6          8           0       -2.964968    2.423798   -0.281959
      7          7           0       -0.386606   -0.500533   -0.662955
      8          7           0        1.527103    1.874957   -0.403901
      9          7           0       -3.348583   -3.178062    0.632808
     10          7           0       -0.746635    2.912259   -0.071170
     11          6           0        0.627046   -2.453861   -1.402592
     12          6           0        0.895273   -1.088560   -0.965919
     13          6           0       -0.808940   -2.649814   -1.437294
     14          6           0       -1.368943   -1.425588   -0.937968
     15          6           0        3.812136    1.491357   -0.323624
     16          6           0        2.509197    0.780857   -0.463183
     17          6           0        2.163330   -0.456277   -0.856054
     18          6           0        3.597839    2.791476    0.126861
     19          6           0        1.637912   -3.426748   -1.891189
     20          6           0       -5.469345   -2.596759    1.541861
     21          6           0       -3.624023   -1.905464    0.051179
     22          6           0        2.160434    3.080831   -0.063757
     23          6           0       -5.062703   -1.630842    0.394032
     24          6           0        5.128666    0.809550   -0.377872
     25          6           0       -2.772185   -1.105053   -0.632920
     26          6           0       -1.559780   -3.858322   -1.956816
     27          6           0       -4.377685   -3.700413    1.450679
     28          6           0        2.084766   -4.539125   -0.906916
     29          6           0        5.426862   -0.168921    0.720356
     30          6           0        4.619843    3.899167    0.499388
     31          6           0        1.288457    4.140576    0.255813
     32          6           0       -6.872445   -3.128523    1.411048
     33          6           0       -5.864782   -0.727710   -0.226497
     34          6           0       -0.111718    4.001412    0.176967
     35          6           0       -1.045703    5.189288    0.370858
     36          6           0       -2.254197    4.698434    0.259167
     37          6           0        3.091161   -4.036309    0.174070
     38          6           0       -5.595729    0.236165   -1.358335
     39          6           0        6.765782   -0.728927    0.826365
     40          6           0       -3.604666    5.344950    0.546197
     41          6           0       -2.115627    3.246218   -0.061154
     42          6           0       -0.545366    6.593309    0.846700
     43          6           0       -4.279605    5.637722   -0.733357
     44          1           0       -0.695300    0.434172   -0.258262
     45          1           0        3.049825   -1.045745   -0.936997
     46          1           0        2.458311   -2.851106   -2.365972
     47          1           0        1.176692   -3.896579   -2.761351
     48          1           0       -5.220192   -2.038927    2.626189
     49          1           0        4.795372   -0.032382   -1.220449
     50          1           0        5.963075    1.464449   -0.620577
     51          1           0       -3.089224   -0.067026   -0.818930
     52          1           0        0.626347    1.870667   -0.751198
     53          1           0       -1.643617   -4.850796   -1.356772
     54          1           0       -2.625688   -3.437262   -1.987162
     55          1           0       -1.336882   -4.037633   -3.131764
     56          1           0       -2.444838   -3.781717    0.384143
     57          1           0        1.248426   -5.055628   -0.527509
     58          1           0        2.608173   -5.288862   -1.499444
     59          1           0        4.504089   -0.913685    1.045154
     60          1           0        5.602972    0.303038    1.673417
     61          1           0        4.232363    4.746509   -0.152648
     62          1           0        5.579522    3.647942   -0.043152
     63          1           0        4.611364    4.160933    1.511488
     64          1           0        1.754185    5.160983    0.289030
     65          1           0       -7.631494   -2.450024    2.025366
     66          1           0       -6.987847   -3.894572    2.056220
     67          1           0       -7.088004   -3.547293    0.414215
     68          1           0       -6.891295   -0.864487    0.025586
     69          1           0       -5.078382    1.109232   -1.150367
     70          1           0       -6.465911    0.726516   -1.743859
     71          1           0       -5.060930   -0.515353   -2.129614
     72          1           0       -3.450660    6.298892    1.050913
     73          1           0       -4.261451    4.746063    1.222026
     74          1           0        0.146132    6.567459    1.673480
     75          1           0       -1.385368    7.285278    1.324592
     76          1           0       -0.112775    7.146347   -0.002511
     77          1           0       -3.671822    6.143932   -1.347626
     78          1           0       -5.215471    6.345889   -0.796583
     79          1           0       -4.666179    4.721418   -1.173302
     80          1           0        3.872129   -4.531883    1.862955
     81          1           0        7.915255   -2.049720    1.622894
 ---------------------------------------------------------------------

 SCF Done:  E(RB3LYP) =  -1949.16561550     A.U. after   16 cycles

 Excitation energies and oscillator strengths:

 Excited State   1:      Singlet-A      2.0400 eV  607.76 nm  f=0.3686  <S**2>=0.000
     156 ->157         0.70615
 This state for optimization and/or second-order correction.
 Total Energy, E(TD-HF/TD-DFT) =  -1949.09064604
 Copying the excited state density for this state as the 1-particle RhoCI density.

 The electronic state is 1-A.
 Alpha  occ. eigenvalues --  -19.20020 -19.18024 -19.14266 -19.11661 -19.11405
 Alpha  occ. eigenvalues --  -19.11035 -14.37974 -14.37237 -14.34686 -14.28517
 Alpha  occ. eigenvalues --  -10.33848 -10.32058 -10.29211 -10.26648 -10.24286
 Alpha  occ. eigenvalues --  -10.24234 -10.23654 -10.23562 -10.23261 -10.22474
 Alpha  occ. eigenvalues --  -10.21894 -10.21886 -10.21697 -10.21696 -10.21659
 Alpha  occ. eigenvalues --  -10.21489 -10.20993 -10.20753 -10.20607 -10.20597
 Alpha  occ. eigenvalues --  -10.20537 -10.20231 -10.20051 -10.19931 -10.19785
 Alpha  occ. eigenvalues --  -10.19348 -10.18786 -10.18679 -10.18624 -10.18551
 Alpha  occ. eigenvalues --  -10.18395 -10.18288 -10.16732  -1.10763  -1.07197
 Alpha  occ. eigenvalues --   -1.04169  -1.02957  -1.01889  -0.97197  -0.96161
 Alpha  occ. eigenvalues --   -0.95218  -0.93366  -0.92830  -0.82896  -0.81738
 Alpha  occ. eigenvalues --   -0.80711  -0.80532  -0.80336  -0.78404  -0.78047
 Alpha  occ. eigenvalues --   -0.76958  -0.75923  -0.75199  -0.74247  -0.72511
 Alpha  occ. eigenvalues --   -0.71367  -0.69483  -0.69292  -0.68360  -0.67891
 Alpha  occ. eigenvalues --   -0.67154  -0.64706  -0.64091  -0.61921  -0.61891
 Alpha  occ. eigenvalues --   -0.61253  -0.58085  -0.58040  -0.56563  -0.56004
 Alpha  occ. eigenvalues --   -0.55447  -0.54846  -0.54129  -0.53469  -0.52655
 Alpha  occ. eigenvalues --   -0.52092  -0.51743  -0.51228  -0.50334  -0.49457
 Alpha  occ. eigenvalues --   -0.48871  -0.48533  -0.48362  -0.47633  -0.47417
 Alpha  occ. eigenvalues --   -0.46885  -0.46412  -0.45774  -0.45473  -0.45413
 Alpha  occ. eigenvalues --   -0.44794  -0.44680  -0.44257  -0.43943  -0.43629
 Alpha  occ. eigenvalues --   -0.43267  -0.42788  -0.42633  -0.42343  -0.42248
 Alpha  occ. eigenvalues --   -0.42132  -0.41896  -0.41818  -0.41565  -0.40817
 Alpha  occ. eigenvalues --   -0.40592  -0.40318  -0.40229  -0.39845  -0.39633
 Alpha  occ. eigenvalues --   -0.39300  -0.38964  -0.38670  -0.38417  -0.38156
 Alpha  occ. eigenvalues --   -0.37943  -0.37648  -0.37380  -0.37024  -0.36733
 Alpha  occ. eigenvalues --   -0.36307  -0.35972  -0.35740  -0.35419  -0.34430
 Alpha  occ. eigenvalues --   -0.34098  -0.34045  -0.33946  -0.33730  -0.32473
 Alpha  occ. eigenvalues --   -0.32204  -0.31907  -0.30800  -0.30243  -0.29620
 Alpha  occ. eigenvalues --   -0.27802  -0.26940  -0.26781  -0.25927  -0.25399
 Alpha  occ. eigenvalues --   -0.24973  -0.24863  -0.24306  -0.23978  -0.21745
 Alpha  occ. eigenvalues --   -0.17996
 Alpha virt. eigenvalues --   -0.09771  -0.05251  -0.03268  -0.01407  -0.00407
 Alpha virt. eigenvalues --   -0.00102   0.01194   0.02669   0.03194   0.03828
 Alpha virt. eigenvalues --    0.04063   0.04419   0.04846   0.05213   0.06203

 Mulliken charges:
               1
     1  O   -0.183777
     2  O   -0.184926
     3  O   -0.255666
     4  O   -0.226859
     5  O   -0.282314
     6  O   -0.169689
     7  N   -0.140866
     8  N   -0.137889
     9  N   -0.215078
    10  N   -0.253214
    11  C   -0.118687
    12  C    0.125158
    13  C   -0.141858
    14  C    0.059437
    15  C   -0.055746
    16  C    0.059527
    17  C   -0.032385
    18  C   -0.157010
    19  C    0.096637
    20  C   -0.129473
    21  C    0.140961
    22  C    0.099240
    23  C   -0.042210
    24  C    0.079597
    25  C   -0.134987
    26  C   -0.031139
    27  C    0.141047
    28  C    0.073636
    29  C    0.007799
    30  C    0.112312
    31  C   -0.128564
    32  C    0.114935
    33  C   -0.120895
    34  C    0.043166
    35  C   -0.078298
    36  C   -0.205638
    37  C    0.141127
    38  C    0.077268
    39  C    0.144917
    40  C    0.136025
    41  C    0.134818
    42  C    0.063524
    43  C    0.012927
    44  H    0.173971
    45  H   -0.011690
    46  H    0.014877
    47  H   -0.010398
    48  H    0.077035
    49  H    0.042970
    50  H    0.021953
    51  H    0.029303
    52  H    0.105063
    53  H    0.053614
    54  H    0.035301
    55  H    0.050777
    56  H    0.168837
    57  H    0.008189
    58  H    0.036630
    59  H    0.093885
    60  H    0.011431
    61  H    0.027851
    62  H    0.024907
    63  H    0.032805
    64  H   -0.017535
    65  H    0.022618
    66  H   -0.022010
    67  H    0.024694
    68  H   -0.015753
    69  H    0.038566
    70  H   -0.008162
    71  H    0.053356
    72  H   -0.021484
    73  H    0.016662
    74  H    0.026768
    75  H    0.026449
    76  H    0.031092
    77  H   -0.023230
    78  H    0.001499
    79  H    0.020110
    80  H    0.202179
    81  H    0.219980
 Sum of Mulliken charges =  -0.00000

 Dipole moment (field-independent basis, Debye):
    X=              1.4934    Y=              0.6170    Z=              0.1352  Tot=              1.6215
 Quadrupole moment (field-independent basis, Debye-Ang):
   XX=           -256.9385   YY=           -232.4559   ZZ=           -253.7399
   XY=            -12.7347   XZ=             15.8675   YZ=             13.0473

 Normal termination of Gaussian 16 at Mon Jul  1 17:05:54 2019.
