 Gaussian 16, Revision A.03,
 Gaussian 16:  ES64L-G16RevA.03 25-Dec-2016

 --------------------------
 # td=(NStates=1) B3LYP/SVP
 --------------------------

 --
 TD
 --
 Symbolic Z-matrix:
 Charge =  0 Multiplicity = 1

                         Standard orientation:
 ---------------------------------------------------------------------
 Center     Atomic      Atomic             Coordinates (Angstroms)
 Number     Number       Type             X           Y           Z
 ---------------------------------------------------------------------
      1          8           0       -4.557560   -4.683816    1.941516
      2          8           0        2.930625   -4.869612    1.383823
      3          8           0        7.196868   -1.367749    1.728745
      4          8           0        3.673920   -3.252066    0.113360
      5          8           0        7.616588   -0.562406   -0.228430
      6          8           0       -3.104479    2.466479   -0.253245
      7          7           0       -0.250184   -0.602103   -0.675060
      8          7           0        1.548920    1.790505   -0.324959
      9          7           0       -3.423104   -3.223059    0.698423
     10          7           0       -0.811080    2.961995   -0.274030
     11          6           0        0.693114   -2.398821   -1.294459
     12          6           0        0.976257   -1.158257   -0.932232
     13          6           0       -0.703562   -2.585101   -1.284048
     14          6           0       -1.270519   -1.488994   -0.737941
     15          6           0        3.752139    1.379692   -0.400407
     16          6           0        2.473440    0.806703   -0.604041
     17          6           0        2.175730   -0.466974   -0.890616
     18          6           0        3.603337    2.683840    0.023626
     19          6           0        1.697545   -3.494038   -1.801901
     20          6           0       -5.625123   -2.597529    1.297117
     21          6           0       -3.581551   -1.861125    0.215417
     22          6           0        2.147600    2.978091   -0.008862
     23          6           0       -5.010647   -1.478106    0.375095
     24          6           0        5.116698    0.692594   -0.454536
     25          6           0       -2.626711   -1.086921   -0.407024
     26          6           0       -1.584339   -3.794991   -1.790833
     27          6           0       -4.532165   -3.645799    1.349990
     28          6           0        1.993228   -4.593124   -0.747153
     29          6           0        5.483151   -0.028018    0.807381
     30          6           0        4.648653    3.718123    0.465729
     31          6           0        1.399384    4.104596    0.161038
     32          6           0       -6.972482   -3.186675    0.911124
     33          6           0       -5.697445   -0.571032   -0.233558
     34          6           0       -0.089446    4.074168    0.040304
     35          6           0       -1.070190    5.233064    0.357881
     36          6           0       -2.267885    4.663838    0.228430
     37          6           0        2.991655   -4.118881    0.277312
     38          6           0       -5.334951    0.381975   -1.374367
     39          6           0        6.865281   -0.656361    0.662435
     40          6           0       -3.629755    5.357340    0.557045
     41          6           0       -2.144606    3.275134   -0.119153
     42          6           0       -0.553719    6.493265    0.961282
     43          6           0       -4.385883    5.778440   -0.658533
     44          1           0       -0.391406    0.230682    0.087021
     45          1           0        2.996487   -1.062759   -0.799301
     46          1           0        2.722533   -3.037052   -1.885613
     47          1           0        1.265747   -4.001389   -2.852866
     48          1           0       -5.598966   -2.387280    2.354490
     49          1           0        5.182186   -0.039099   -1.254005
     50          1           0        5.857930    1.544200   -0.847777
     51          1           0       -3.139630   -0.067644   -0.326913
     52          1           0        0.571817    1.744279   -0.653881
     53          1           0       -1.565301   -4.626192   -0.965126
     54          1           0       -2.663985   -3.671555   -1.801853
     55          1           0       -1.323011   -4.198578   -2.871383
     56          1           0       -2.602316   -3.998105    0.658701
     57          1           0        1.067364   -5.025833   -0.375982
     58          1           0        2.406261   -5.632394   -1.160714
     59          1           0        4.821283   -0.867037    1.188891
     60          1           0        5.602489    0.826377    1.561011
     61          1           0        4.518824    4.665610   -0.029111
     62          1           0        5.678917    3.443877    0.366242
     63          1           0        4.586297    3.945210    1.467821
     64          1           0        1.867313    4.890920    0.518946
     65          1           0       -7.741674   -2.420035    1.090197
     66          1           0       -7.284328   -4.113068    1.496441
     67          1           0       -7.023083   -3.345998   -0.254169
     68          1           0       -6.649418   -0.281080    0.299912
     69          1           0       -5.000338    1.188953   -0.684737
     70          1           0       -6.248131    0.476591   -1.899548
     71          1           0       -4.428179    0.083734   -2.002115
     72          1           0       -3.285673    6.192146    1.174785
     73          1           0       -4.341806    4.749747    1.231059
     74          1           0        0.081908    6.373846    1.947866
     75          1           0       -1.398425    7.163673    1.144439
     76          1           0        0.115782    7.301934    0.396466
     77          1           0       -3.716331    6.397177   -1.370980
     78          1           0       -5.423608    6.391050   -0.366482
     79          1           0       -4.498316    4.702917   -1.011911
     80          1           0        3.812557   -4.582354    1.742398
     81          1           0        8.051285   -1.754180    1.521777
 ---------------------------------------------------------------------

 SCF Done:  E(RB3LYP) =  -1949.12104429     A.U. after   16 cycles

 Excitation energies and oscillator strengths:

 Excited State   1:      Singlet-A      1.9125 eV  648.28 nm  f=0.2997  <S**2>=0.000
     156 ->157         0.70227
     156 <-157        -0.10018
 This state for optimization and/or second-order correction.
 Total Energy, E(TD-HF/TD-DFT) =  -1949.05076061
 Copying the excited state density for this state as the 1-particle RhoCI density.

 The electronic state is 1-A.
 Alpha  occ. eigenvalues --  -19.19187 -19.18072 -19.15239 -19.12781 -19.10857
 Alpha  occ. eigenvalues --  -19.09437 -14.36882 -14.36675 -14.35645 -14.29523
 Alpha  occ. eigenvalues --  -10.32554 -10.31669 -10.27280 -10.26670 -10.24575
 Alpha  occ. eigenvalues --  -10.24381 -10.24364 -10.22770 -10.22476 -10.21890
 Alpha  occ. eigenvalues --  -10.21847 -10.21734 -10.21484 -10.21249 -10.21202
 Alpha  occ. eigenvalues --  -10.21137 -10.21122 -10.21017 -10.20823 -10.19861
 Alpha  occ. eigenvalues --  -10.19767 -10.19582 -10.19415 -10.19346 -10.19346
 Alpha  occ. eigenvalues --  -10.19305 -10.19166 -10.19092 -10.19079 -10.19071
 Alpha  occ. eigenvalues --  -10.18952 -10.18845 -10.17956  -1.15154  -1.12269
 Alpha  occ. eigenvalues --   -1.05359  -1.03617  -1.02138  -1.00080  -0.99458
 Alpha  occ. eigenvalues --   -0.98176  -0.92977  -0.91746  -0.83103  -0.82115
 Alpha  occ. eigenvalues --   -0.81404  -0.80690  -0.80008  -0.78863  -0.78025
 Alpha  occ. eigenvalues --   -0.76827  -0.76813  -0.75305  -0.74691  -0.72947
 Alpha  occ. eigenvalues --   -0.71851  -0.69751  -0.68663  -0.68132  -0.67785
 Alpha  occ. eigenvalues --   -0.66524  -0.65265  -0.64664  -0.62496  -0.60479
 Alpha  occ. eigenvalues --   -0.59792  -0.59109  -0.58722  -0.57679  -0.56627
 Alpha  occ. eigenvalues --   -0.55880  -0.55525  -0.54630  -0.53816  -0.53257
 Alpha  occ. eigenvalues --   -0.52558  -0.52260  -0.51759  -0.51243  -0.50471
 Alpha  occ. eigenvalues --   -0.50110  -0.49811  -0.49081  -0.48723  -0.47912
 Alpha  occ. eigenvalues --   -0.47392  -0.47020  -0.46398  -0.46211  -0.45497
 Alpha  occ. eigenvalues --   -0.44909  -0.44506  -0.43861  -0.43439  -0.43366
 Alpha  occ. eigenvalues --   -0.43200  -0.43057  -0.42653  -0.42542  -0.42240
 Alpha  occ. eigenvalues --   -0.41966  -0.41846  -0.41653  -0.41253  -0.41109
 Alpha  occ. eigenvalues --   -0.40783  -0.40569  -0.40140  -0.40007  -0.39682
 Alpha  occ. eigenvalues --   -0.39382  -0.39192  -0.39105  -0.38775  -0.38422
 Alpha  occ. eigenvalues --   -0.37863  -0.37781  -0.37114  -0.36496  -0.36309
 Alpha  occ. eigenvalues --   -0.36086  -0.35617  -0.35356  -0.35159  -0.34473
 Alpha  occ. eigenvalues --   -0.34389  -0.33837  -0.33671  -0.33155  -0.33079
 Alpha  occ. eigenvalues --   -0.32943  -0.32654  -0.31808  -0.30979  -0.30124
 Alpha  occ. eigenvalues --   -0.28832  -0.27334  -0.26747  -0.26079  -0.25532
 Alpha  occ. eigenvalues --   -0.25088  -0.24806  -0.24681  -0.24362  -0.21921
 Alpha  occ. eigenvalues --   -0.18461
 Alpha virt. eigenvalues --   -0.10768  -0.06402  -0.03442   0.00520   0.01124
 Alpha virt. eigenvalues --    0.01772   0.02220   0.02617   0.03522   0.03674
 Alpha virt. eigenvalues --    0.04326   0.04740   0.05214   0.05746   0.06269

 Mulliken charges:
               1
     1  O   -0.208346
     2  O   -0.174985
     3  O   -0.159285
     4  O   -0.130267
     5  O   -0.190317
     6  O   -0.243715
     7  N   -0.117571
     8  N   -0.097628
     9  N   -0.185726
    10  N   -0.278043
    11  C   -0.086617
    12  C    0.079229
    13  C   -0.138570
    14  C    0.102471
    15  C   -0.075932
    16  C    0.084517
    17  C   -0.052841
    18  C   -0.126044
    19  C    0.064518
    20  C   -0.005587
    21  C    0.075724
    22  C    0.103708
    23  C    0.037276
    24  C    0.053484
    25  C   -0.121575
    26  C    0.019052
    27  C    0.038610
    28  C   -0.033508
    29  C   -0.000794
    30  C    0.166665
    31  C   -0.033905
    32  C    0.025036
    33  C   -0.242646
    34  C    0.046044
    35  C   -0.023728
    36  C   -0.184675
    37  C    0.094048
    38  C    0.061672
    39  C    0.082941
    40  C    0.080278
    41  C    0.167716
    42  C    0.005135
    43  C   -0.061138
    44  H    0.181716
    45  H   -0.048928
    46  H    0.020933
    47  H    0.038489
    48  H    0.022723
    49  H    0.005475
    50  H    0.048487
    51  H    0.041733
    52  H    0.147880
    53  H    0.015728
    54  H    0.021549
    55  H    0.044734
    56  H    0.176939
    57  H    0.016362
    58  H    0.048980
    59  H    0.063859
    60  H    0.043276
    61  H    0.014820
    62  H   -0.003738
    63  H   -0.005008
    64  H   -0.099240
    65  H    0.008087
    66  H    0.048108
    67  H    0.024202
    68  H    0.013153
    69  H    0.084706
    70  H    0.014640
    71  H    0.048558
    72  H   -0.021491
    73  H    0.023548
    74  H    0.051563
    75  H    0.011643
    76  H    0.035943
    77  H    0.025497
    78  H    0.039827
    79  H    0.043916
    80  H    0.170266
    81  H    0.166384
 Sum of Mulliken charges =  -0.00000

 Dipole moment (field-independent basis, Debye):
    X=              4.2985    Y=              1.6018    Z=              1.2151  Tot=              4.7454
 Quadrupole moment (field-independent basis, Debye-Ang):
   XX=           -246.7496   YY=           -238.0745   ZZ=           -259.2626
   XY=            -14.1686   XZ=             17.0364   YZ=             17.8187

 Normal termination of Gaussian 16 at Fri Jul  5 13:06:56 2019.
