 Gaussian 16, Revision A.03,
 Gaussian 16:  ES64L-G16RevA.03 25-Dec-2016

 --------------------------
 # td=(NStates=1) B3LYP/SVP
 --------------------------

 --
 TD
 --
 Symbolic Z-matrix:
 Charge =  0 Multiplicity = 1

                         Standard orientation:
 ---------------------------------------------------------------------
 Center     Atomic      Atomic             Coordinates (Angstroms)
 Number     Number       Type             X           Y           Z
 ---------------------------------------------------------------------
      1          8           0       -4.593470   -4.703806    1.970715
      2          8           0        3.040776   -4.788660    1.241937
      3          8           0        6.912880   -1.372607    2.122446
      4          8           0        3.844113   -3.205824   -0.060383
      5          8           0        7.492059   -0.897783   -0.103654
      6          8           0       -2.940898    2.443877   -0.281971
      7          7           0       -0.382622   -0.596562   -0.612277
      8          7           0        1.582878    1.806044   -0.468081
      9          7           0       -3.467983   -3.058775    0.678589
     10          7           0       -0.647374    2.934773   -0.171301
     11          6           0        0.533390   -2.450404   -1.271028
     12          6           0        0.866891   -1.103848   -0.898863
     13          6           0       -0.802056   -2.625966   -1.170418
     14          6           0       -1.314188   -1.532331   -0.669299
     15          6           0        3.777123    1.427558   -0.477335
     16          6           0        2.546546    0.795038   -0.779829
     17          6           0        2.193750   -0.552977   -0.844049
     18          6           0        3.548257    2.765534   -0.081954
     19          6           0        1.503062   -3.477386   -1.927262
     20          6           0       -5.655527   -2.543475    1.337856
     21          6           0       -3.663206   -1.741414    0.091139
     22          6           0        2.162327    2.939086   -0.155013
     23          6           0       -5.100693   -1.477415    0.353944
     24          6           0        5.160806    0.632858   -0.496145
     25          6           0       -2.674876   -1.012165   -0.524545
     26          6           0       -1.443248   -3.877671   -1.633563
     27          6           0       -4.604425   -3.678875    1.312268
     28          6           0        1.969132   -4.522889   -0.907394
     29          6           0        5.410839   -0.133505    0.793697
     30          6           0        4.627847    3.704212    0.452672
     31          6           0        1.412178    4.082749    0.152866
     32          6           0       -7.082664   -3.056977    0.901799
     33          6           0       -5.865641   -0.472029   -0.032036
     34          6           0        0.000387    4.018562    0.112181
     35          6           0       -0.953259    5.126551    0.434375
     36          6           0       -2.222211    4.673404    0.379506
     37          6           0        3.054310   -4.142267    0.139222
     38          6           0       -5.279183    0.593256   -1.077638
     39          6           0        6.798734   -0.760654    0.888862
     40          6           0       -3.490254    5.394667    0.535283
     41          6           0       -2.063427    3.203548   -0.106187
     42          6           0       -0.373426    6.524132    0.894979
     43          6           0       -4.220627    5.676876   -0.799831
     44          1           0       -0.292315    0.236777   -0.062979
     45          1           0        3.007228   -1.223859   -1.397273
     46          1           0        2.457052   -2.837541   -2.140338
     47          1           0        1.152090   -4.073700   -2.915600
     48          1           0       -5.532535   -2.363583    2.385139
     49          1           0        5.118349   -0.298279   -1.347160
     50          1           0        5.907945    1.378167   -0.779764
     51          1           0       -2.641006    0.039566   -0.762915
     52          1           0        0.530758    1.919399   -0.687096
     53          1           0       -0.985435   -4.903323   -0.946512
     54          1           0       -2.633562   -3.819621   -1.608906
     55          1           0       -1.339513   -4.139144   -2.703552
     56          1           0       -2.460269   -3.381944    0.443424
     57          1           0        1.222905   -4.996138   -0.204964
     58          1           0        2.481960   -5.339123   -1.277967
     59          1           0        4.633889   -0.881590    0.707496
     60          1           0        5.310850    0.505626    1.782649
     61          1           0        4.450851    4.759505   -0.022537
     62          1           0        5.729303    3.621957    0.344381
     63          1           0        4.555904    3.650907    1.586605
     64          1           0        1.860974    5.025888    0.684538
     65          1           0       -7.928845   -2.241890    1.023275
     66          1           0       -7.500027   -4.000069    1.439802
     67          1           0       -7.127010   -3.497550   -0.092574
     68          1           0       -6.920143   -0.366254    0.040287
     69          1           0       -4.702938    1.369335   -0.454937
     70          1           0       -6.286043    0.887395   -1.649838
     71          1           0       -4.673355    0.069963   -1.792824
     72          1           0       -3.321254    6.287392    1.175029
     73          1           0       -3.939897    4.574220    1.179770
     74          1           0        0.435739    6.520714    1.675528
     75          1           0       -1.186290    7.205079    1.254298
     76          1           0        0.027868    7.060428   -0.021485
     77          1           0       -3.753450    6.654243   -1.401520
     78          1           0       -5.185583    6.046519   -0.581329
     79          1           0       -4.141704    4.766967   -1.282574
     80          1           0        3.713085   -4.248427    1.758672
     81          1           0        7.776428   -1.742648    1.982977
 ---------------------------------------------------------------------

 SCF Done:  E(RB3LYP) =  -1949.09897438     A.U. after   16 cycles

 Excitation energies and oscillator strengths:

 Excited State   1:      Singlet-A      1.9908 eV  622.79 nm  f=0.4026  <S**2>=0.000
     156 ->157         0.70576
     156 <-157        -0.11099
 This state for optimization and/or second-order correction.
 Total Energy, E(TD-HF/TD-DFT) =  -1949.02581380
 Copying the excited state density for this state as the 1-particle RhoCI density.

 The electronic state is 1-A.
 Alpha  occ. eigenvalues --  -19.21346 -19.19245 -19.13867 -19.12992 -19.12332
 Alpha  occ. eigenvalues --  -19.11493 -14.37697 -14.36865 -14.34632 -14.29011
 Alpha  occ. eigenvalues --  -10.33120 -10.32568 -10.29880 -10.27849 -10.24820
 Alpha  occ. eigenvalues --  -10.23278 -10.23184 -10.23169 -10.22901 -10.22825
 Alpha  occ. eigenvalues --  -10.22693 -10.22396 -10.22265 -10.21532 -10.21421
 Alpha  occ. eigenvalues --  -10.21073 -10.21049 -10.20767 -10.20427 -10.20339
 Alpha  occ. eigenvalues --  -10.20136 -10.20119 -10.19855 -10.19832 -10.19775
 Alpha  occ. eigenvalues --  -10.19433 -10.19146 -10.19136 -10.18706 -10.18691
 Alpha  occ. eigenvalues --  -10.18660 -10.18407 -10.18139  -1.14094  -1.09941
 Alpha  occ. eigenvalues --   -1.05340  -1.02724  -1.01754  -1.01225  -1.00496
 Alpha  occ. eigenvalues --   -0.98333  -0.92844  -0.92639  -0.83124  -0.81870
 Alpha  occ. eigenvalues --   -0.80883  -0.80360  -0.79922  -0.78927  -0.78127
 Alpha  occ. eigenvalues --   -0.76833  -0.75701  -0.74440  -0.73446  -0.71651
 Alpha  occ. eigenvalues --   -0.70571  -0.69438  -0.68705  -0.68263  -0.67146
 Alpha  occ. eigenvalues --   -0.66754  -0.65169  -0.64035  -0.62846  -0.61569
 Alpha  occ. eigenvalues --   -0.60896  -0.58612  -0.58357  -0.58127  -0.57610
 Alpha  occ. eigenvalues --   -0.55943  -0.54752  -0.54397  -0.53941  -0.52794
 Alpha  occ. eigenvalues --   -0.52037  -0.51338  -0.51123  -0.50264  -0.49686
 Alpha  occ. eigenvalues --   -0.49605  -0.49396  -0.48783  -0.48236  -0.47376
 Alpha  occ. eigenvalues --   -0.46862  -0.46580  -0.46504  -0.46290  -0.45626
 Alpha  occ. eigenvalues --   -0.45202  -0.44470  -0.44269  -0.43902  -0.43786
 Alpha  occ. eigenvalues --   -0.43625  -0.42952  -0.42617  -0.42372  -0.41833
 Alpha  occ. eigenvalues --   -0.41765  -0.41517  -0.41197  -0.41040  -0.40876
 Alpha  occ. eigenvalues --   -0.40577  -0.40298  -0.39835  -0.39618  -0.39550
 Alpha  occ. eigenvalues --   -0.39529  -0.38698  -0.38397  -0.38233  -0.37806
 Alpha  occ. eigenvalues --   -0.37688  -0.37565  -0.36844  -0.36420  -0.36252
 Alpha  occ. eigenvalues --   -0.36109  -0.35668  -0.35470  -0.35088  -0.34797
 Alpha  occ. eigenvalues --   -0.34660  -0.34334  -0.34008  -0.33578  -0.33341
 Alpha  occ. eigenvalues --   -0.33027  -0.32374  -0.31475  -0.30869  -0.28582
 Alpha  occ. eigenvalues --   -0.28474  -0.28265  -0.26976  -0.26588  -0.26082
 Alpha  occ. eigenvalues --   -0.25326  -0.24832  -0.24578  -0.23884  -0.21862
 Alpha  occ. eigenvalues --   -0.18284
 Alpha virt. eigenvalues --   -0.10401  -0.05533  -0.03724  -0.01345  -0.00350
 Alpha virt. eigenvalues --    0.00035   0.01700   0.02165   0.03455   0.04159
 Alpha virt. eigenvalues --    0.04742   0.04936   0.05152   0.05673   0.06081

 Mulliken charges:
               1
     1  O   -0.208733
     2  O   -0.112758
     3  O   -0.174500
     4  O   -0.285632
     5  O   -0.222272
     6  O   -0.144459
     7  N   -0.012234
     8  N   -0.127924
     9  N   -0.236355
    10  N   -0.316800
    11  C   -0.084322
    12  C   -0.024431
    13  C   -0.078757
    14  C   -0.012646
    15  C   -0.088441
    16  C    0.073197
    17  C   -0.046136
    18  C   -0.107917
    19  C    0.072618
    20  C   -0.040054
    21  C    0.180343
    22  C    0.100094
    23  C    0.048122
    24  C    0.034763
    25  C   -0.126685
    26  C   -0.036049
    27  C    0.177750
    28  C    0.052938
    29  C   -0.022283
    30  C    0.026423
    31  C   -0.163458
    32  C   -0.012438
    33  C   -0.174224
    34  C    0.052523
    35  C   -0.072950
    36  C   -0.220778
    37  C    0.066036
    38  C   -0.021701
    39  C    0.164123
    40  C    0.037127
    41  C    0.158214
    42  C    0.056025
    43  C    0.044901
    44  H    0.132155
    45  H    0.069688
    46  H    0.028795
    47  H    0.046108
    48  H    0.045806
    49  H    0.049118
    50  H    0.015632
    51  H    0.023452
    52  H    0.168020
    53  H    0.053612
    54  H    0.046634
    55  H    0.032105
    56  H    0.156369
    57  H    0.029481
    58  H    0.007946
    59  H    0.056355
    60  H    0.038837
    61  H    0.039768
    62  H    0.021293
    63  H    0.037470
    64  H    0.007023
    65  H    0.040957
    66  H    0.030745
    67  H    0.011541
    68  H   -0.008243
    69  H    0.100767
    70  H    0.012704
    71  H    0.025574
    72  H   -0.000202
    73  H    0.024215
    74  H    0.039971
    75  H    0.008747
    76  H    0.028464
    77  H    0.023877
    78  H    0.009279
    79  H    0.021561
    80  H    0.199117
    81  H    0.154997
 Sum of Mulliken charges =  -0.00000

 Dipole moment (field-independent basis, Debye):
    X=              2.2592    Y=              1.0005    Z=              0.5614  Tot=              2.5338
 Quadrupole moment (field-independent basis, Debye-Ang):
   XX=           -251.6277   YY=           -241.5526   ZZ=           -256.0590
   XY=            -14.2161   XZ=             20.7645   YZ=             15.6446

 Normal termination of Gaussian 16 at Sun Jun 30 10:57:36 2019.
