 Gaussian 16, Revision A.03,
 Gaussian 16:  ES64L-G16RevA.03 25-Dec-2016

 --------------------------
 # td=(NStates=1) B3LYP/SVP
 --------------------------

 --
 TD
 --
 Symbolic Z-matrix:
 Charge =  0 Multiplicity = 1

                         Standard orientation:
 ---------------------------------------------------------------------
 Center     Atomic      Atomic             Coordinates (Angstroms)
 Number     Number       Type             X           Y           Z
 ---------------------------------------------------------------------
      1          8           0        4.571732   -4.728712   -1.804047
      2          8           0       -2.863768   -5.082774   -1.050731
      3          8           0       -6.991186   -1.572818   -2.055396
      4          8           0       -3.563584   -3.233015    0.054120
      5          8           0       -7.672839   -0.571892   -0.088473
      6          8           0        3.013107    2.501243    0.283677
      7          7           0        0.306069   -0.572810    0.514136
      8          7           0       -1.660101    1.745045    0.327858
      9          7           0        3.406765   -3.141609   -0.658254
     10          7           0        0.728015    2.953168    0.090698
     11          6           0       -0.574703   -2.424695    1.434012
     12          6           0       -0.879025   -1.103237    0.998181
     13          6           0        0.909048   -2.524409    1.408373
     14          6           0        1.367984   -1.364348    0.691285
     15          6           0       -3.870811    1.351276    0.353756
     16          6           0       -2.545475    0.707457    0.590372
     17          6           0       -2.191101   -0.618573    0.825940
     18          6           0       -3.654351    2.657405   -0.032053
     19          6           0       -1.525987   -3.462480    2.016657
     20          6           0        5.577638   -2.475512   -1.435810
     21          6           0        3.678835   -1.785501   -0.238269
     22          6           0       -2.255849    2.868960    0.016638
     23          6           0        5.044502   -1.440437   -0.581418
     24          6           0       -5.128966    0.547924    0.414213
     25          6           0        2.693167   -0.963620    0.344179
     26          6           0        1.674801   -3.687942    1.927025
     27          6           0        4.466245   -3.636353   -1.325997
     28          6           0       -1.907353   -4.635778    1.083466
     29          6           0       -5.343974   -0.282086   -0.871190
     30          6           0       -4.687122    3.692743   -0.447352
     31          6           0       -1.495982    4.087049   -0.196929
     32          6           0        7.013082   -3.061471   -1.124395
     33          6           0        5.854663   -0.533358   -0.002326
     34          6           0       -0.042632    4.008532   -0.072957
     35          6           0        0.836807    5.205008   -0.434827
     36          6           0        2.151130    4.765707   -0.318422
     37          6           0       -2.838227   -4.222499    0.009230
     38          6           0        5.562554    0.678683    0.960581
     39          6           0       -6.886705   -0.843597   -0.949650
     40          6           0        3.423720    5.424975   -0.456956
     41          6           0        2.064656    3.256145    0.068393
     42          6           0        0.395399    6.656287   -0.599023
     43          6           0        4.029831    5.808980    0.869290
     44          1           0        0.307250    0.242261    0.199572
     45          1           0       -2.982434   -1.328640    0.947626
     46          1           0       -2.529187   -2.951875    2.470155
     47          1           0       -1.035732   -3.891893    2.878935
     48          1           0        5.506642   -2.256039   -2.568947
     49          1           0       -5.213956   -0.137249    1.144886
     50          1           0       -5.984053    1.421662    0.635433
     51          1           0        3.097925    0.046383    0.445687
     52          1           0       -0.594147    1.829153    0.382779
     53          1           0        1.505298   -4.711971    1.356771
     54          1           0        2.826129   -3.519410    1.977305
     55          1           0        1.277253   -4.001901    2.969408
     56          1           0        2.566257   -3.577641   -0.642896
     57          1           0       -0.958821   -4.961978    0.650665
     58          1           0       -2.421486   -5.427507    1.626024
     59          1           0       -4.732393   -1.065624   -0.775740
     60          1           0       -5.197591    0.374177   -1.871550
     61          1           0       -4.831742    4.601848    0.286036
     62          1           0       -5.615822    3.338085   -0.458529
     63          1           0       -4.496093    4.065942   -1.501080
     64          1           0       -2.036033    4.906901   -0.458403
     65          1           0        8.007282   -2.445970   -1.353559
     66          1           0        7.045509   -3.860708   -1.868496
     67          1           0        7.088941   -3.581376   -0.225286
     68          1           0        6.944783   -0.547655   -0.282794
     69          1           0        5.040639    1.571763    0.461724
     70          1           0        6.489641    0.866071    1.627441
     71          1           0        4.648366    0.424527    1.696443
     72          1           0        3.442690    6.318906   -1.218741
     73          1           0        4.191552    4.734785   -0.799972
     74          1           0       -0.134590    6.699656   -1.543223
     75          1           0        1.166429    7.499382   -0.587348
     76          1           0       -0.218922    6.884454    0.163974
     77          1           0        3.072663    6.377187    1.450504
     78          1           0        4.849508    6.444972    0.681782
     79          1           0        4.393313    5.027748    1.463506
     80          1           0       -3.516898   -4.737873   -1.603162
     81          1           0       -7.875902   -1.960784   -1.935297
 ---------------------------------------------------------------------

 SCF Done:  E(RB3LYP) =  -1949.16247800     A.U. after   16 cycles

 Excitation energies and oscillator strengths:

 Excited State   1:      Singlet-A      1.9830 eV  625.25 nm  f=0.3640  <S**2>=0.000
     156 ->157         0.70509
     156 <-157        -0.10009
 This state for optimization and/or second-order correction.
 Total Energy, E(TD-HF/TD-DFT) =  -1949.08960525
 Copying the excited state density for this state as the 1-particle RhoCI density.

 The electronic state is 1-A.
 Alpha  occ. eigenvalues --  -19.20670 -19.19938 -19.15096 -19.14122 -19.10710
 Alpha  occ. eigenvalues --  -19.10544 -14.37168 -14.36819 -14.35915 -14.29035
 Alpha  occ. eigenvalues --  -10.34276 -10.33042 -10.28595 -10.26866 -10.24886
 Alpha  occ. eigenvalues --  -10.24048 -10.23729 -10.23638 -10.23533 -10.23116
 Alpha  occ. eigenvalues --  -10.22329 -10.22217 -10.21637 -10.21428 -10.21024
 Alpha  occ. eigenvalues --  -10.20787 -10.20639 -10.20554 -10.20360 -10.20270
 Alpha  occ. eigenvalues --  -10.20105 -10.19988 -10.19924 -10.19521 -10.19419
 Alpha  occ. eigenvalues --  -10.19413 -10.19131 -10.18796 -10.18651 -10.18397
 Alpha  occ. eigenvalues --  -10.18164 -10.18070 -10.17626  -1.11955  -1.11926
 Alpha  occ. eigenvalues --   -1.04153  -1.03277  -1.02557  -1.00982  -1.00256
 Alpha  occ. eigenvalues --   -0.98981  -0.95502  -0.91932  -0.82811  -0.82326
 Alpha  occ. eigenvalues --   -0.81972  -0.81389  -0.79430  -0.79290  -0.78196
 Alpha  occ. eigenvalues --   -0.76588  -0.75728  -0.74733  -0.73175  -0.71937
 Alpha  occ. eigenvalues --   -0.70989  -0.70126  -0.69642  -0.68661  -0.67922
 Alpha  occ. eigenvalues --   -0.67462  -0.65409  -0.64389  -0.62285  -0.61910
 Alpha  occ. eigenvalues --   -0.61237  -0.59986  -0.59498  -0.58777  -0.57712
 Alpha  occ. eigenvalues --   -0.56203  -0.55786  -0.55211  -0.54615  -0.53275
 Alpha  occ. eigenvalues --   -0.52289  -0.52100  -0.51213  -0.50819  -0.50597
 Alpha  occ. eigenvalues --   -0.50406  -0.49321  -0.48949  -0.48690  -0.47649
 Alpha  occ. eigenvalues --   -0.46871  -0.46803  -0.46198  -0.45500  -0.45106
 Alpha  occ. eigenvalues --   -0.44948  -0.44732  -0.44424  -0.44141  -0.43946
 Alpha  occ. eigenvalues --   -0.43610  -0.43385  -0.42946  -0.42894  -0.42583
 Alpha  occ. eigenvalues --   -0.42225  -0.41646  -0.41525  -0.41249  -0.41052
 Alpha  occ. eigenvalues --   -0.40913  -0.40702  -0.40297  -0.39894  -0.39744
 Alpha  occ. eigenvalues --   -0.39382  -0.39259  -0.38746  -0.38364  -0.38271
 Alpha  occ. eigenvalues --   -0.37897  -0.37606  -0.37535  -0.37287  -0.36904
 Alpha  occ. eigenvalues --   -0.36730  -0.36608  -0.35939  -0.34827  -0.34572
 Alpha  occ. eigenvalues --   -0.34474  -0.34449  -0.34266  -0.33923  -0.33425
 Alpha  occ. eigenvalues --   -0.33140  -0.32684  -0.31173  -0.30518  -0.30324
 Alpha  occ. eigenvalues --   -0.28559  -0.27121  -0.26783  -0.25554  -0.25474
 Alpha  occ. eigenvalues --   -0.24911  -0.24237  -0.23933  -0.22558  -0.21585
 Alpha  occ. eigenvalues --   -0.18236
 Alpha virt. eigenvalues --   -0.10226  -0.05660  -0.04275  -0.02380   0.00511
 Alpha virt. eigenvalues --    0.01064   0.01740   0.02866   0.03625   0.04196
 Alpha virt. eigenvalues --    0.04577   0.04810   0.05547   0.05833   0.06363

 Mulliken charges:
               1
     1  O   -0.194316
     2  O   -0.148721
     3  O   -0.142997
     4  O   -0.238857
     5  O   -0.201877
     6  O   -0.216926
     7  N    0.105881
     8  N   -0.077863
     9  N   -0.060285
    10  N   -0.278701
    11  C   -0.119373
    12  C    0.048899
    13  C   -0.127711
    14  C    0.083424
    15  C   -0.078161
    16  C    0.078820
    17  C   -0.028334
    18  C   -0.134773
    19  C    0.057269
    20  C   -0.121816
    21  C    0.028709
    22  C    0.023721
    23  C    0.062619
    24  C    0.103836
    25  C   -0.076996
    26  C   -0.019897
    27  C    0.072378
    28  C    0.059016
    29  C   -0.019362
    30  C    0.125749
    31  C   -0.045867
    32  C    0.053534
    33  C   -0.141575
    34  C    0.099068
    35  C   -0.139679
    36  C   -0.179246
    37  C    0.123831
    38  C   -0.034776
    39  C    0.129523
    40  C    0.067263
    41  C    0.169165
    42  C    0.138021
    43  C   -0.002799
    44  H   -0.002549
    45  H   -0.000217
    46  H    0.038328
    47  H   -0.004490
    48  H    0.053821
    49  H   -0.023047
    50  H    0.038181
    51  H    0.006620
    52  H    0.166619
    53  H    0.032102
    54  H    0.055036
    55  H    0.030365
    56  H    0.094854
    57  H    0.037072
    58  H    0.049354
    59  H    0.000317
    60  H    0.052969
    61  H    0.035129
    62  H   -0.040430
    63  H    0.031151
    64  H   -0.071329
    65  H    0.038010
    66  H    0.016975
    67  H   -0.001589
    68  H    0.011334
    69  H    0.093469
    70  H    0.031489
    71  H    0.035756
    72  H    0.013354
    73  H   -0.005804
    74  H    0.013172
    75  H    0.023756
    76  H   -0.006296
    77  H    0.014984
    78  H   -0.001229
    79  H    0.017550
    80  H    0.155593
    81  H    0.169803
 Sum of Mulliken charges =  -0.00000

 Dipole moment (field-independent basis, Debye):
    X=             -4.3899    Y=             -1.0252    Z=             -0.4118  Tot=              4.5268
 Quadrupole moment (field-independent basis, Debye-Ang):
   XX=           -246.2695   YY=           -242.2643   ZZ=           -254.8603
   XY=             20.9554   XZ=             16.2685   YZ=            -13.6534

 Normal termination of Gaussian 16 at Mon Jul  1 18:09:32 2019.
