 Gaussian 16, Revision A.03,
 Gaussian 16:  ES64L-G16RevA.03 25-Dec-2016

 --------------------------
 # td=(NStates=1) B3LYP/SVP
 --------------------------

 --
 TD
 --
 Symbolic Z-matrix:
 Charge =  0 Multiplicity = 1

                         Standard orientation:
 ---------------------------------------------------------------------
 Center     Atomic      Atomic             Coordinates (Angstroms)
 Number     Number       Type             X           Y           Z
 ---------------------------------------------------------------------
      1          8           0       -4.360888   -4.689679    1.963933
      2          8           0        2.887826   -4.688667    1.444489
      3          8           0        7.158756   -1.437413    1.757392
      4          8           0        3.807309   -3.149445    0.102954
      5          8           0        7.615237   -0.415674   -0.189164
      6          8           0       -3.146403    2.461602   -0.312273
      7          7           0       -0.198343   -0.645587   -0.702342
      8          7           0        1.510892    1.703052   -0.260921
      9          7           0       -3.459445   -3.157231    0.617670
     10          7           0       -0.796059    2.797795   -0.128030
     11          6           0        0.643393   -2.502874   -1.473704
     12          6           0        0.945942   -1.183277   -1.055535
     13          6           0       -0.737820   -2.691214   -1.246009
     14          6           0       -1.303841   -1.431582   -0.786137
     15          6           0        3.901104    1.424555   -0.343096
     16          6           0        2.487626    0.803490   -0.512526
     17          6           0        2.186235   -0.548565   -0.878901
     18          6           0        3.528117    2.656396    0.028419
     19          6           0        1.583743   -3.585047   -1.829300
     20          6           0       -5.558028   -2.519773    1.414778
     21          6           0       -3.586369   -1.842854    0.064325
     22          6           0        2.102301    2.862828    0.067995
     23          6           0       -5.020267   -1.440856    0.465761
     24          6           0        5.119776    0.808991   -0.519368
     25          6           0       -2.625037   -1.057276   -0.543320
     26          6           0       -1.680945   -3.707747   -1.814418
     27          6           0       -4.475549   -3.557966    1.396829
     28          6           0        2.072494   -4.527948   -0.767204
     29          6           0        5.379504   -0.072421    0.775518
     30          6           0        4.539420    3.786095    0.330008
     31          6           0        1.330694    4.066413    0.324165
     32          6           0       -6.833560   -3.154348    1.066437
     33          6           0       -5.861746   -0.525024   -0.173155
     34          6           0       -0.045368    3.973561    0.230099
     35          6           0       -0.988633    5.108383    0.499595
     36          6           0       -2.228011    4.646930    0.287002
     37          6           0        3.003095   -4.052089    0.276568
     38          6           0       -5.422861    0.432681   -1.234213
     39          6           0        6.798881   -0.704408    0.711931
     40          6           0       -3.533064    5.414981    0.374309
     41          6           0       -2.086341    3.187828   -0.021863
     42          6           0       -0.498905    6.447692    1.021068
     43          6           0       -4.294633    5.658841   -0.877669
     44          1           0       -0.305223    0.283657   -0.361934
     45          1           0        2.951079   -1.106404   -1.255926
     46          1           0        2.469926   -3.004562   -2.199536
     47          1           0        1.150006   -4.164139   -2.819313
     48          1           0       -5.701930   -2.006048    2.349650
     49          1           0        5.342638    0.090497   -1.487113
     50          1           0        5.679152    1.655348   -0.755621
     51          1           0       -2.859102   -0.056348   -0.813278
     52          1           0        0.490877    1.657512   -0.481308
     53          1           0       -1.802112   -4.600255   -1.042282
     54          1           0       -2.585522   -3.389555   -2.007241
     55          1           0       -1.157637   -4.346225   -2.698551
     56          1           0       -2.450951   -3.684958    0.530147
     57          1           0        1.144708   -4.998467   -0.522797
     58          1           0        2.390342   -5.442076   -1.353206
     59          1           0        4.622802   -1.074794    0.836681
     60          1           0        5.129472    0.372412    1.864398
     61          1           0        4.074536    4.899721   -0.024274
     62          1           0        5.637500    3.663477   -0.270031
     63          1           0        4.835890    3.768783    1.566340
     64          1           0        1.760689    5.044743    0.573134
     65          1           0       -7.621069   -2.531042    1.512260
     66          1           0       -6.906198   -4.146288    1.700291
     67          1           0       -6.932921   -3.485039   -0.042537
     68          1           0       -6.702047   -0.385237    0.545828
     69          1           0       -4.775650    1.510656   -1.138305
     70          1           0       -6.415014    0.671928   -1.687119
     71          1           0       -4.839208   -0.036497   -2.112626
     72          1           0       -3.718940    6.096265    0.992001
     73          1           0       -4.110860    4.619476    1.012556
     74          1           0        0.051630    6.307180    1.939461
     75          1           0       -1.466293    7.140808    1.071181
     76          1           0        0.305547    7.042675    0.244404
     77          1           0       -3.707266    6.348146   -1.517177
     78          1           0       -5.173357    6.266557   -0.531614
     79          1           0       -4.430344    4.733767   -1.524237
     80          1           0        3.512344   -4.447345    1.970657
     81          1           0        7.970388   -1.846690    1.563410
 ---------------------------------------------------------------------

 SCF Done:  E(RB3LYP) =  -1949.01988379     A.U. after   22 cycles

 Excitation energies and oscillator strengths:

 Excited State   1:      Singlet-A      1.9229 eV  644.79 nm  f=0.3991  <S**2>=0.000
     156 ->157         0.70811
     156 <-157        -0.11731
 This state for optimization and/or second-order correction.
 Total Energy, E(TD-HF/TD-DFT) =  -1948.94921977
 Copying the excited state density for this state as the 1-particle RhoCI density.

 The electronic state is 1-A.
 Alpha  occ. eigenvalues --  -19.19940 -19.19215 -19.15097 -19.12418 -19.09769
 Alpha  occ. eigenvalues --  -19.08395 -14.38281 -14.38133 -14.37807 -14.29463
 Alpha  occ. eigenvalues --  -10.34970 -10.32858 -10.28823 -10.25737 -10.25384
 Alpha  occ. eigenvalues --  -10.25248 -10.24476 -10.24265 -10.24066 -10.23764
 Alpha  occ. eigenvalues --  -10.23262 -10.22894 -10.22172 -10.22078 -10.21511
 Alpha  occ. eigenvalues --  -10.21445 -10.21400 -10.21389 -10.20863 -10.20714
 Alpha  occ. eigenvalues --  -10.20584 -10.20477 -10.20292 -10.20156 -10.19981
 Alpha  occ. eigenvalues --  -10.19890 -10.19473 -10.19268 -10.19144 -10.18586
 Alpha  occ. eigenvalues --  -10.18535 -10.17508 -10.17034  -1.14184  -1.11195
 Alpha  occ. eigenvalues --   -1.03577  -1.01449  -1.01297  -1.00107  -0.99427
 Alpha  occ. eigenvalues --   -0.96063  -0.93081  -0.89348  -0.84619  -0.83588
 Alpha  occ. eigenvalues --   -0.82399  -0.81666  -0.79713  -0.79351  -0.79107
 Alpha  occ. eigenvalues --   -0.77075  -0.76786  -0.75339  -0.74514  -0.73024
 Alpha  occ. eigenvalues --   -0.71488  -0.70621  -0.69926  -0.68270  -0.68211
 Alpha  occ. eigenvalues --   -0.67411  -0.65928  -0.64772  -0.63753  -0.62456
 Alpha  occ. eigenvalues --   -0.61958  -0.60821  -0.59664  -0.58497  -0.57622
 Alpha  occ. eigenvalues --   -0.56529  -0.56159  -0.55715  -0.54478  -0.53955
 Alpha  occ. eigenvalues --   -0.52367  -0.51993  -0.51625  -0.50840  -0.50078
 Alpha  occ. eigenvalues --   -0.49884  -0.49635  -0.49412  -0.48947  -0.48576
 Alpha  occ. eigenvalues --   -0.47583  -0.46711  -0.46620  -0.46080  -0.45752
 Alpha  occ. eigenvalues --   -0.45421  -0.44627  -0.44494  -0.44173  -0.43732
 Alpha  occ. eigenvalues --   -0.43382  -0.43121  -0.42972  -0.42201  -0.42170
 Alpha  occ. eigenvalues --   -0.41896  -0.41494  -0.41324  -0.41103  -0.40684
 Alpha  occ. eigenvalues --   -0.40536  -0.40329  -0.39751  -0.39358  -0.39033
 Alpha  occ. eigenvalues --   -0.38664  -0.38570  -0.38461  -0.37931  -0.37650
 Alpha  occ. eigenvalues --   -0.37543  -0.37348  -0.37264  -0.37111  -0.36671
 Alpha  occ. eigenvalues --   -0.36564  -0.35780  -0.34987  -0.34892  -0.34532
 Alpha  occ. eigenvalues --   -0.34316  -0.33376  -0.33101  -0.32871  -0.32166
 Alpha  occ. eigenvalues --   -0.32097  -0.31696  -0.30885  -0.29935  -0.29215
 Alpha  occ. eigenvalues --   -0.28156  -0.27517  -0.26703  -0.25758  -0.25476
 Alpha  occ. eigenvalues --   -0.25207  -0.24577  -0.23308  -0.22994  -0.21792
 Alpha  occ. eigenvalues --   -0.18464
 Alpha virt. eigenvalues --   -0.10936  -0.05925  -0.04301  -0.03222  -0.01022
 Alpha virt. eigenvalues --   -0.00914   0.01245   0.01951   0.02782   0.03246
 Alpha virt. eigenvalues --    0.03605   0.04378   0.04765   0.05228   0.05964

 Mulliken charges:
               1
     1  O   -0.276474
     2  O   -0.071892
     3  O   -0.129378
     4  O   -0.230634
     5  O   -0.273881
     6  O   -0.331691
     7  N    0.026568
     8  N   -0.033712
     9  N   -0.146978
    10  N   -0.329392
    11  C   -0.095541
    12  C    0.005850
    13  C   -0.180493
    14  C    0.063737
    15  C    0.009988
    16  C   -0.002504
    17  C    0.029898
    18  C   -0.108339
    19  C   -0.009542
    20  C   -0.040535
    21  C    0.087765
    22  C    0.115900
    23  C   -0.093357
    24  C    0.094215
    25  C   -0.060282
    26  C    0.090759
    27  C    0.130418
    28  C    0.087320
    29  C   -0.140187
    30  C   -0.098025
    31  C   -0.124904
    32  C    0.024350
    33  C   -0.054836
    34  C    0.096541
    35  C   -0.081408
    36  C   -0.132712
    37  C    0.157601
    38  C   -0.042359
    39  C    0.164798
    40  C    0.124830
    41  C    0.180390
    42  C    0.019180
    43  C    0.013379
    44  H    0.096876
    45  H   -0.055254
    46  H    0.011699
    47  H    0.032407
    48  H    0.037408
    49  H    0.060060
    50  H   -0.007543
    51  H    0.002740
    52  H    0.161713
    53  H    0.012390
    54  H   -0.001411
    55  H    0.027087
    56  H    0.189143
    57  H   -0.000818
    58  H    0.043744
    59  H    0.097788
    60  H    0.069561
    61  H    0.059497
    62  H    0.062313
    63  H    0.060902
    64  H   -0.019872
    65  H    0.010859
    66  H    0.042167
    67  H    0.038219
    68  H    0.006530
    69  H    0.139326
    70  H    0.005979
    71  H    0.023188
    72  H   -0.088178
    73  H    0.005430
    74  H    0.034078
    75  H    0.044678
    76  H    0.037431
    77  H   -0.004670
    78  H    0.010697
    79  H    0.042446
    80  H    0.114797
    81  H    0.162163
 Sum of Mulliken charges =  -0.00000

 Dipole moment (field-independent basis, Debye):
    X=              4.3489    Y=             -0.5743    Z=              0.5626  Tot=              4.4225
 Quadrupole moment (field-independent basis, Debye-Ang):
   XX=           -259.7380   YY=           -242.5427   ZZ=           -254.8538
   XY=            -19.2899   XZ=             14.1534   YZ=             15.5733

 Normal termination of Gaussian 16 at Thu Jun 27 22:11:13 2019.
