 Gaussian 16, Revision A.03,
 Gaussian 16:  ES64L-G16RevA.03 25-Dec-2016

 --------------------------
 # td=(NStates=1) B3LYP/SVP
 --------------------------

 --
 TD
 --
 Symbolic Z-matrix:
 Charge =  0 Multiplicity = 1

                         Standard orientation:
 ---------------------------------------------------------------------
 Center     Atomic      Atomic             Coordinates (Angstroms)
 Number     Number       Type             X           Y           Z
 ---------------------------------------------------------------------
      1          8           0       -4.240322   -4.817139    1.893124
      2          8           0        3.006662   -4.862110    1.277303
      3          8           0        7.091717   -1.334716    1.908356
      4          8           0        3.995943   -3.212743   -0.057283
      5          8           0        7.669694   -0.282619    0.037858
      6          8           0       -3.164910    2.379901   -0.352465
      7          7           0       -0.313798   -0.571771   -0.633374
      8          7           0        1.524656    1.825001   -0.262624
      9          7           0       -3.226804   -3.172851    0.616571
     10          7           0       -0.885952    2.977923   -0.092681
     11          6           0        0.787816   -2.435454   -1.357635
     12          6           0        0.886103   -1.115979   -0.960685
     13          6           0       -0.625096   -2.612494   -1.322265
     14          6           0       -1.242368   -1.483805   -0.812702
     15          6           0        3.768482    1.563958   -0.381063
     16          6           0        2.471094    0.855795   -0.645315
     17          6           0        2.248947   -0.459811   -0.898558
     18          6           0        3.519745    2.855171    0.023855
     19          6           0        1.837160   -3.295003   -1.971530
     20          6           0       -5.428858   -2.793372    1.361697
     21          6           0       -3.607096   -1.882442    0.044162
     22          6           0        2.078567    3.037848    0.081773
     23          6           0       -5.071418   -1.699977    0.419209
     24          6           0        5.009602    0.780231   -0.404024
     25          6           0       -2.659667   -1.127335   -0.436732
     26          6           0       -1.349160   -3.861841   -1.790736
     27          6           0       -4.215234   -3.725134    1.391677
     28          6           0        2.203150   -4.509347   -0.943318
     29          6           0        5.426438    0.033162    0.813958
     30          6           0        4.577361    3.981918    0.268320
     31          6           0        1.210442    4.158950    0.334981
     32          6           0       -6.836887   -3.443452    1.282494
     33          6           0       -5.849432   -0.831351   -0.191291
     34          6           0       -0.264839    4.061713    0.202791
     35          6           0       -1.149917    5.149333    0.482763
     36          6           0       -2.401073    4.669115    0.403820
     37          6           0        3.056797   -4.063155    0.121122
     38          6           0       -5.467282    0.206838   -1.253337
     39          6           0        6.833525   -0.537354    0.825627
     40          6           0       -3.829694    5.226166    0.473292
     41          6           0       -2.237624    3.204923   -0.041898
     42          6           0       -0.862757    6.680750    0.777223
     43          6           0       -4.555772    5.411673   -0.777571
     44          1           0       -0.469792    0.348692   -0.054966
     45          1           0        3.198488   -1.184596   -1.111666
     46          1           0        2.688150   -2.834313   -2.231152
     47          1           0        1.517446   -3.814132   -2.878897
     48          1           0       -5.515331   -2.233210    2.380091
     49          1           0        4.823541    0.008048   -1.237843
     50          1           0        5.823387    1.392212   -0.806001
     51          1           0       -2.813747   -0.038972   -0.681469
     52          1           0        0.490585    1.938239   -0.477293
     53          1           0       -0.889519   -4.773901   -1.147146
     54          1           0       -2.369466   -3.812531   -1.865921
     55          1           0       -0.950591   -4.292476   -2.713292
     56          1           0       -2.175833   -3.467460    0.772269
     57          1           0        1.171706   -4.873047   -0.533199
     58          1           0        2.631463   -5.347484   -1.582317
     59          1           0        4.676067   -0.820741    1.254349
     60          1           0        5.442013    0.647655    1.861265
     61          1           0        4.598105    4.609206   -0.627335
     62          1           0        5.515761    3.504608    0.416648
     63          1           0        4.281086    4.726350    1.173803
     64          1           0        1.653785    5.258212    0.274015
     65          1           0       -7.511724   -2.719168    1.774371
     66          1           0       -6.829321   -4.546119    1.717068
     67          1           0       -7.046833   -3.560305    0.098979
     68          1           0       -6.848751   -0.817775    0.214089
     69          1           0       -5.161406    1.237800   -0.733847
     70          1           0       -6.393726    0.385243   -1.865649
     71          1           0       -4.502027   -0.104732   -1.934447
     72          1           0       -3.741852    6.160328    0.962259
     73          1           0       -4.376294    4.570786    1.015426
     74          1           0       -0.139407    6.843178    1.546859
     75          1           0       -1.695152    7.244903    1.073529
     76          1           0       -0.625686    7.201046   -0.197587
     77          1           0       -3.873857    6.104064   -1.352479
     78          1           0       -5.504477    6.188070   -0.838235
     79          1           0       -4.758299    4.457037   -1.370161
     80          1           0        3.535468   -4.498336    1.928762
     81          1           0        8.022715   -1.460506    2.006117
 ---------------------------------------------------------------------

 SCF Done:  E(RB3LYP) =  -1949.14084668     A.U. after   16 cycles

 Excitation energies and oscillator strengths:

 Excited State   1:      Singlet-A      1.9174 eV  646.64 nm  f=0.2712  <S**2>=0.000
     156 ->157         0.70263
 This state for optimization and/or second-order correction.
 Total Energy, E(TD-HF/TD-DFT) =  -1949.07038455
 Copying the excited state density for this state as the 1-particle RhoCI density.

 The electronic state is 1-A.
 Alpha  occ. eigenvalues --  -19.19228 -19.17270 -19.14682 -19.12771 -19.11561
 Alpha  occ. eigenvalues --  -19.09886 -14.38726 -14.36355 -14.36271 -14.29923
 Alpha  occ. eigenvalues --  -10.34509 -10.32028 -10.28023 -10.27610 -10.25436
 Alpha  occ. eigenvalues --  -10.24059 -10.23990 -10.23602 -10.23391 -10.23120
 Alpha  occ. eigenvalues --  -10.23117 -10.22889 -10.22803 -10.21593 -10.21370
 Alpha  occ. eigenvalues --  -10.21316 -10.21094 -10.20996 -10.20963 -10.20350
 Alpha  occ. eigenvalues --  -10.20174 -10.20097 -10.19845 -10.19584 -10.19533
 Alpha  occ. eigenvalues --  -10.19484 -10.19458 -10.19433 -10.19132 -10.18956
 Alpha  occ. eigenvalues --  -10.18861 -10.18815 -10.17855  -1.10100  -1.09119
 Alpha  occ. eigenvalues --   -1.02856  -1.01498  -1.00670  -1.00115  -1.00043
 Alpha  occ. eigenvalues --   -0.97424  -0.94201  -0.93188  -0.83047  -0.82666
 Alpha  occ. eigenvalues --   -0.81069  -0.80640  -0.80387  -0.78527  -0.78241
 Alpha  occ. eigenvalues --   -0.77284  -0.76201  -0.75369  -0.73602  -0.72623
 Alpha  occ. eigenvalues --   -0.71224  -0.70001  -0.69420  -0.68799  -0.68277
 Alpha  occ. eigenvalues --   -0.67233  -0.65922  -0.63521  -0.62015  -0.61612
 Alpha  occ. eigenvalues --   -0.60703  -0.60159  -0.58561  -0.57402  -0.56682
 Alpha  occ. eigenvalues --   -0.55923  -0.55733  -0.55136  -0.53486  -0.53164
 Alpha  occ. eigenvalues --   -0.52571  -0.52102  -0.51706  -0.50232  -0.49544
 Alpha  occ. eigenvalues --   -0.49043  -0.48715  -0.48191  -0.48034  -0.47824
 Alpha  occ. eigenvalues --   -0.47025  -0.46486  -0.45973  -0.45609  -0.45349
 Alpha  occ. eigenvalues --   -0.44960  -0.44693  -0.44293  -0.43774  -0.43514
 Alpha  occ. eigenvalues --   -0.42998  -0.42958  -0.42522  -0.42451  -0.42140
 Alpha  occ. eigenvalues --   -0.41885  -0.41353  -0.41046  -0.40959  -0.40732
 Alpha  occ. eigenvalues --   -0.40499  -0.40278  -0.40148  -0.39808  -0.39364
 Alpha  occ. eigenvalues --   -0.39323  -0.38879  -0.38724  -0.38572  -0.38283
 Alpha  occ. eigenvalues --   -0.38099  -0.37856  -0.37546  -0.37304  -0.36984
 Alpha  occ. eigenvalues --   -0.36668  -0.36573  -0.35696  -0.35068  -0.34832
 Alpha  occ. eigenvalues --   -0.34315  -0.33584  -0.33295  -0.33068  -0.32813
 Alpha  occ. eigenvalues --   -0.32693  -0.32171  -0.31418  -0.30478  -0.29527
 Alpha  occ. eigenvalues --   -0.28552  -0.28406  -0.26284  -0.26166  -0.25733
 Alpha  occ. eigenvalues --   -0.25135  -0.24892  -0.24618  -0.24317  -0.22034
 Alpha  occ. eigenvalues --   -0.18871
 Alpha virt. eigenvalues --   -0.11014  -0.06278  -0.05001  -0.02953   0.00560
 Alpha virt. eigenvalues --    0.00673   0.01820   0.02787   0.03734   0.04384
 Alpha virt. eigenvalues --    0.05008   0.05101   0.05553   0.05768   0.05938

 Mulliken charges:
               1
     1  O   -0.202702
     2  O   -0.176438
     3  O   -0.196540
     4  O   -0.284574
     5  O   -0.185667
     6  O   -0.257024
     7  N   -0.032440
     8  N   -0.154949
     9  N   -0.207871
    10  N   -0.228971
    11  C   -0.098882
    12  C    0.012192
    13  C   -0.195030
    14  C    0.008407
    15  C   -0.097446
    16  C    0.124752
    17  C   -0.129796
    18  C   -0.131846
    19  C    0.182543
    20  C   -0.079507
    21  C    0.146696
    22  C    0.083356
    23  C    0.019316
    24  C    0.119926
    25  C   -0.156708
    26  C    0.120262
    27  C    0.129861
    28  C   -0.049984
    29  C   -0.077288
    30  C    0.082220
    31  C   -0.121173
    32  C   -0.014141
    33  C   -0.132307
    34  C    0.020014
    35  C   -0.116530
    36  C   -0.200581
    37  C    0.198151
    38  C   -0.016349
    39  C    0.126285
    40  C    0.238586
    41  C    0.158540
    42  C    0.124261
    43  C   -0.079534
    44  H    0.181875
    45  H    0.089504
    46  H   -0.029645
    47  H    0.001058
    48  H    0.049693
    49  H    0.022467
    50  H    0.016951
    51  H    0.042998
    52  H    0.158115
    53  H    0.006589
    54  H    0.015132
    55  H   -0.008269
    56  H    0.172995
    57  H    0.053733
    58  H    0.075534
    59  H    0.064630
    60  H    0.049370
    61  H    0.034846
    62  H    0.018145
    63  H    0.042582
    64  H    0.024726
    65  H    0.029719
    66  H    0.064231
    67  H    0.030696
    68  H   -0.026202
    69  H    0.091172
    70  H    0.018844
    71  H    0.056414
    72  H   -0.030264
    73  H   -0.023132
    74  H    0.018733
    75  H   -0.014503
    76  H    0.028796
    77  H   -0.004518
    78  H    0.023979
    79  H    0.054110
    80  H    0.160689
    81  H    0.167113
 Sum of Mulliken charges =  -0.00000

 Dipole moment (field-independent basis, Debye):
    X=              3.4569    Y=              2.5560    Z=              0.5101  Tot=              4.3294
 Quadrupole moment (field-independent basis, Debye-Ang):
   XX=           -259.1082   YY=           -242.3602   ZZ=           -252.4825
   XY=            -15.9820   XZ=             13.0623   YZ=             13.5160

 Normal termination of Gaussian 16 at Tue Jul  2 18:17:42 2019.
