 Gaussian 16, Revision A.03,
 Gaussian 16:  ES64L-G16RevA.03 25-Dec-2016

 --------------------------
 # td=(NStates=1) B3LYP/SVP
 --------------------------

 --
 TD
 --
 Symbolic Z-matrix:
 Charge =  0 Multiplicity = 1

                         Standard orientation:
 ---------------------------------------------------------------------
 Center     Atomic      Atomic             Coordinates (Angstroms)
 Number     Number       Type             X           Y           Z
 ---------------------------------------------------------------------
      1          8           0        4.648195   -4.772074   -1.765295
      2          8           0       -3.173783   -4.826333   -1.282805
      3          8           0       -7.095130   -1.547919   -1.842102
      4          8           0       -3.831266   -2.996035   -0.066417
      5          8           0       -7.494915   -0.741654    0.254673
      6          8           0        3.026131    2.507816    0.210403
      7          7           0        0.296978   -0.538074    0.666250
      8          7           0       -1.525152    1.912654    0.306506
      9          7           0        3.496407   -3.167017   -0.699728
     10          7           0        0.733972    2.838536    0.005195
     11          6           0       -0.745381   -2.442918    1.381928
     12          6           0       -0.953861   -1.135403    0.965711
     13          6           0        0.673668   -2.653442    1.220019
     14          6           0        1.281873   -1.501883    0.793684
     15          6           0       -3.732759    1.537580    0.401308
     16          6           0       -2.480736    0.863242    0.575323
     17          6           0       -2.265155   -0.454559    0.916837
     18          6           0       -3.520444    2.806266   -0.059568
     19          6           0       -1.738548   -3.463621    1.838091
     20          6           0        5.653063   -2.626765   -1.279302
     21          6           0        3.733757   -1.936941   -0.125307
     22          6           0       -2.139184    2.969244   -0.047754
     23          6           0        5.131128   -1.584657   -0.325446
     24          6           0       -5.070554    0.894059    0.359952
     25          6           0        2.639924   -1.119852    0.420661
     26          6           0        1.243205   -4.006292    1.564138
     27          6           0        4.654967   -3.673633   -1.200943
     28          6           0       -2.261795   -4.492660    0.892774
     29          6           0       -5.325602   -0.111018   -0.805548
     30          6           0       -4.447089    3.974848   -0.433353
     31          6           0       -1.312125    4.188217   -0.285460
     32          6           0        7.026151   -3.144439   -1.148595
     33          6           0        5.822722   -0.527149    0.179176
     34          6           0        0.122667    3.993228   -0.125954
     35          6           0        0.981375    5.211566   -0.476690
     36          6           0        2.239391    4.624449   -0.338376
     37          6           0       -3.206508   -4.030645   -0.272099
     38          6           0        5.497577    0.393686    1.322492
     39          6           0       -6.715856   -0.803298   -0.758256
     40          6           0        3.663379    5.279906   -0.383112
     41          6           0        2.120035    3.309663    0.031636
     42          6           0        0.523841    6.496404   -0.899915
     43          6           0        4.238588    5.477086    0.925598
     44          1           0        0.466846    0.385881    0.271375
     45          1           0       -3.060849   -1.116927    1.309499
     46          1           0       -2.520837   -2.844866    2.229098
     47          1           0       -1.611874   -3.970202    2.606843
     48          1           0        5.553100   -2.199744   -2.397868
     49          1           0       -5.097276    0.154608    1.372625
     50          1           0       -5.985514    1.547225    0.415061
     51          1           0        2.923580   -0.029701    0.268700
     52          1           0       -0.529427    1.934344    0.640112
     53          1           0        1.242441   -4.845762    0.765695
     54          1           0        2.247360   -3.932673    2.052156
     55          1           0        0.716214   -4.452057    2.504882
     56          1           0        2.615287   -3.594398   -0.978059
     57          1           0       -1.503377   -5.036936    0.525603
     58          1           0       -2.629527   -5.269843    1.576634
     59          1           0       -4.645534   -0.985943   -1.028516
     60          1           0       -5.332533    0.383881   -1.792597
     61          1           0       -4.188264    4.898481    0.041694
     62          1           0       -5.535124    3.885306   -0.344434
     63          1           0       -4.227569    4.444089   -1.513895
     64          1           0       -1.740617    5.210521   -0.318475
     65          1           0        7.758786   -2.433755   -1.804711
     66          1           0        7.001698   -4.095782   -1.668694
     67          1           0        7.169374   -3.457678   -0.018777
     68          1           0        6.903050   -0.618758   -0.042466
     69          1           0        4.905438    1.260677    0.948114
     70          1           0        6.308227    0.748447    1.930786
     71          1           0        4.762141   -0.166355    2.071698
     72          1           0        3.445490    6.171416   -0.780110
     73          1           0        4.136359    4.739654   -1.228879
     74          1           0        0.225992    6.463955   -1.978132
     75          1           0        1.315961    7.206462   -0.888081
     76          1           0       -0.136907    7.023130   -0.216956
     77          1           0        3.571642    6.085437    1.640237
     78          1           0        5.230039    5.896724    0.925185
     79          1           0        4.519972    4.627937    1.474884
     80          1           0       -3.745144   -4.397598   -1.844918
     81          1           0       -8.168221   -1.793927   -1.682442
 ---------------------------------------------------------------------

 SCF Done:  E(RB3LYP) =  -1949.09152732     A.U. after   16 cycles

 Excitation energies and oscillator strengths:

 Excited State   1:      Singlet-A      1.8570 eV  667.67 nm  f=0.3455  <S**2>=0.000
     156 ->157         0.70631
 This state for optimization and/or second-order correction.
 Total Energy, E(TD-HF/TD-DFT) =  -1949.02328499
 Copying the excited state density for this state as the 1-particle RhoCI density.

 The electronic state is 1-A.
 Alpha  occ. eigenvalues --  -19.22349 -19.19019 -19.14562 -19.11597 -19.10357
 Alpha  occ. eigenvalues --  -19.09739 -14.37094 -14.36746 -14.35404 -14.28445
 Alpha  occ. eigenvalues --  -10.34244 -10.32188 -10.28244 -10.25161 -10.24733
 Alpha  occ. eigenvalues --  -10.23225 -10.23097 -10.22993 -10.22987 -10.22064
 Alpha  occ. eigenvalues --  -10.22012 -10.21671 -10.21375 -10.20880 -10.20484
 Alpha  occ. eigenvalues --  -10.20480 -10.20344 -10.20300 -10.20129 -10.20040
 Alpha  occ. eigenvalues --  -10.19920 -10.19833 -10.19632 -10.19558 -10.19525
 Alpha  occ. eigenvalues --  -10.19334 -10.18660 -10.18400 -10.18371 -10.18285
 Alpha  occ. eigenvalues --  -10.18013 -10.17580 -10.16865  -1.16015  -1.06389
 Alpha  occ. eigenvalues --   -1.03511  -1.03422  -1.01043  -0.99489  -0.96752
 Alpha  occ. eigenvalues --   -0.96251  -0.95416  -0.91382  -0.82963  -0.82618
 Alpha  occ. eigenvalues --   -0.82307  -0.80338  -0.80023  -0.78083  -0.77499
 Alpha  occ. eigenvalues --   -0.76933  -0.76607  -0.75594  -0.73169  -0.71971
 Alpha  occ. eigenvalues --   -0.71030  -0.70270  -0.70057  -0.69344  -0.67514
 Alpha  occ. eigenvalues --   -0.67264  -0.65106  -0.64303  -0.63701  -0.62630
 Alpha  occ. eigenvalues --   -0.60998  -0.58649  -0.58161  -0.57145  -0.56975
 Alpha  occ. eigenvalues --   -0.56668  -0.55527  -0.54674  -0.53983  -0.53440
 Alpha  occ. eigenvalues --   -0.52673  -0.52089  -0.52074  -0.50707  -0.49875
 Alpha  occ. eigenvalues --   -0.49436  -0.48611  -0.48325  -0.48072  -0.46815
 Alpha  occ. eigenvalues --   -0.46642  -0.46434  -0.45758  -0.45653  -0.45552
 Alpha  occ. eigenvalues --   -0.45091  -0.44515  -0.44153  -0.43924  -0.43608
 Alpha  occ. eigenvalues --   -0.43432  -0.43082  -0.42542  -0.42357  -0.42065
 Alpha  occ. eigenvalues --   -0.41624  -0.41388  -0.41079  -0.40911  -0.40672
 Alpha  occ. eigenvalues --   -0.40394  -0.40191  -0.39903  -0.39816  -0.39627
 Alpha  occ. eigenvalues --   -0.39498  -0.39260  -0.38722  -0.38400  -0.37938
 Alpha  occ. eigenvalues --   -0.37890  -0.37385  -0.37138  -0.36928  -0.36829
 Alpha  occ. eigenvalues --   -0.36239  -0.35844  -0.35711  -0.34889  -0.34336
 Alpha  occ. eigenvalues --   -0.34145  -0.33693  -0.33338  -0.33098  -0.32287
 Alpha  occ. eigenvalues --   -0.32115  -0.31114  -0.30574  -0.30173  -0.29490
 Alpha  occ. eigenvalues --   -0.28158  -0.26724  -0.26176  -0.25787  -0.25385
 Alpha  occ. eigenvalues --   -0.24898  -0.24419  -0.23808  -0.23456  -0.20269
 Alpha  occ. eigenvalues --   -0.17431
 Alpha virt. eigenvalues --   -0.09810  -0.06309  -0.04723  -0.02043  -0.01490
 Alpha virt. eigenvalues --   -0.00390   0.01286   0.02677   0.03641   0.04520
 Alpha virt. eigenvalues --    0.04673   0.05227   0.05407   0.06044   0.06404

 Mulliken charges:
               1
     1  O   -0.239974
     2  O   -0.041693
     3  O   -0.266659
     4  O   -0.238548
     5  O   -0.302493
     6  O   -0.202493
     7  N   -0.116474
     8  N   -0.051507
     9  N   -0.061063
    10  N   -0.323265
    11  C   -0.076310
    12  C    0.017770
    13  C   -0.165578
    14  C    0.129909
    15  C   -0.066727
    16  C    0.134929
    17  C   -0.059003
    18  C   -0.090917
    19  C    0.256911
    20  C   -0.071858
    21  C    0.044377
    22  C    0.055072
    23  C   -0.028008
    24  C    0.031124
    25  C   -0.128146
    26  C    0.010999
    27  C    0.073149
    28  C    0.056516
    29  C    0.011565
    30  C    0.088338
    31  C   -0.139796
    32  C    0.030798
    33  C   -0.113221
    34  C    0.049768
    35  C   -0.120100
    36  C   -0.232870
    37  C    0.127080
    38  C    0.004601
    39  C    0.160392
    40  C    0.239125
    41  C    0.149277
    42  C    0.140827
    43  C    0.041039
    44  H    0.138150
    45  H    0.024978
    46  H   -0.026767
    47  H   -0.109819
    48  H    0.077738
    49  H    0.041509
    50  H    0.031929
    51  H    0.046442
    52  H    0.166354
    53  H    0.042511
    54  H    0.021379
    55  H    0.013387
    56  H    0.140415
    57  H   -0.039568
    58  H    0.018126
    59  H    0.055470
    60  H    0.019861
    61  H    0.002374
    62  H    0.019612
    63  H    0.017390
    64  H   -0.017889
    65  H    0.039712
    66  H    0.025430
    67  H    0.029553
    68  H    0.000185
    69  H    0.078532
    70  H    0.009785
    71  H    0.038533
    72  H   -0.076782
    73  H    0.007234
    74  H    0.046542
    75  H   -0.015902
    76  H    0.023525
    77  H    0.013130
    78  H   -0.010272
    79  H   -0.000399
    80  H    0.143629
    81  H    0.247119
 Sum of Mulliken charges =  -0.00000

 Dipole moment (field-independent basis, Debye):
    X=             -2.5720    Y=              0.9930    Z=             -1.4446  Tot=              3.1126
 Quadrupole moment (field-independent basis, Debye-Ang):
   XX=           -253.7327   YY=           -230.9441   ZZ=           -251.2248
   XY=             18.1490   XZ=             18.2097   YZ=             -9.2764

 Normal termination of Gaussian 16 at Fri Jul  5 00:53:43 2019.
