 Gaussian 16, Revision A.03,
 Gaussian 16:  ES64L-G16RevA.03 25-Dec-2016

 --------------------------
 # td=(NStates=1) B3LYP/SVP
 --------------------------

 --
 TD
 --
 Symbolic Z-matrix:
 Charge =  0 Multiplicity = 1

                         Standard orientation:
 ---------------------------------------------------------------------
 Center     Atomic      Atomic             Coordinates (Angstroms)
 Number     Number       Type             X           Y           Z
 ---------------------------------------------------------------------
      1          8           0        4.552087   -4.678215   -1.840158
      2          8           0       -2.852137   -4.870550   -1.293252
      3          8           0       -7.063436   -1.782773   -1.703324
      4          8           0       -3.692752   -3.314056    0.125826
      5          8           0       -7.716704   -0.477214    0.037882
      6          8           0        3.054209    2.583971    0.123487
      7          7           0        0.249050   -0.587033    0.499729
      8          7           0       -1.557332    1.670083    0.354772
      9          7           0        3.494004   -3.004473   -0.652335
     10          7           0        0.711390    2.897728    0.038630
     11          6           0       -0.453442   -2.543759    1.270318
     12          6           0       -0.855108   -1.208553    0.823768
     13          6           0        0.914455   -2.591275    1.221935
     14          6           0        1.391968   -1.424935    0.665952
     15          6           0       -3.783526    1.257470    0.370497
     16          6           0       -2.514953    0.685209    0.638359
     17          6           0       -2.159548   -0.614856    0.895145
     18          6           0       -3.657183    2.592471    0.025437
     19          6           0       -1.400886   -3.548599    1.934538
     20          6           0        5.751675   -2.530637   -1.187425
     21          6           0        3.634312   -1.675670   -0.130801
     22          6           0       -2.253630    2.783420   -0.048544
     23          6           0        5.033124   -1.415258   -0.330311
     24          6           0       -5.086466    0.524306    0.349941
     25          6           0        2.679047   -0.873316    0.255828
     26          6           0        1.759067   -3.852382    1.651868
     27          6           0        4.537106   -3.555283   -1.326684
     28          6           0       -1.763615   -4.597583    0.844043
     29          6           0       -5.424297   -0.299826   -0.782179
     30          6           0       -4.668480    3.677345   -0.245411
     31          6           0       -1.631272    4.004705   -0.168219
     32          6           0        7.076160   -3.102647   -0.837552
     33          6           0        5.768202   -0.328227    0.197326
     34          6           0       -0.105347    3.980058   -0.230741
     35          6           0        0.795223    5.218273   -0.547757
     36          6           0        2.048882    4.799614   -0.368863
     37          6           0       -2.773856   -4.205015   -0.069354
     38          6           0        5.333058    0.718676    1.110586
     39          6           0       -6.862856   -0.877923   -0.747278
     40          6           0        3.333960    5.473611   -0.508197
     41          6           0        2.051592    3.327141   -0.088935
     42          6           0        0.207396    6.705284   -0.669166
     43          6           0        4.022129    5.829020    0.838630
     44          1           0        0.556873    0.378441    0.208001
     45          1           0       -2.934838   -1.371175    1.066904
     46          1           0       -2.476417   -2.945118    2.108052
     47          1           0       -1.137147   -3.856768    2.864399
     48          1           0        5.784874   -2.228885   -2.354526
     49          1           0       -5.104304   -0.097836    1.310128
     50          1           0       -5.913806    1.341460    0.635173
     51          1           0        2.611523    0.143248    0.243856
     52          1           0       -0.509079    1.813915    0.609227
     53          1           0        1.816492   -4.660322    0.814278
     54          1           0        2.759921   -3.442235    1.907272
     55          1           0        1.287107   -4.475265    2.405681
     56          1           0        2.798664   -3.712057   -0.645502
     57          1           0       -0.999711   -4.943940    0.253393
     58          1           0       -1.935694   -5.620215    1.040811
     59          1           0       -4.719140   -1.058471   -1.022641
     60          1           0       -5.234343    0.349568   -1.870215
     61          1           0       -4.509751    4.446000    0.741649
     62          1           0       -5.599173    3.308184   -0.095464
     63          1           0       -4.416835    4.444267   -1.094862
     64          1           0       -2.014543    4.883586   -0.408623
     65          1           0        7.957003   -2.347284   -1.068970
     66          1           0        7.308585   -4.169350   -1.279238
     67          1           0        7.204794   -3.527867    0.316847
     68          1           0        6.851837   -0.300005   -0.163040
     69          1           0        4.981235    1.695945    0.483282
     70          1           0        6.238926    0.964752    1.505586
     71          1           0        4.567411    0.478763    2.093112
     72          1           0        3.244452    6.476526   -1.035042
     73          1           0        4.092600    4.807601   -1.168388
     74          1           0       -0.112115    6.807409   -1.704946
     75          1           0        1.169668    7.482191   -0.484928
     76          1           0       -0.525001    6.851149   -0.033721
     77          1           0        3.419631    6.700035    1.227585
     78          1           0        5.042576    6.379406    0.638084
     79          1           0        3.977565    5.082502    1.460711
     80          1           0       -3.680528   -4.436286   -1.881112
     81          1           0       -8.036594   -2.150458   -1.752607
 ---------------------------------------------------------------------

 SCF Done:  E(RB3LYP) =  -1949.03403949     A.U. after   16 cycles

 Excitation energies and oscillator strengths:

 Excited State   1:      Singlet-A      1.7824 eV  695.61 nm  f=0.3147  <S**2>=0.000
     156 ->157         0.70717
     156 <-157        -0.11551
 This state for optimization and/or second-order correction.
 Total Energy, E(TD-HF/TD-DFT) =  -1948.96853786
 Copying the excited state density for this state as the 1-particle RhoCI density.

 The electronic state is 1-A.
 Alpha  occ. eigenvalues --  -19.19438 -19.19355 -19.13265 -19.12370 -19.11365
 Alpha  occ. eigenvalues --  -19.10289 -14.37750 -14.36323 -14.35411 -14.30513
 Alpha  occ. eigenvalues --  -10.33787 -10.32472 -10.28420 -10.27572 -10.24836
 Alpha  occ. eigenvalues --  -10.24208 -10.23390 -10.23288 -10.23067 -10.22781
 Alpha  occ. eigenvalues --  -10.22256 -10.21643 -10.21572 -10.21411 -10.21371
 Alpha  occ. eigenvalues --  -10.21141 -10.20998 -10.20930 -10.20891 -10.20831
 Alpha  occ. eigenvalues --  -10.20628 -10.20444 -10.20429 -10.20010 -10.20004
 Alpha  occ. eigenvalues --  -10.19899 -10.19731 -10.19568 -10.18987 -10.18948
 Alpha  occ. eigenvalues --  -10.18633 -10.18348 -10.17829  -1.09053  -1.06852
 Alpha  occ. eigenvalues --   -1.02157  -0.99944  -0.99814  -0.99097  -0.97300
 Alpha  occ. eigenvalues --   -0.96991  -0.94272  -0.90594  -0.83375  -0.82438
 Alpha  occ. eigenvalues --   -0.81876  -0.80701  -0.79904  -0.79563  -0.78995
 Alpha  occ. eigenvalues --   -0.77353  -0.75991  -0.74903  -0.74470  -0.72428
 Alpha  occ. eigenvalues --   -0.71160  -0.70165  -0.69707  -0.69276  -0.67709
 Alpha  occ. eigenvalues --   -0.67264  -0.64736  -0.63029  -0.62604  -0.61626
 Alpha  occ. eigenvalues --   -0.60216  -0.59795  -0.59544  -0.57902  -0.56501
 Alpha  occ. eigenvalues --   -0.56146  -0.55444  -0.54746  -0.53683  -0.53273
 Alpha  occ. eigenvalues --   -0.52720  -0.52343  -0.50639  -0.50332  -0.49736
 Alpha  occ. eigenvalues --   -0.49045  -0.48559  -0.47696  -0.47606  -0.47256
 Alpha  occ. eigenvalues --   -0.46429  -0.46150  -0.46078  -0.45470  -0.45058
 Alpha  occ. eigenvalues --   -0.44762  -0.44579  -0.44502  -0.44218  -0.43979
 Alpha  occ. eigenvalues --   -0.43073  -0.42892  -0.42687  -0.42075  -0.41932
 Alpha  occ. eigenvalues --   -0.41723  -0.41455  -0.41349  -0.41249  -0.40739
 Alpha  occ. eigenvalues --   -0.40555  -0.40435  -0.39755  -0.39572  -0.39510
 Alpha  occ. eigenvalues --   -0.39295  -0.39002  -0.38706  -0.38582  -0.38105
 Alpha  occ. eigenvalues --   -0.37851  -0.37675  -0.37463  -0.37059  -0.36450
 Alpha  occ. eigenvalues --   -0.35898  -0.35647  -0.35134  -0.34663  -0.34406
 Alpha  occ. eigenvalues --   -0.34220  -0.33428  -0.32899  -0.32311  -0.32255
 Alpha  occ. eigenvalues --   -0.31791  -0.31434  -0.31296  -0.29801  -0.28282
 Alpha  occ. eigenvalues --   -0.28053  -0.27933  -0.26707  -0.25907  -0.25306
 Alpha  occ. eigenvalues --   -0.25279  -0.25124  -0.24417  -0.23924  -0.21597
 Alpha  occ. eigenvalues --   -0.17771
 Alpha virt. eigenvalues --   -0.10646  -0.06585  -0.04257  -0.02848  -0.00537
 Alpha virt. eigenvalues --    0.00689   0.00870   0.02174   0.02565   0.03339
 Alpha virt. eigenvalues --    0.03610   0.04171   0.04667   0.05350   0.05850

 Mulliken charges:
               1
     1  O   -0.248789
     2  O   -0.279655
     3  O   -0.208575
     4  O   -0.310516
     5  O   -0.239840
     6  O   -0.252295
     7  N   -0.071466
     8  N   -0.161147
     9  N   -0.124544
    10  N   -0.344390
    11  C   -0.111935
    12  C    0.038485
    13  C   -0.155110
    14  C   -0.002434
    15  C   -0.094118
    16  C    0.139849
    17  C   -0.075511
    18  C   -0.130305
    19  C    0.105889
    20  C   -0.044171
    21  C    0.243817
    22  C    0.148092
    23  C   -0.057112
    24  C    0.055233
    25  C   -0.035941
    26  C    0.058535
    27  C    0.076885
    28  C    0.172723
    29  C   -0.004460
    30  C    0.111966
    31  C   -0.033705
    32  C   -0.044956
    33  C   -0.139068
    34  C    0.020477
    35  C   -0.108308
    36  C   -0.139521
    37  C    0.127391
    38  C    0.038037
    39  C    0.164755
    40  C   -0.002920
    41  C    0.202139
    42  C    0.105091
    43  C    0.050873
    44  H    0.157618
    45  H    0.011582
    46  H    0.056279
    47  H   -0.009589
    48  H    0.055997
    49  H    0.020235
    50  H    0.036098
    51  H   -0.044577
    52  H    0.180817
    53  H    0.031582
    54  H    0.049811
    55  H    0.003409
    56  H    0.108208
    57  H   -0.020874
    58  H    0.015034
    59  H    0.016282
    60  H    0.042472
    61  H    0.032233
    62  H   -0.013767
    63  H    0.053351
    64  H   -0.093045
    65  H    0.043273
    66  H    0.050184
    67  H    0.022947
    68  H    0.011060
    69  H    0.101021
    70  H   -0.017664
    71  H    0.056287
    72  H   -0.002741
    73  H    0.038587
    74  H    0.027797
    75  H    0.044840
    76  H    0.004155
    77  H   -0.002819
    78  H    0.024864
    79  H   -0.009787
    80  H    0.257234
    81  H    0.222165
 Sum of Mulliken charges =  -0.00000

 Dipole moment (field-independent basis, Debye):
    X=             -2.9609    Y=              0.8281    Z=              0.0686  Tot=              3.0752
 Quadrupole moment (field-independent basis, Debye-Ang):
   XX=           -256.6504   YY=           -232.9970   ZZ=           -255.0271
   XY=             19.9088   XZ=             21.8824   YZ=            -14.0020

 Normal termination of Gaussian 16 at Fri Jun 28 22:36:10 2019.
