 Gaussian 16, Revision A.03,
 Gaussian 16:  ES64L-G16RevA.03 25-Dec-2016

 --------------------------
 # td=(NStates=1) B3LYP/SVP
 --------------------------

 --
 TD
 --
 Symbolic Z-matrix:
 Charge =  0 Multiplicity = 1

                         Standard orientation:
 ---------------------------------------------------------------------
 Center     Atomic      Atomic             Coordinates (Angstroms)
 Number     Number       Type             X           Y           Z
 ---------------------------------------------------------------------
      1          8           0        4.724234   -4.647200   -1.989770
      2          8           0       -2.653941   -4.909527   -1.278708
      3          8           0       -7.140773   -1.648798   -1.823654
      4          8           0       -3.644160   -3.316609   -0.143033
      5          8           0       -7.539565   -0.928318    0.239657
      6          8           0        2.926963    2.573909    0.085226
      7          7           0        0.301261   -0.603009    0.531255
      8          7           0       -1.498265    1.728133    0.396117
      9          7           0        3.626683   -3.155228   -0.579047
     10          7           0        0.628882    2.992297    0.003626
     11          6           0       -0.517373   -2.513668    1.323698
     12          6           0       -0.842700   -1.216874    0.852060
     13          6           0        0.880790   -2.682720    1.299720
     14          6           0        1.372407   -1.461902    0.706616
     15          6           0       -3.786703    1.336902    0.366774
     16          6           0       -2.450463    0.733926    0.615412
     17          6           0       -2.176552   -0.622902    0.791947
     18          6           0       -3.656088    2.577146    0.131054
     19          6           0       -1.556100   -3.448717    1.895534
     20          6           0        5.757456   -2.456892   -1.222955
     21          6           0        3.678185   -1.750048   -0.125587
     22          6           0       -2.186518    2.860648   -0.001143
     23          6           0        5.133620   -1.321211   -0.348952
     24          6           0       -5.146998    0.521021    0.410290
     25          6           0        2.689032   -0.970873    0.533083
     26          6           0        1.523322   -3.927817    1.785497
     27          6           0        4.669830   -3.609753   -1.276922
     28          6           0       -1.967716   -4.562498    0.876620
     29          6           0       -5.437815   -0.233215   -0.827173
     30          6           0       -4.635953    3.681645   -0.274647
     31          6           0       -1.489873    4.090074   -0.308998
     32          6           0        7.199672   -2.980361   -1.031137
     33          6           0        5.769995   -0.384740    0.242922
     34          6           0       -0.096917    4.124300   -0.270720
     35          6           0        0.728154    5.273677   -0.505554
     36          6           0        1.938254    4.893567   -0.345379
     37          6           0       -2.808429   -4.180970   -0.265147
     38          6           0        5.333630    0.661388    1.254969
     39          6           0       -6.841870   -0.926011   -0.740406
     40          6           0        3.366687    5.586002   -0.480913
     41          6           0        1.927962    3.353621   -0.046298
     42          6           0        0.183316    6.619518   -0.767068
     43          6           0        4.160314    5.797229    0.853705
     44          1           0        0.303350    0.276752   -0.127331
     45          1           0       -3.190140   -1.387255    0.909278
     46          1           0       -2.499330   -2.727474    1.879797
     47          1           0       -1.408997   -3.849239    2.983018
     48          1           0        5.674076   -2.283426   -2.207537
     49          1           0       -5.188218   -0.010245    1.386800
     50          1           0       -5.935304    1.468984    0.647618
     51          1           0        2.868282    0.228378    0.511836
     52          1           0       -0.360532    1.668458    0.423218
     53          1           0        1.544531   -4.834993    1.175716
     54          1           0        2.648515   -3.753829    1.996377
     55          1           0        1.095408   -4.261422    2.653548
     56          1           0        2.901982   -3.781256   -0.490186
     57          1           0       -1.261333   -5.127597    0.299926
     58          1           0       -2.386335   -5.303968    1.472101
     59          1           0       -4.589318   -1.056044   -1.021092
     60          1           0       -5.637352    0.599507   -1.746851
     61          1           0       -4.461156    4.770323    0.244558
     62          1           0       -5.809476    3.580390    0.138483
     63          1           0       -4.712322    3.818189   -1.523988
     64          1           0       -1.951605    4.973880   -0.559729
     65          1           0        7.870514   -2.129517   -0.995487
     66          1           0        7.394641   -3.613971   -1.921703
     67          1           0        7.170215   -3.798121   -0.036761
     68          1           0        6.772071   -0.312135    0.053484
     69          1           0        4.850211    1.477030    0.976968
     70          1           0        6.193650    1.089755    1.833977
     71          1           0        4.619511    0.005502    1.985029
     72          1           0        3.148702    6.535640   -0.877408
     73          1           0        4.037434    4.923910   -1.193229
     74          1           0       -0.415288    6.888944   -1.696339
     75          1           0        0.848874    7.471864   -0.797707
     76          1           0       -0.651431    7.004072   -0.106608
     77          1           0        3.434624    6.399443    1.678642
     78          1           0        4.869700    6.471664    0.851950
     79          1           0        4.377172    4.596269    1.213179
     80          1           0       -3.224204   -4.772969   -2.074934
     81          1           0       -8.020461   -2.125444   -1.725428
 ---------------------------------------------------------------------

 SCF Done:  E(RB3LYP) =  -1949.02670240     A.U. after   16 cycles

 Excitation energies and oscillator strengths:

 Excited State   1:      Singlet-A      1.9594 eV  632.75 nm  f=0.3710  <S**2>=0.000
     156 ->157         0.70826
     156 <-157        -0.10242
 This state for optimization and/or second-order correction.
 Total Energy, E(TD-HF/TD-DFT) =  -1948.95469445
 Copying the excited state density for this state as the 1-particle RhoCI density.

 The electronic state is 1-A.
 Alpha  occ. eigenvalues --  -19.21345 -19.18496 -19.12715 -19.12364 -19.10115
 Alpha  occ. eigenvalues --  -19.09858 -14.38740 -14.37281 -14.37088 -14.29088
 Alpha  occ. eigenvalues --  -10.32837 -10.32077 -10.28541 -10.26243 -10.25683
 Alpha  occ. eigenvalues --  -10.25603 -10.23954 -10.23712 -10.23652 -10.23159
 Alpha  occ. eigenvalues --  -10.22983 -10.22962 -10.22744 -10.22040 -10.21751
 Alpha  occ. eigenvalues --  -10.20659 -10.20530 -10.20395 -10.20052 -10.19948
 Alpha  occ. eigenvalues --  -10.19948 -10.19891 -10.19727 -10.19706 -10.19539
 Alpha  occ. eigenvalues --  -10.19464 -10.19268 -10.19162 -10.19100 -10.19023
 Alpha  occ. eigenvalues --  -10.18888 -10.17978 -10.17445  -1.14468  -1.09735
 Alpha  occ. eigenvalues --   -1.02402  -1.01178  -1.00438  -0.99238  -0.98762
 Alpha  occ. eigenvalues --   -0.97312  -0.93529  -0.92145  -0.82517  -0.82123
 Alpha  occ. eigenvalues --   -0.81605  -0.80743  -0.79928  -0.78894  -0.78105
 Alpha  occ. eigenvalues --   -0.77131  -0.76040  -0.74888  -0.73850  -0.72708
 Alpha  occ. eigenvalues --   -0.70593  -0.69851  -0.69337  -0.69130  -0.67126
 Alpha  occ. eigenvalues --   -0.66718  -0.65291  -0.65042  -0.64021  -0.62173
 Alpha  occ. eigenvalues --   -0.61074  -0.59379  -0.58369  -0.57819  -0.57389
 Alpha  occ. eigenvalues --   -0.56048  -0.55426  -0.54492  -0.53812  -0.53414
 Alpha  occ. eigenvalues --   -0.52372  -0.51952  -0.51108  -0.50410  -0.49677
 Alpha  occ. eigenvalues --   -0.49308  -0.48741  -0.48686  -0.47669  -0.47391
 Alpha  occ. eigenvalues --   -0.46842  -0.46630  -0.46164  -0.45712  -0.44742
 Alpha  occ. eigenvalues --   -0.44542  -0.44327  -0.43881  -0.43621  -0.43223
 Alpha  occ. eigenvalues --   -0.43156  -0.42783  -0.42128  -0.42033  -0.41797
 Alpha  occ. eigenvalues --   -0.41543  -0.41293  -0.41029  -0.40721  -0.40586
 Alpha  occ. eigenvalues --   -0.40317  -0.40084  -0.39998  -0.39564  -0.39467
 Alpha  occ. eigenvalues --   -0.39104  -0.38821  -0.38639  -0.38203  -0.38041
 Alpha  occ. eigenvalues --   -0.37857  -0.37276  -0.36970  -0.36538  -0.35896
 Alpha  occ. eigenvalues --   -0.35746  -0.35498  -0.34256  -0.34037  -0.33698
 Alpha  occ. eigenvalues --   -0.33291  -0.33076  -0.32986  -0.32700  -0.32512
 Alpha  occ. eigenvalues --   -0.32289  -0.31632  -0.31285  -0.29357  -0.28567
 Alpha  occ. eigenvalues --   -0.28150  -0.27837  -0.27399  -0.26638  -0.26180
 Alpha  occ. eigenvalues --   -0.25649  -0.24498  -0.24201  -0.23811  -0.21996
 Alpha  occ. eigenvalues --   -0.18187
 Alpha virt. eigenvalues --   -0.10336  -0.05483  -0.03346  -0.00492   0.00563
 Alpha virt. eigenvalues --    0.01592   0.01919   0.02199   0.02431   0.03286
 Alpha virt. eigenvalues --    0.03924   0.04141   0.04921   0.05081   0.05406

 Mulliken charges:
               1
     1  O   -0.272753
     2  O   -0.104944
     3  O   -0.196560
     4  O   -0.245186
     5  O   -0.219823
     6  O   -0.273390
     7  N   -0.082667
     8  N   -0.163064
     9  N   -0.085744
    10  N   -0.291457
    11  C   -0.093429
    12  C    0.018849
    13  C   -0.108349
    14  C    0.060767
    15  C   -0.091312
    16  C    0.083143
    17  C   -0.135015
    18  C   -0.036553
    19  C    0.013324
    20  C   -0.014103
    21  C    0.090232
    22  C    0.106411
    23  C    0.092131
    24  C    0.034267
    25  C   -0.167312
    26  C    0.087835
    27  C    0.072690
    28  C    0.070102
    29  C   -0.060135
    30  C   -0.080137
    31  C   -0.078908
    32  C    0.018502
    33  C   -0.165171
    34  C    0.087992
    35  C    0.007114
    36  C   -0.191464
    37  C    0.074004
    38  C    0.077498
    39  C    0.137592
    40  C    0.087072
    41  C    0.164612
    42  C    0.048525
    43  C   -0.042758
    44  H    0.177263
    45  H    0.116680
    46  H    0.029589
    47  H    0.039891
    48  H   -0.006608
    49  H    0.036608
    50  H    0.031699
    51  H    0.100844
    52  H    0.201597
    53  H    0.024262
    54  H    0.028099
    55  H   -0.013434
    56  H    0.097368
    57  H    0.001853
    58  H    0.017872
    59  H    0.093983
    60  H    0.060861
    61  H    0.051796
    62  H    0.045085
    63  H    0.066477
    64  H   -0.071553
    65  H    0.027664
    66  H    0.035441
    67  H    0.037755
    68  H   -0.045679
    69  H    0.019600
    70  H    0.001750
    71  H    0.040467
    72  H   -0.025952
    73  H    0.044479
    74  H    0.009530
    75  H    0.002309
    76  H    0.011467
    77  H    0.005216
    78  H   -0.013961
    79  H    0.076695
    80  H    0.210251
    81  H    0.200311
 Sum of Mulliken charges =  -0.00000

 Dipole moment (field-independent basis, Debye):
    X=             -4.9386    Y=              0.2947    Z=             -1.1834  Tot=              5.0869
 Quadrupole moment (field-independent basis, Debye-Ang):
   XX=           -258.2094   YY=           -229.2900   ZZ=           -255.7793
   XY=             19.6690   XZ=             22.8415   YZ=            -10.6910

 Normal termination of Gaussian 16 at Sat Jul  6 21:40:37 2019.
