 Gaussian 16, Revision A.03,
 Gaussian 16:  ES64L-G16RevA.03 25-Dec-2016

 --------------------------
 # td=(NStates=1) B3LYP/SVP
 --------------------------

 --
 TD
 --
 Symbolic Z-matrix:
 Charge =  0 Multiplicity = 1

                         Standard orientation:
 ---------------------------------------------------------------------
 Center     Atomic      Atomic             Coordinates (Angstroms)
 Number     Number       Type             X           Y           Z
 ---------------------------------------------------------------------
      1          8           0       -4.469917   -4.814939    1.817713
      2          8           0        2.933240   -4.829221    1.278653
      3          8           0        7.046806   -1.419902    1.945558
      4          8           0        3.889536   -3.166250   -0.027686
      5          8           0        7.683150   -0.261819    0.253392
      6          8           0       -3.151005    2.539659   -0.208560
      7          7           0       -0.291137   -0.661939   -0.599116
      8          7           0        1.575273    1.741433   -0.408024
      9          7           0       -3.466028   -3.155821    0.531592
     10          7           0       -0.834748    2.875549   -0.083138
     11          6           0        0.795358   -2.418250   -1.367001
     12          6           0        0.944768   -1.138892   -0.998355
     13          6           0       -0.680412   -2.657627   -1.318458
     14          6           0       -1.316612   -1.504046   -0.767108
     15          6           0        3.733484    1.511895   -0.434413
     16          6           0        2.493832    0.781340   -0.675944
     17          6           0        2.193625   -0.465208   -0.959637
     18          6           0        3.565017    2.714499   -0.098743
     19          6           0        1.772302   -3.445135   -1.929690
     20          6           0       -5.468968   -2.590778    1.470279
     21          6           0       -3.671465   -1.929364    0.103729
     22          6           0        2.070552    2.957929   -0.076585
     23          6           0       -5.084772   -1.571925    0.445076
     24          6           0        5.096749    0.757630   -0.512625
     25          6           0       -2.707039   -1.173355   -0.559287
     26          6           0       -1.397140   -3.933620   -1.803618
     27          6           0       -4.518673   -3.714013    1.346950
     28          6           0        2.092572   -4.461132   -0.958976
     29          6           0        5.417002   -0.094410    0.842280
     30          6           0        4.604376    3.787418    0.338227
     31          6           0        1.252168    4.106996    0.261551
     32          6           0       -6.945778   -3.069484    1.357583
     33          6           0       -5.822624   -0.633511   -0.223286
     34          6           0       -0.151532    4.016954    0.156530
     35          6           0       -1.006168    5.167405    0.513418
     36          6           0       -2.265952    4.665602    0.382920
     37          6           0        3.060525   -4.061716    0.110050
     38          6           0       -5.461336    0.355323   -1.214958
     39          6           0        6.865457   -0.672493    0.960207
     40          6           0       -3.651369    5.320724    0.419452
     41          6           0       -2.219144    3.288942    0.008874
     42          6           0       -0.579548    6.586767    0.828654
     43          6           0       -4.263542    5.667541   -0.888263
     44          1           0       -0.403718    0.270464   -0.071725
     45          1           0        3.102693   -1.191688   -0.952676
     46          1           0        2.670026   -2.996297   -2.456335
     47          1           0        1.328963   -4.058204   -2.840790
     48          1           0       -5.118468   -2.126067    2.440619
     49          1           0        5.249198   -0.059844   -1.182698
     50          1           0        5.835889    1.465493   -0.504433
     51          1           0       -2.868196   -0.072734   -0.699899
     52          1           0        0.544233    1.915609   -0.626441
     53          1           0       -1.147610   -4.595001   -1.154755
     54          1           0       -2.442105   -3.933221   -1.980399
     55          1           0       -0.840479   -4.354918   -2.683655
     56          1           0       -2.485936   -3.386707    0.568330
     57          1           0        1.320246   -5.092934   -0.562615
     58          1           0        2.703637   -5.329536   -1.401498
     59          1           0        4.703038   -0.959523    1.047180
     60          1           0        5.279386    0.636573    1.658081
     61          1           0        4.352682    4.804853    0.053431
     62          1           0        5.646829    3.462172   -0.290220
     63          1           0        4.549178    3.684755    1.251537
     64          1           0        1.598175    5.081223    0.464101
     65          1           0       -7.768926   -2.131625    1.702849
     66          1           0       -7.161434   -4.071435    2.059870
     67          1           0       -6.965962   -3.376728    0.401562
     68          1           0       -6.972477   -0.695075   -0.218304
     69          1           0       -5.049106    1.217740   -0.700942
     70          1           0       -6.333408    0.728115   -1.704770
     71          1           0       -4.667285   -0.131066   -1.645142
     72          1           0       -3.618778    6.264239    0.960248
     73          1           0       -4.237040    4.325903    0.767149
     74          1           0       -0.301963    6.660863    1.815288
     75          1           0       -1.494315    7.302344    0.900595
     76          1           0        0.195232    6.936602    0.089631
     77          1           0       -3.724157    6.174105   -1.609050
     78          1           0       -5.203538    6.074260   -0.465118
     79          1           0       -4.542092    4.720090   -1.334854
     80          1           0        3.585523   -4.405867    1.823822
     81          1           0        7.869788   -1.643756    1.967272
 ---------------------------------------------------------------------

 SCF Done:  E(RB3LYP) =  -1949.04405990     A.U. after   16 cycles

 Excitation energies and oscillator strengths:

 Excited State   1:      Singlet-A      1.9101 eV  649.09 nm  f=0.2752  <S**2>=0.000
     156 ->157         0.70486
 This state for optimization and/or second-order correction.
 Total Energy, E(TD-HF/TD-DFT) =  -1948.97386440
 Copying the excited state density for this state as the 1-particle RhoCI density.

 The electronic state is 1-A.
 Alpha  occ. eigenvalues --  -19.19230 -19.19031 -19.14815 -19.12701 -19.11462
 Alpha  occ. eigenvalues --  -19.10934 -14.36824 -14.36277 -14.35912 -14.28631
 Alpha  occ. eigenvalues --  -10.33710 -10.31070 -10.30295 -10.26122 -10.24998
 Alpha  occ. eigenvalues --  -10.23749 -10.22424 -10.22413 -10.22286 -10.21894
 Alpha  occ. eigenvalues --  -10.21603 -10.21564 -10.21560 -10.21221 -10.20624
 Alpha  occ. eigenvalues --  -10.20274 -10.20129 -10.20021 -10.19939 -10.19939
 Alpha  occ. eigenvalues --  -10.19881 -10.19690 -10.19525 -10.19248 -10.18995
 Alpha  occ. eigenvalues --  -10.18968 -10.18864 -10.18777 -10.18161 -10.18055
 Alpha  occ. eigenvalues --  -10.17410 -10.16513 -10.16234  -1.16407  -1.09796
 Alpha  occ. eigenvalues --   -1.05309  -1.04045  -1.02056  -1.01716  -0.99228
 Alpha  occ. eigenvalues --   -0.97796  -0.97149  -0.91256  -0.82892  -0.82335
 Alpha  occ. eigenvalues --   -0.82244  -0.81376  -0.79564  -0.78692  -0.77436
 Alpha  occ. eigenvalues --   -0.76985  -0.76307  -0.75954  -0.74391  -0.72779
 Alpha  occ. eigenvalues --   -0.71984  -0.69965  -0.69883  -0.69648  -0.68421
 Alpha  occ. eigenvalues --   -0.68046  -0.66205  -0.64670  -0.62536  -0.62269
 Alpha  occ. eigenvalues --   -0.60613  -0.59474  -0.59033  -0.58336  -0.56839
 Alpha  occ. eigenvalues --   -0.56047  -0.55545  -0.54408  -0.53425  -0.53130
 Alpha  occ. eigenvalues --   -0.52206  -0.51995  -0.51654  -0.50371  -0.50167
 Alpha  occ. eigenvalues --   -0.49882  -0.49421  -0.48860  -0.48360  -0.48267
 Alpha  occ. eigenvalues --   -0.47253  -0.47155  -0.46750  -0.46476  -0.45617
 Alpha  occ. eigenvalues --   -0.45308  -0.44868  -0.44690  -0.44531  -0.44341
 Alpha  occ. eigenvalues --   -0.44143  -0.43531  -0.43112  -0.43075  -0.42645
 Alpha  occ. eigenvalues --   -0.42389  -0.42134  -0.41922  -0.41830  -0.41604
 Alpha  occ. eigenvalues --   -0.41019  -0.40457  -0.40322  -0.39986  -0.39792
 Alpha  occ. eigenvalues --   -0.39690  -0.38933  -0.38844  -0.38037  -0.37745
 Alpha  occ. eigenvalues --   -0.37494  -0.37413  -0.37294  -0.36773  -0.36440
 Alpha  occ. eigenvalues --   -0.36435  -0.36207  -0.35378  -0.35044  -0.34557
 Alpha  occ. eigenvalues --   -0.34079  -0.33950  -0.33705  -0.33609  -0.33470
 Alpha  occ. eigenvalues --   -0.32981  -0.32021  -0.31715  -0.30247  -0.29896
 Alpha  occ. eigenvalues --   -0.28253  -0.28128  -0.27383  -0.26798  -0.25811
 Alpha  occ. eigenvalues --   -0.24687  -0.24511  -0.23287  -0.23089  -0.21067
 Alpha  occ. eigenvalues --   -0.17800
 Alpha virt. eigenvalues --   -0.09873  -0.05073  -0.03167  -0.01860  -0.00827
 Alpha virt. eigenvalues --    0.02620   0.02781   0.03759   0.04347   0.04846
 Alpha virt. eigenvalues --    0.05104   0.05258   0.05487   0.06187   0.07081

 Mulliken charges:
               1
     1  O   -0.165190
     2  O   -0.193624
     3  O    0.003088
     4  O   -0.238637
     5  O   -0.188446
     6  O   -0.195720
     7  N   -0.076968
     8  N   -0.095131
     9  N   -0.084851
    10  N   -0.344826
    11  C   -0.076350
    12  C    0.073687
    13  C   -0.240414
    14  C    0.014893
    15  C   -0.066780
    16  C    0.096320
    17  C   -0.135266
    18  C   -0.155926
    19  C    0.097120
    20  C   -0.014359
    21  C    0.008577
    22  C    0.047092
    23  C   -0.012624
    24  C    0.195757
    25  C   -0.115193
    26  C    0.216603
    27  C    0.112277
    28  C    0.051978
    29  C   -0.102644
    30  C    0.178154
    31  C   -0.066447
    32  C    0.003807
    33  C   -0.238833
    34  C    0.044330
    35  C   -0.115637
    36  C   -0.168384
    37  C    0.126305
    38  C    0.177459
    39  C    0.048202
    40  C    0.022120
    41  C    0.160250
    42  C    0.124457
    43  C    0.066262
    44  H    0.156775
    45  H    0.050187
    46  H    0.025216
    47  H    0.018306
    48  H    0.061337
    49  H    0.011998
    50  H   -0.037852
    51  H    0.027499
    52  H    0.162829
    53  H   -0.050526
    54  H    0.021001
    55  H   -0.012293
    56  H    0.128730
    57  H    0.013570
    58  H    0.040381
    59  H    0.042387
    60  H    0.022923
    61  H    0.018343
    62  H    0.061730
    63  H   -0.039423
    64  H   -0.058819
    65  H    0.059490
    66  H    0.057776
    67  H    0.001442
    68  H    0.006976
    69  H    0.051512
    70  H   -0.002489
    71  H    0.007592
    72  H   -0.011351
    73  H    0.041400
    74  H    0.002279
    75  H    0.015686
    76  H    0.046298
    77  H   -0.000145
    78  H    0.011431
    79  H    0.003504
    80  H    0.166413
    81  H    0.101395
 Sum of Mulliken charges =  -0.00000

 Dipole moment (field-independent basis, Debye):
    X=              2.4448    Y=              0.9289    Z=              1.3809  Tot=              2.9575
 Quadrupole moment (field-independent basis, Debye-Ang):
   XX=           -248.9777   YY=           -235.6534   ZZ=           -252.5236
   XY=            -16.6289   XZ=             14.4183   YZ=             11.4453

 Normal termination of Gaussian 16 at Sun Jun 30 06:10:34 2019.
