 Gaussian 16, Revision A.03,
 Gaussian 16:  ES64L-G16RevA.03 25-Dec-2016

 --------------------------
 # td=(NStates=1) B3LYP/SVP
 --------------------------

 --
 TD
 --
 Symbolic Z-matrix:
 Charge =  0 Multiplicity = 1

                         Standard orientation:
 ---------------------------------------------------------------------
 Center     Atomic      Atomic             Coordinates (Angstroms)
 Number     Number       Type             X           Y           Z
 ---------------------------------------------------------------------
      1          8           0       -4.310486   -4.770209    1.971825
      2          8           0        2.978562   -4.618792    1.314470
      3          8           0        7.125322   -1.601289    1.790380
      4          8           0        3.864338   -3.199659   -0.238102
      5          8           0        7.663751   -0.444848   -0.199028
      6          8           0       -2.977362    2.366350   -0.373046
      7          7           0       -0.183161   -0.574556   -0.504658
      8          7           0        1.542158    1.776046   -0.307890
      9          7           0       -3.325421   -3.053544    0.674608
     10          7           0       -0.745345    2.871608   -0.173877
     11          6           0        0.649350   -2.442741   -1.390797
     12          6           0        1.024149   -1.218633   -0.811231
     13          6           0       -0.806992   -2.593513   -1.282437
     14          6           0       -1.277050   -1.399710   -0.772202
     15          6           0        3.768327    1.424300   -0.251646
     16          6           0        2.480083    0.785195   -0.491154
     17          6           0        2.276346   -0.451044   -0.885888
     18          6           0        3.489299    2.811468    0.084626
     19          6           0        1.523734   -3.608479   -1.897604
     20          6           0       -5.462907   -2.598729    1.333574
     21          6           0       -3.578821   -1.799520    0.181779
     22          6           0        2.035409    2.973538   -0.000650
     23          6           0       -5.003320   -1.558249    0.377192
     24          6           0        5.064283    0.803539   -0.419463
     25          6           0       -2.643402   -1.022875   -0.351686
     26          6           0       -1.677565   -3.749525   -1.863122
     27          6           0       -4.375579   -3.659854    1.422993
     28          6           0        1.947158   -4.497368   -0.833762
     29          6           0        5.404811   -0.172334    0.785255
     30          6           0        4.496709    3.921176    0.442190
     31          6           0        1.210689    4.127926    0.281225
     32          6           0       -6.877420   -3.260055    1.179262
     33          6           0       -5.880371   -0.712001   -0.242251
     34          6           0       -0.151082    4.000696    0.195797
     35          6           0       -1.023318    5.096196    0.513103
     36          6           0       -2.291929    4.694007    0.200313
     37          6           0        3.086497   -4.038408    0.077543
     38          6           0       -5.442956    0.327416   -1.279008
     39          6           0        6.919895   -0.624056    0.713297
     40          6           0       -3.758871    5.252358    0.411524
     41          6           0       -2.133095    3.122446   -0.140116
     42          6           0       -0.632734    6.519755    1.053849
     43          6           0       -4.189433    5.718186   -0.929622
     44          1           0       -0.460800    0.324472   -0.108490
     45          1           0        3.032785   -1.076041   -1.067988
     46          1           0        2.476886   -3.097274   -2.416917
     47          1           0        1.220179   -4.127495   -2.792156
     48          1           0       -5.472969   -2.120615    2.487893
     49          1           0        5.221181   -0.004937   -1.446077
     50          1           0        5.859878    1.661709   -0.577372
     51          1           0       -2.863609    0.016772   -0.477388
     52          1           0        0.564934    1.699588   -0.580455
     53          1           0       -1.774232   -4.673869   -1.216007
     54          1           0       -2.779925   -3.263314   -2.061432
     55          1           0       -1.229742   -3.960968   -2.855732
     56          1           0       -2.412503   -3.603972    0.799075
     57          1           0        0.960082   -4.826804   -0.216169
     58          1           0        2.502396   -5.498382   -1.174302
     59          1           0        4.941483   -1.099675    0.798671
     60          1           0        5.164959    0.263323    1.694389
     61          1           0        4.623130    4.659628   -0.519814
     62          1           0        5.526869    3.651964    0.633326
     63          1           0        4.071720    4.546110    1.439271
     64          1           0        1.756584    5.067801    0.385570
     65          1           0       -7.673559   -2.526713    1.474873
     66          1           0       -6.913201   -4.008846    1.929309
     67          1           0       -7.053197   -3.626868    0.257171
     68          1           0       -7.148903   -0.699564    0.194916
     69          1           0       -5.106715    1.243709   -0.776386
     70          1           0       -6.320176    0.546868   -2.004627
     71          1           0       -4.633334   -0.234122   -1.714582
     72          1           0       -3.862878    6.256355    0.999195
     73          1           0       -4.226614    4.388964    1.085116
     74          1           0        0.117469    6.300082    1.998940
     75          1           0       -1.471325    7.204257    1.223665
     76          1           0       -0.157213    7.012355    0.244353
     77          1           0       -3.538790    6.339857   -1.443374
     78          1           0       -5.289952    6.162197   -0.986116
     79          1           0       -4.229940    5.091570   -1.655384
     80          1           0        3.643155   -4.240399    2.032229
     81          1           0        8.145910   -1.763652    1.998234
 ---------------------------------------------------------------------

 SCF Done:  E(RB3LYP) =  -1949.07551848     A.U. after   16 cycles

 Excitation energies and oscillator strengths:

 Excited State   1:      Singlet-A      2.0589 eV  602.19 nm  f=0.3529  <S**2>=0.000
     156 ->157         0.70310
 This state for optimization and/or second-order correction.
 Total Energy, E(TD-HF/TD-DFT) =  -1948.99985557
 Copying the excited state density for this state as the 1-particle RhoCI density.

 The electronic state is 1-A.
 Alpha  occ. eigenvalues --  -19.19198 -19.17147 -19.14757 -19.14362 -19.11620
 Alpha  occ. eigenvalues --  -19.11401 -14.37117 -14.36858 -14.36123 -14.28303
 Alpha  occ. eigenvalues --  -10.33252 -10.32988 -10.29433 -10.26753 -10.24780
 Alpha  occ. eigenvalues --  -10.24038 -10.23684 -10.23094 -10.22931 -10.22777
 Alpha  occ. eigenvalues --  -10.22695 -10.22661 -10.22125 -10.21982 -10.21674
 Alpha  occ. eigenvalues --  -10.21553 -10.21484 -10.21119 -10.21098 -10.20863
 Alpha  occ. eigenvalues --  -10.20600 -10.20546 -10.20485 -10.20451 -10.20082
 Alpha  occ. eigenvalues --  -10.19527 -10.19274 -10.19236 -10.18455 -10.18395
 Alpha  occ. eigenvalues --  -10.18058 -10.17783 -10.16509  -1.09787  -1.07452
 Alpha  occ. eigenvalues --   -1.05333  -1.02213  -1.01856  -0.99268  -0.98775
 Alpha  occ. eigenvalues --   -0.96878  -0.95067  -0.92011  -0.82721  -0.81719
 Alpha  occ. eigenvalues --   -0.81112  -0.81026  -0.78875  -0.78704  -0.77107
 Alpha  occ. eigenvalues --   -0.76743  -0.76223  -0.75258  -0.74246  -0.72329
 Alpha  occ. eigenvalues --   -0.70451  -0.69432  -0.68443  -0.67879  -0.67611
 Alpha  occ. eigenvalues --   -0.67171  -0.65728  -0.64029  -0.62688  -0.61477
 Alpha  occ. eigenvalues --   -0.59965  -0.59160  -0.57815  -0.56839  -0.56296
 Alpha  occ. eigenvalues --   -0.55759  -0.55404  -0.54555  -0.53062  -0.52644
 Alpha  occ. eigenvalues --   -0.52064  -0.51277  -0.50554  -0.49878  -0.49431
 Alpha  occ. eigenvalues --   -0.49146  -0.48818  -0.48161  -0.47787  -0.47075
 Alpha  occ. eigenvalues --   -0.46442  -0.46302  -0.45978  -0.45428  -0.45116
 Alpha  occ. eigenvalues --   -0.44617  -0.44277  -0.43780  -0.43390  -0.43206
 Alpha  occ. eigenvalues --   -0.42935  -0.42690  -0.42392  -0.42216  -0.42166
 Alpha  occ. eigenvalues --   -0.41821  -0.41463  -0.41257  -0.41062  -0.40950
 Alpha  occ. eigenvalues --   -0.40711  -0.40600  -0.40223  -0.39968  -0.39686
 Alpha  occ. eigenvalues --   -0.39518  -0.39185  -0.38953  -0.38735  -0.38491
 Alpha  occ. eigenvalues --   -0.37979  -0.37636  -0.37071  -0.36842  -0.36625
 Alpha  occ. eigenvalues --   -0.36463  -0.36111  -0.35492  -0.35211  -0.34963
 Alpha  occ. eigenvalues --   -0.34422  -0.34023  -0.33817  -0.33063  -0.32918
 Alpha  occ. eigenvalues --   -0.32067  -0.31952  -0.31643  -0.30475  -0.29426
 Alpha  occ. eigenvalues --   -0.29050  -0.28459  -0.26752  -0.25838  -0.25034
 Alpha  occ. eigenvalues --   -0.24923  -0.24626  -0.23758  -0.23409  -0.21575
 Alpha  occ. eigenvalues --   -0.18776
 Alpha virt. eigenvalues --   -0.10337  -0.05147  -0.04002  -0.01159  -0.01000
 Alpha virt. eigenvalues --   -0.00465   0.01331   0.02188   0.02865   0.03222
 Alpha virt. eigenvalues --    0.03583   0.04038   0.04451   0.04799   0.04960

 Mulliken charges:
               1
     1  O   -0.231627
     2  O   -0.248628
     3  O   -0.329309
     4  O   -0.187877
     5  O   -0.172046
     6  O   -0.127874
     7  N   -0.118546
     8  N   -0.031283
     9  N   -0.176046
    10  N   -0.320347
    11  C   -0.119685
    12  C    0.050817
    13  C   -0.183070
    14  C    0.046644
    15  C   -0.025071
    16  C    0.157517
    17  C    0.002293
    18  C   -0.114920
    19  C    0.100049
    20  C   -0.169618
    21  C    0.150314
    22  C    0.055576
    23  C    0.028021
    24  C   -0.060745
    25  C   -0.104256
    26  C    0.025185
    27  C    0.156765
    28  C   -0.033154
    29  C    0.054463
    30  C   -0.004191
    31  C   -0.160224
    32  C    0.126710
    33  C   -0.208438
    34  C    0.164403
    35  C   -0.130761
    36  C   -0.228680
    37  C    0.137205
    38  C    0.044868
    39  C    0.175834
    40  C    0.042581
    41  C    0.132549
    42  C    0.105577
    43  C    0.091379
    44  H    0.136261
    45  H   -0.064332
    46  H    0.017311
    47  H   -0.001255
    48  H    0.066115
    49  H    0.063382
    50  H    0.046499
    51  H   -0.002742
    52  H    0.130656
    53  H    0.038369
    54  H    0.054668
    55  H    0.030196
    56  H    0.157125
    57  H    0.058513
    58  H    0.052318
    59  H    0.027893
    60  H    0.009013
    61  H    0.051161
    62  H    0.020552
    63  H    0.054756
    64  H   -0.020531
    65  H    0.010565
    66  H    0.015554
    67  H   -0.008098
    68  H    0.040491
    69  H    0.071636
    70  H    0.026481
    71  H    0.031315
    72  H    0.013437
    73  H    0.053748
    74  H    0.049238
    75  H    0.012446
    76  H    0.013027
    77  H   -0.017534
    78  H    0.010090
    79  H   -0.052181
    80  H    0.226569
    81  H    0.214935
 Sum of Mulliken charges =  -0.00000

 Dipole moment (field-independent basis, Debye):
    X=              3.0373    Y=              1.5335    Z=              0.9653  Tot=              3.5367
 Quadrupole moment (field-independent basis, Debye-Ang):
   XX=           -246.0593   YY=           -246.7913   ZZ=           -252.6965
   XY=            -12.4063   XZ=             19.7135   YZ=             10.3296

 Normal termination of Gaussian 16 at Tue Jul  2 12:17:40 2019.
