 Gaussian 16, Revision A.03,
 Gaussian 16:  ES64L-G16RevA.03 25-Dec-2016

 --------------------------
 # td=(NStates=1) B3LYP/SVP
 --------------------------

 --
 TD
 --
 Symbolic Z-matrix:
 Charge =  0 Multiplicity = 1

                         Standard orientation:
 ---------------------------------------------------------------------
 Center     Atomic      Atomic             Coordinates (Angstroms)
 Number     Number       Type             X           Y           Z
 ---------------------------------------------------------------------
      1          8           0        4.433246   -4.733541   -1.978525
      2          8           0       -3.111916   -4.898624   -1.228390
      3          8           0       -7.035031   -1.354235   -1.772804
      4          8           0       -3.794088   -2.977586   -0.307656
      5          8           0       -7.629892   -0.487662    0.231463
      6          8           0        3.089759    2.371637    0.255570
      7          7           0        0.241030   -0.651067    0.542314
      8          7           0       -1.444819    1.884640    0.244892
      9          7           0        3.380345   -3.259350   -0.572409
     10          7           0        0.805854    2.930374    0.157245
     11          6           0       -0.694833   -2.473636    1.357024
     12          6           0       -0.964309   -1.185005    0.887682
     13          6           0        0.646383   -2.718095    1.261849
     14          6           0        1.231855   -1.620744    0.666851
     15          6           0       -3.656563    1.542231    0.409046
     16          6           0       -2.490427    0.879556    0.547020
     17          6           0       -2.154277   -0.449944    0.758669
     18          6           0       -3.433650    2.882081    0.021802
     19          6           0       -1.787908   -3.441666    1.900508
     20          6           0        5.468923   -2.602297   -1.275001
     21          6           0        3.578699   -1.939489   -0.062569
     22          6           0       -2.093004    3.051905    0.044765
     23          6           0        5.052463   -1.585844   -0.314004
     24          6           0       -5.100988    0.843882    0.386465
     25          6           0        2.618896   -1.148366    0.493445
     26          6           0        1.307800   -4.030151    1.701114
     27          6           0        4.452127   -3.739171   -1.334832
     28          6           0       -2.253315   -4.495095    0.926318
     29          6           0       -5.477630    0.078525   -0.742357
     30          6           0       -4.492417    3.902498   -0.401888
     31          6           0       -1.226025    4.213766   -0.241929
     32          6           0        6.949822   -3.231404   -1.125450
     33          6           0        5.733533   -0.531826    0.160075
     34          6           0        0.156503    4.124123   -0.152984
     35          6           0        1.162390    5.142505   -0.478970
     36          6           0        2.431937    4.641945   -0.397857
     37          6           0       -3.164160   -4.030442   -0.155360
     38          6           0        5.320795    0.309773    1.320408
     39          6           0       -6.830491   -0.662983   -0.695304
     40          6           0        3.809515    5.244407   -0.498821
     41          6           0        2.175104    3.194186    0.131031
     42          6           0        0.693577    6.567349   -0.844882
     43          6           0        4.469878    5.360808    0.903211
     44          1           0        0.381920    0.357290    0.267842
     45          1           0       -3.165142   -0.933591    0.767225
     46          1           0       -2.559637   -2.774815    2.258453
     47          1           0       -1.349432   -3.950713    2.585847
     48          1           0        5.513850   -2.176604   -2.324106
     49          1           0       -5.137893    0.355913    1.303262
     50          1           0       -5.922961    1.813481    0.538681
     51          1           0        2.885035   -0.091702    0.834078
     52          1           0       -0.391653    1.948659    0.316422
     53          1           0        1.192041   -4.693429    0.977834
     54          1           0        2.457862   -3.821388    1.737448
     55          1           0        1.063913   -4.433701    2.743588
     56          1           0        2.411099   -3.653904   -0.728294
     57          1           0       -1.313562   -5.097628    0.401010
     58          1           0       -2.955201   -5.333732    1.519663
     59          1           0       -4.957920   -0.944790   -0.776356
     60          1           0       -5.511372    0.741272   -1.814636
     61          1           0       -4.389104    4.866089    0.366877
     62          1           0       -5.506615    3.505817   -0.714274
     63          1           0       -4.049615    4.195171   -1.514392
     64          1           0       -1.669229    5.203344   -0.437276
     65          1           0        7.781224   -2.550240   -0.947947
     66          1           0        6.904773   -4.066254   -2.015397
     67          1           0        6.937322   -3.813753   -0.418537
     68          1           0        6.761833   -0.476582   -0.102387
     69          1           0        4.722037    1.265896    1.148616
     70          1           0        6.211322    0.666556    2.045372
     71          1           0        4.958237   -0.145454    2.252549
     72          1           0        3.636296    6.046339   -1.224901
     73          1           0        4.332428    4.566905   -1.133456
     74          1           0       -0.004624    6.442017   -1.682533
     75          1           0        1.412587    7.225452   -1.175256
     76          1           0        0.124254    7.107761   -0.049006
     77          1           0        3.850722    6.110267    1.656917
     78          1           0        5.458081    5.835258    0.649537
     79          1           0        4.522078    4.450953    1.272028
     80          1           0       -3.674058   -4.527616   -2.086830
     81          1           0       -8.095622   -1.470946   -1.629684
 ---------------------------------------------------------------------

 SCF Done:  E(RB3LYP) =  -1949.04286653     A.U. after   16 cycles

 Excitation energies and oscillator strengths:

 Excited State   1:      Singlet-A      2.0142 eV  615.57 nm  f=0.3547  <S**2>=0.000
     156 ->157         0.70439
     156 <-157        -0.10397
 This state for optimization and/or second-order correction.
 Total Energy, E(TD-HF/TD-DFT) =  -1948.96884786
 Copying the excited state density for this state as the 1-particle RhoCI density.

 The electronic state is 1-A.
 Alpha  occ. eigenvalues --  -19.20600 -19.19107 -19.14601 -19.12289 -19.12123
 Alpha  occ. eigenvalues --  -19.09211 -14.38072 -14.37247 -14.33736 -14.28188
 Alpha  occ. eigenvalues --  -10.34076 -10.32086 -10.29672 -10.25628 -10.24975
 Alpha  occ. eigenvalues --  -10.24589 -10.24105 -10.23323 -10.23044 -10.22923
 Alpha  occ. eigenvalues --  -10.22580 -10.22389 -10.21864 -10.21631 -10.20858
 Alpha  occ. eigenvalues --  -10.20842 -10.20441 -10.20398 -10.20386 -10.20300
 Alpha  occ. eigenvalues --  -10.20147 -10.19922 -10.19588 -10.19555 -10.19496
 Alpha  occ. eigenvalues --  -10.19057 -10.18604 -10.18296 -10.18251 -10.18203
 Alpha  occ. eigenvalues --  -10.18142 -10.18113 -10.18096  -1.11530  -1.08668
 Alpha  occ. eigenvalues --   -1.05602  -0.99845  -0.99535  -0.99437  -0.99223
 Alpha  occ. eigenvalues --   -0.96584  -0.94656  -0.89718  -0.83393  -0.82205
 Alpha  occ. eigenvalues --   -0.81573  -0.81210  -0.78960  -0.78685  -0.78152
 Alpha  occ. eigenvalues --   -0.77577  -0.75919  -0.74847  -0.73781  -0.72465
 Alpha  occ. eigenvalues --   -0.71119  -0.69836  -0.69560  -0.68199  -0.67910
 Alpha  occ. eigenvalues --   -0.67115  -0.65184  -0.64464  -0.62629  -0.61343
 Alpha  occ. eigenvalues --   -0.59678  -0.58268  -0.58092  -0.57839  -0.57361
 Alpha  occ. eigenvalues --   -0.56100  -0.54916  -0.54396  -0.54052  -0.52947
 Alpha  occ. eigenvalues --   -0.51987  -0.51350  -0.50790  -0.50609  -0.49747
 Alpha  occ. eigenvalues --   -0.49091  -0.48661  -0.48397  -0.48098  -0.47915
 Alpha  occ. eigenvalues --   -0.47187  -0.46459  -0.45878  -0.45541  -0.45053
 Alpha  occ. eigenvalues --   -0.44938  -0.44289  -0.44112  -0.43953  -0.43683
 Alpha  occ. eigenvalues --   -0.43273  -0.43085  -0.42788  -0.42651  -0.42345
 Alpha  occ. eigenvalues --   -0.42085  -0.41779  -0.41371  -0.41160  -0.40722
 Alpha  occ. eigenvalues --   -0.40446  -0.40153  -0.39937  -0.39765  -0.39407
 Alpha  occ. eigenvalues --   -0.39242  -0.39205  -0.39095  -0.38629  -0.38512
 Alpha  occ. eigenvalues --   -0.38172  -0.37969  -0.37516  -0.36755  -0.36637
 Alpha  occ. eigenvalues --   -0.36056  -0.35563  -0.35163  -0.34791  -0.34668
 Alpha  occ. eigenvalues --   -0.33661  -0.33044  -0.32985  -0.32827  -0.32607
 Alpha  occ. eigenvalues --   -0.32483  -0.32211  -0.30820  -0.29951  -0.29552
 Alpha  occ. eigenvalues --   -0.27455  -0.27262  -0.26858  -0.26595  -0.26183
 Alpha  occ. eigenvalues --   -0.25541  -0.24240  -0.23214  -0.22353  -0.21407
 Alpha  occ. eigenvalues --   -0.18719
 Alpha virt. eigenvalues --   -0.10660  -0.05234  -0.03678  -0.02960  -0.00164
 Alpha virt. eigenvalues --   -0.00112   0.01231   0.02028   0.02214   0.02391
 Alpha virt. eigenvalues --    0.03133   0.04493   0.05140   0.05841   0.06062

 Mulliken charges:
               1
     1  O   -0.169432
     2  O   -0.276293
     3  O   -0.177908
     4  O   -0.235674
     5  O   -0.263865
     6  O   -0.249495
     7  N   -0.091856
     8  N   -0.174224
     9  N   -0.185860
    10  N   -0.349241
    11  C   -0.154958
    12  C    0.108372
    13  C   -0.149608
    14  C    0.049553
    15  C   -0.065244
    16  C    0.046003
    17  C   -0.040652
    18  C   -0.132112
    19  C    0.330291
    20  C   -0.145712
    21  C    0.091122
    22  C    0.097075
    23  C    0.048527
    24  C    0.075016
    25  C   -0.114870
    26  C    0.090475
    27  C    0.140913
    28  C   -0.116377
    29  C   -0.026049
    30  C    0.005039
    31  C   -0.118758
    32  C    0.113173
    33  C   -0.052322
    34  C    0.113375
    35  C   -0.094860
    36  C   -0.241969
    37  C    0.172817
    38  C   -0.057547
    39  C    0.112311
    40  C    0.135483
    41  C    0.166102
    42  C    0.126384
    43  C    0.042216
    44  H    0.152759
    45  H    0.010418
    46  H    0.011997
    47  H   -0.077139
    48  H    0.066631
    49  H   -0.004111
    50  H    0.030291
    51  H    0.058932
    52  H    0.147399
    53  H   -0.010167
    54  H    0.039892
    55  H    0.045118
    56  H    0.149379
    57  H    0.085643
    58  H    0.077775
    59  H    0.063507
    60  H    0.063217
    61  H    0.068014
    62  H    0.040057
    63  H    0.039903
    64  H   -0.028981
    65  H    0.029796
    66  H    0.043305
    67  H   -0.073115
    68  H   -0.021045
    69  H    0.098887
    70  H   -0.007030
    71  H    0.016030
    72  H   -0.017319
    73  H   -0.011013
    74  H    0.011244
    75  H   -0.020150
    76  H    0.021831
    77  H    0.031787
    78  H    0.023114
    79  H    0.001946
    80  H    0.242312
    81  H    0.219527
 Sum of Mulliken charges =  -0.00000

 Dipole moment (field-independent basis, Debye):
    X=             -3.0603    Y=             -1.5367    Z=             -0.4119  Tot=              3.4492
 Quadrupole moment (field-independent basis, Debye-Ang):
   XX=           -250.3508   YY=           -241.4397   ZZ=           -252.1571
   XY=             13.7311   XZ=             20.5089   YZ=            -14.0653

 Normal termination of Gaussian 16 at Thu Jul  4 10:31:21 2019.
