 Gaussian 16, Revision A.03,
 Gaussian 16:  ES64L-G16RevA.03 25-Dec-2016

 --------------------------
 # td=(NStates=1) B3LYP/SVP
 --------------------------

 --
 TD
 --
 Symbolic Z-matrix:
 Charge =  0 Multiplicity = 1

                         Standard orientation:
 ---------------------------------------------------------------------
 Center     Atomic      Atomic             Coordinates (Angstroms)
 Number     Number       Type             X           Y           Z
 ---------------------------------------------------------------------
      1          8           0       -4.547622   -4.595011    2.040832
      2          8           0        2.891490   -4.751540    1.329512
      3          8           0        6.819663   -1.523728    1.975939
      4          8           0        3.717541   -3.161017   -0.052163
      5          8           0        7.536013   -0.821157   -0.127614
      6          8           0       -2.954404    2.427759   -0.256076
      7          7           0       -0.337370   -0.526590   -0.677712
      8          7           0        1.613087    1.823100   -0.485807
      9          7           0       -3.389500   -3.150581    0.700004
     10          7           0       -0.702316    2.927941   -0.258514
     11          6           0        0.635734   -2.491057   -1.343431
     12          6           0        0.976138   -1.063292   -1.016223
     13          6           0       -0.758126   -2.546928   -1.267509
     14          6           0       -1.311183   -1.366264   -0.840899
     15          6           0        3.862912    1.424300   -0.376703
     16          6           0        2.579939    0.757774   -0.603382
     17          6           0        2.185777   -0.487132   -1.046028
     18          6           0        3.632590    2.766662    0.022717
     19          6           0        1.536771   -3.512643   -1.879377
     20          6           0       -5.477649   -2.519884    1.424637
     21          6           0       -3.676153   -1.855520    0.092409
     22          6           0        2.198493    2.970739   -0.205795
     23          6           0       -5.026192   -1.467714    0.301351
     24          6           0        5.198123    0.752303   -0.449813
     25          6           0       -2.707388   -1.081706   -0.542668
     26          6           0       -1.536351   -3.886754   -1.735783
     27          6           0       -4.472228   -3.504816    1.415541
     28          6           0        1.945449   -4.592440   -0.916634
     29          6           0        5.389715   -0.108844    0.829376
     30          6           0        4.674507    3.689163    0.633117
     31          6           0        1.379974    4.116946    0.185102
     32          6           0       -6.864610   -3.036628    1.214084
     33          6           0       -5.783827   -0.520281   -0.216900
     34          6           0       -0.048109    4.078784    0.152972
     35          6           0       -0.954687    5.152519    0.445030
     36          6           0       -2.239262    4.674124    0.396403
     37          6           0        2.892841   -3.996395    0.154970
     38          6           0       -5.488947    0.441570   -1.343276
     39          6           0        6.720684   -0.859563    0.743843
     40          6           0       -3.576121    5.325673    0.487176
     41          6           0       -2.026348    3.217045   -0.045475
     42          6           0       -0.434190    6.589601    0.853811
     43          6           0       -4.238037    5.540939   -0.819739
     44          1           0       -0.546395    0.280280   -0.160424
     45          1           0        2.865768   -1.219542   -0.985988
     46          1           0        2.488906   -3.043777   -2.452866
     47          1           0        0.743261   -3.971047   -2.700793
     48          1           0       -5.635564   -2.124451    2.426899
     49          1           0        5.455604   -0.070064   -1.270610
     50          1           0        5.968001    1.597150   -0.464654
     51          1           0       -3.051318   -0.021532   -0.652475
     52          1           0        0.571411    1.873296   -0.467592
     53          1           0       -1.426421   -4.825387   -1.031287
     54          1           0       -2.653522   -3.587991   -1.952062
     55          1           0       -1.113627   -4.134508   -2.714763
     56          1           0       -2.428296   -3.739894    0.705465
     57          1           0        1.096392   -5.081707   -0.268561
     58          1           0        2.354137   -5.382253   -1.366391
     59          1           0        4.688158   -0.944224    0.917336
     60          1           0        5.169916    0.411243    1.780446
     61          1           0        4.878527    4.732121    0.308389
     62          1           0        5.836212    3.238955    0.632046
     63          1           0        4.464852    3.749689    1.763689
     64          1           0        2.031551    5.039245    0.820610
     65          1           0       -7.600312   -2.430521    1.488875
     66          1           0       -6.894962   -3.823528    1.882101
     67          1           0       -7.284742   -3.415858    0.348398
     68          1           0       -6.799854   -0.452018    0.255307
     69          1           0       -4.945970    1.365795   -1.083046
     70          1           0       -6.346144    0.595597   -1.782839
     71          1           0       -4.749619   -0.202005   -1.891004
     72          1           0       -3.246786    6.193224    1.003594
     73          1           0       -4.149253    4.776503    1.319982
     74          1           0        0.306813    6.527386    1.690105
     75          1           0       -1.346298    7.185165    1.431811
     76          1           0       -0.038774    7.076590   -0.066961
     77          1           0       -3.644704    6.430016   -1.322576
     78          1           0       -5.158569    5.990370   -0.682444
     79          1           0       -4.348836    4.526932   -1.535690
     80          1           0        3.775900   -4.599665    1.853149
     81          1           0        7.584377   -2.240805    1.778180
 ---------------------------------------------------------------------

 SCF Done:  E(RB3LYP) =  -1949.07807877     A.U. after   19 cycles

 Excitation energies and oscillator strengths:

 Excited State   1:      Singlet-A      1.9352 eV  640.68 nm  f=0.3944  <S**2>=0.000
     156 ->157         0.70811
     156 <-157        -0.11978
 This state for optimization and/or second-order correction.
 Total Energy, E(TD-HF/TD-DFT) =  -1949.00696195
 Copying the excited state density for this state as the 1-particle RhoCI density.

 The electronic state is 1-A.
 Alpha  occ. eigenvalues --  -19.19654 -19.18509 -19.15816 -19.14403 -19.09215
 Alpha  occ. eigenvalues --  -19.08792 -14.38244 -14.38218 -14.35200 -14.28133
 Alpha  occ. eigenvalues --  -10.34474 -10.32463 -10.27931 -10.25417 -10.25120
 Alpha  occ. eigenvalues --  -10.24101 -10.24061 -10.23983 -10.23462 -10.23423
 Alpha  occ. eigenvalues --  -10.22776 -10.22248 -10.22228 -10.21889 -10.21320
 Alpha  occ. eigenvalues --  -10.21135 -10.21041 -10.20847 -10.20813 -10.20355
 Alpha  occ. eigenvalues --  -10.20301 -10.20288 -10.20281 -10.20213 -10.20028
 Alpha  occ. eigenvalues --  -10.19941 -10.19879 -10.19390 -10.18824 -10.18503
 Alpha  occ. eigenvalues --  -10.18455 -10.17328 -10.15789  -1.10619  -1.08508
 Alpha  occ. eigenvalues --   -1.02026  -1.01670  -1.00820  -0.99942  -0.99432
 Alpha  occ. eigenvalues --   -0.97264  -0.93618  -0.90442  -0.84032  -0.82518
 Alpha  occ. eigenvalues --   -0.82307  -0.81370  -0.79379  -0.79199  -0.78595
 Alpha  occ. eigenvalues --   -0.76888  -0.76359  -0.74965  -0.74236  -0.72043
 Alpha  occ. eigenvalues --   -0.70496  -0.70019  -0.69310  -0.68172  -0.67708
 Alpha  occ. eigenvalues --   -0.66706  -0.66455  -0.65138  -0.62596  -0.61750
 Alpha  occ. eigenvalues --   -0.60892  -0.58989  -0.58074  -0.57348  -0.56765
 Alpha  occ. eigenvalues --   -0.56077  -0.54871  -0.54346  -0.53726  -0.53083
 Alpha  occ. eigenvalues --   -0.52665  -0.51627  -0.50965  -0.50598  -0.50018
 Alpha  occ. eigenvalues --   -0.49549  -0.48955  -0.48901  -0.48414  -0.47951
 Alpha  occ. eigenvalues --   -0.47434  -0.46969  -0.45985  -0.45848  -0.45263
 Alpha  occ. eigenvalues --   -0.45204  -0.44754  -0.44475  -0.43768  -0.43585
 Alpha  occ. eigenvalues --   -0.43500  -0.42745  -0.42444  -0.42389  -0.42098
 Alpha  occ. eigenvalues --   -0.41884  -0.41478  -0.41262  -0.41125  -0.40841
 Alpha  occ. eigenvalues --   -0.40480  -0.40256  -0.39995  -0.39652  -0.39588
 Alpha  occ. eigenvalues --   -0.39032  -0.38929  -0.38520  -0.38342  -0.37965
 Alpha  occ. eigenvalues --   -0.37866  -0.37219  -0.37126  -0.36918  -0.36420
 Alpha  occ. eigenvalues --   -0.36051  -0.35839  -0.35705  -0.35267  -0.34598
 Alpha  occ. eigenvalues --   -0.34495  -0.34395  -0.34008  -0.33320  -0.32896
 Alpha  occ. eigenvalues --   -0.32662  -0.32313  -0.31260  -0.30747  -0.30573
 Alpha  occ. eigenvalues --   -0.29412  -0.27420  -0.26354  -0.26250  -0.25315
 Alpha  occ. eigenvalues --   -0.24826  -0.24295  -0.23142  -0.22913  -0.21697
 Alpha  occ. eigenvalues --   -0.18040
 Alpha virt. eigenvalues --   -0.10457  -0.06026  -0.04244  -0.02877  -0.00323
 Alpha virt. eigenvalues --   -0.00094   0.01111   0.01524   0.01975   0.03308
 Alpha virt. eigenvalues --    0.03520   0.04465   0.04820   0.05197   0.06110

 Mulliken charges:
               1
     1  O   -0.272211
     2  O   -0.256394
     3  O   -0.273755
     4  O   -0.196037
     5  O   -0.192010
     6  O   -0.242241
     7  N   -0.019460
     8  N   -0.085790
     9  N   -0.154170
    10  N   -0.315714
    11  C   -0.065536
    12  C    0.065938
    13  C   -0.191474
    14  C    0.060321
    15  C   -0.051208
    16  C    0.045592
    17  C    0.058891
    18  C   -0.093319
    19  C   -0.011369
    20  C   -0.019983
    21  C    0.109588
    22  C    0.048167
    23  C    0.051546
    24  C    0.056760
    25  C   -0.157637
    26  C   -0.000374
    27  C    0.110812
    28  C    0.076540
    29  C   -0.048508
    30  C   -0.011999
    31  C   -0.161308
    32  C    0.137152
    33  C   -0.195002
    34  C    0.095019
    35  C   -0.094562
    36  C   -0.225015
    37  C    0.153278
    38  C    0.131586
    39  C    0.178015
    40  C    0.125311
    41  C    0.134316
    42  C    0.037667
    43  C    0.010147
    44  H    0.125380
    45  H   -0.048545
    46  H    0.061570
    47  H    0.038276
    48  H    0.039770
    49  H    0.049395
    50  H    0.028165
    51  H    0.036251
    52  H    0.128248
    53  H    0.051577
    54  H    0.053649
    55  H    0.024184
    56  H    0.192119
    57  H    0.045184
    58  H    0.011354
    59  H    0.037044
    60  H    0.035322
    61  H    0.040041
    62  H    0.031236
    63  H    0.039158
    64  H    0.032715
    65  H   -0.041088
    66  H   -0.006454
    67  H   -0.021256
    68  H   -0.003536
    69  H    0.084285
    70  H   -0.026468
    71  H    0.022763
    72  H   -0.037214
    73  H    0.013761
    74  H    0.032305
    75  H    0.031626
    76  H    0.047294
    77  H    0.014389
    78  H   -0.008121
    79  H    0.068687
    80  H    0.219281
    81  H    0.206084
 Sum of Mulliken charges =  -0.00000

 Dipole moment (field-independent basis, Debye):
    X=              2.5994    Y=             -1.2058    Z=              0.5052  Tot=              2.9096
 Quadrupole moment (field-independent basis, Debye-Ang):
   XX=           -250.0912   YY=           -240.6223   ZZ=           -257.5448
   XY=            -24.0795   XZ=             17.1158   YZ=             17.7972

 Normal termination of Gaussian 16 at Sun Jun 30 21:24:30 2019.
