 Gaussian 16, Revision A.03,
 Gaussian 16:  ES64L-G16RevA.03 25-Dec-2016

 --------------------------
 # td=(NStates=1) B3LYP/SVP
 --------------------------

 --
 TD
 --
 Symbolic Z-matrix:
 Charge =  0 Multiplicity = 1

                         Standard orientation:
 ---------------------------------------------------------------------
 Center     Atomic      Atomic             Coordinates (Angstroms)
 Number     Number       Type             X           Y           Z
 ---------------------------------------------------------------------
      1          8           0       -4.627107   -4.730062    1.854109
      2          8           0        3.368979   -5.004683    1.121163
      3          8           0        6.988302   -1.660693    1.816676
      4          8           0        3.794728   -3.192568   -0.220665
      5          8           0        7.671625   -0.475009    0.037411
      6          8           0       -3.002691    2.524261   -0.285645
      7          7           0       -0.327430   -0.520056   -0.624042
      8          7           0        1.510701    1.856650   -0.355694
      9          7           0       -3.538221   -3.136345    0.657093
     10          7           0       -0.681604    2.949282    0.005596
     11          6           0        0.530524   -2.473934   -1.307913
     12          6           0        0.922467   -1.185411   -0.868166
     13          6           0       -0.805533   -2.637934   -1.112611
     14          6           0       -1.289765   -1.431721   -0.657936
     15          6           0        3.789714    1.403829   -0.416200
     16          6           0        2.500573    0.797264   -0.577220
     17          6           0        2.143594   -0.597204   -0.838279
     18          6           0        3.494906    2.740433    0.050577
     19          6           0        1.432531   -3.588179   -1.913250
     20          6           0       -5.652990   -2.518253    1.400626
     21          6           0       -3.670127   -1.742842    0.187813
     22          6           0        2.160716    3.004586   -0.047288
     23          6           0       -5.109419   -1.443567    0.461959
     24          6           0        5.080691    0.714492   -0.427097
     25          6           0       -2.741616   -1.119378   -0.424933
     26          6           0       -1.576887   -3.921511   -1.636169
     27          6           0       -4.538960   -3.725351    1.355951
     28          6           0        1.886368   -4.569353   -0.888671
     29          6           0        5.424972   -0.200986    0.795572
     30          6           0        4.543990    3.762483    0.365662
     31          6           0        1.420764    4.187240    0.226280
     32          6           0       -7.012526   -3.149739    1.004816
     33          6           0       -5.861058   -0.497891   -0.113048
     34          6           0        0.054562    4.160960    0.270203
     35          6           0       -0.903250    5.224543    0.610315
     36          6           0       -2.176189    4.686807    0.286345
     37          6           0        3.096272   -4.268975    0.001920
     38          6           0       -5.456333    0.475295   -1.106716
     39          6           0        6.817465   -0.714683    0.854153
     40          6           0       -3.458450    5.414881    0.336499
     41          6           0       -2.065075    3.228424   -0.035906
     42          6           0       -0.496760    6.594432    0.934294
     43          6           0       -3.988027    5.862056   -1.068108
     44          1           0       -0.484206    0.430626   -0.217329
     45          1           0        3.277755   -0.948156   -1.045695
     46          1           0        2.265973   -3.288580   -2.431909
     47          1           0        0.984778   -4.131758   -2.701783
     48          1           0       -5.606356   -2.415952    2.505227
     49          1           0        5.195140   -0.054411   -1.221017
     50          1           0        5.828141    1.462801   -0.543781
     51          1           0       -2.883521   -0.001305   -0.733340
     52          1           0        0.591362    2.050362   -0.562361
     53          1           0       -1.636213   -4.865984   -0.941258
     54          1           0       -2.567766   -3.652866   -1.951447
     55          1           0       -0.980522   -4.464738   -2.399528
     56          1           0       -2.547561   -3.473569    0.387831
     57          1           0        1.082164   -4.904708   -0.328258
     58          1           0        1.980140   -5.563691   -1.519089
     59          1           0        4.748453   -1.075597    0.860966
     60          1           0        5.061773    0.343322    1.753656
     61          1           0        4.157886    4.700691   -0.144714
     62          1           0        5.665362    3.574219    0.008987
     63          1           0        4.558960    4.127406    1.366562
     64          1           0        2.005048    5.001786    0.600655
     65          1           0       -7.909388   -2.620961    1.348798
     66          1           0       -6.986517   -4.172270    1.539814
     67          1           0       -7.072797   -3.605303   -0.060802
     68          1           0       -6.910435   -0.368661    0.293062
     69          1           0       -4.537149    1.166089   -0.444842
     70          1           0       -6.223942    1.064012   -1.699510
     71          1           0       -4.841492   -0.045111   -1.944839
     72          1           0       -3.538661    6.385666    0.972069
     73          1           0       -4.334969    4.558400    0.619494
     74          1           0        0.177439    6.447540    1.665473
     75          1           0       -1.479837    7.159215    1.426959
     76          1           0        0.211544    6.959440    0.078247
     77          1           0       -3.422291    6.655882   -1.678057
     78          1           0       -4.941135    6.580695   -0.848017
     79          1           0       -4.259971    5.094629   -1.884285
     80          1           0        4.096189   -4.665118    1.708358
     81          1           0        7.998941   -2.005588    1.579786
 ---------------------------------------------------------------------

 SCF Done:  E(RB3LYP) =  -1949.05778222     A.U. after   17 cycles

 Excitation energies and oscillator strengths:

 Excited State   1:      Singlet-A      1.8363 eV  675.18 nm  f=0.1754  <S**2>=0.000
     155 ->157         0.29122
     156 ->157         0.64016
 This state for optimization and/or second-order correction.
 Total Energy, E(TD-HF/TD-DFT) =  -1948.99029863
 Copying the excited state density for this state as the 1-particle RhoCI density.

 The electronic state is 1-A.
 Alpha  occ. eigenvalues --  -19.20923 -19.19028 -19.14235 -19.13083 -19.11687
 Alpha  occ. eigenvalues --  -19.09945 -14.39616 -14.36363 -14.34159 -14.27126
 Alpha  occ. eigenvalues --  -10.35699 -10.32226 -10.28598 -10.25594 -10.25579
 Alpha  occ. eigenvalues --  -10.24664 -10.24361 -10.24061 -10.23738 -10.23567
 Alpha  occ. eigenvalues --  -10.22590 -10.22264 -10.22050 -10.21679 -10.21258
 Alpha  occ. eigenvalues --  -10.21228 -10.20995 -10.20687 -10.20435 -10.20195
 Alpha  occ. eigenvalues --  -10.20187 -10.19893 -10.19743 -10.19619 -10.19609
 Alpha  occ. eigenvalues --  -10.19607 -10.19353 -10.19322 -10.19021 -10.18936
 Alpha  occ. eigenvalues --  -10.18748 -10.18398 -10.17943  -1.09416  -1.09236
 Alpha  occ. eigenvalues --   -1.08202  -1.01766  -1.00488  -1.00110  -0.98649
 Alpha  occ. eigenvalues --   -0.96860  -0.94001  -0.88452  -0.84378  -0.82607
 Alpha  occ. eigenvalues --   -0.81705  -0.80727  -0.79911  -0.78960  -0.78113
 Alpha  occ. eigenvalues --   -0.77393  -0.76685  -0.74624  -0.74101  -0.72498
 Alpha  occ. eigenvalues --   -0.71552  -0.70667  -0.69273  -0.68666  -0.67418
 Alpha  occ. eigenvalues --   -0.66676  -0.65167  -0.63444  -0.62818  -0.61893
 Alpha  occ. eigenvalues --   -0.60016  -0.59438  -0.58534  -0.57678  -0.57449
 Alpha  occ. eigenvalues --   -0.57253  -0.55536  -0.55237  -0.53760  -0.53400
 Alpha  occ. eigenvalues --   -0.52401  -0.51185  -0.50411  -0.50221  -0.49868
 Alpha  occ. eigenvalues --   -0.48839  -0.48696  -0.48428  -0.48327  -0.47983
 Alpha  occ. eigenvalues --   -0.47469  -0.47100  -0.46635  -0.46059  -0.45664
 Alpha  occ. eigenvalues --   -0.45121  -0.44865  -0.44496  -0.44025  -0.43700
 Alpha  occ. eigenvalues --   -0.43528  -0.42734  -0.42560  -0.42485  -0.42350
 Alpha  occ. eigenvalues --   -0.42129  -0.41976  -0.41543  -0.40807  -0.40540
 Alpha  occ. eigenvalues --   -0.40469  -0.40095  -0.40010  -0.39883  -0.39588
 Alpha  occ. eigenvalues --   -0.39387  -0.38900  -0.38736  -0.38241  -0.38075
 Alpha  occ. eigenvalues --   -0.37666  -0.37343  -0.36981  -0.36786  -0.36395
 Alpha  occ. eigenvalues --   -0.36263  -0.36029  -0.35942  -0.35746  -0.35226
 Alpha  occ. eigenvalues --   -0.34245  -0.33365  -0.33047  -0.32949  -0.32683
 Alpha  occ. eigenvalues --   -0.32606  -0.31544  -0.30587  -0.30151  -0.29111
 Alpha  occ. eigenvalues --   -0.28759  -0.27830  -0.26756  -0.26429  -0.25868
 Alpha  occ. eigenvalues --   -0.24625  -0.24190  -0.22783  -0.22548  -0.20627
 Alpha  occ. eigenvalues --   -0.18692
 Alpha virt. eigenvalues --   -0.11023  -0.05779  -0.04673  -0.03139  -0.00414
 Alpha virt. eigenvalues --    0.00728   0.01825   0.02310   0.02762   0.03014
 Alpha virt. eigenvalues --    0.03803   0.04146   0.04814   0.05566   0.06073

 Mulliken charges:
               1
     1  O   -0.107096
     2  O   -0.199684
     3  O   -0.252554
     4  O   -0.303706
     5  O   -0.228825
     6  O   -0.205303
     7  N   -0.073180
     8  N   -0.057596
     9  N   -0.199871
    10  N   -0.428352
    11  C   -0.067203
    12  C    0.157714
    13  C   -0.141909
    14  C    0.009676
    15  C   -0.055198
    16  C   -0.038923
    17  C   -0.044741
    18  C   -0.133212
    19  C    0.204527
    20  C   -0.132113
    21  C    0.182144
    22  C    0.046059
    23  C    0.054003
    24  C    0.113197
    25  C   -0.179522
    26  C    0.053827
    27  C    0.099461
    28  C    0.002756
    29  C   -0.049204
    30  C    0.052026
    31  C   -0.093672
    32  C    0.009102
    33  C   -0.112675
    34  C    0.134955
    35  C   -0.129925
    36  C   -0.139745
    37  C    0.212658
    38  C   -0.071968
    39  C    0.166539
    40  C   -0.001727
    41  C    0.193567
    42  C    0.147104
    43  C   -0.084928
    44  H    0.166609
    45  H    0.067138
    46  H   -0.022776
    47  H   -0.020010
    48  H    0.033705
    49  H    0.023626
    50  H   -0.000176
    51  H    0.054425
    52  H    0.086602
    53  H    0.039474
    54  H    0.047581
    55  H    0.007009
    56  H    0.135599
    57  H    0.000331
    58  H    0.046903
    59  H    0.042297
    60  H    0.044104
    61  H    0.020720
    62  H    0.047334
    63  H    0.006151
    64  H   -0.046823
    65  H    0.025369
    66  H    0.022382
    67  H    0.018098
    68  H    0.002590
    69  H    0.145559
    70  H    0.030826
    71  H    0.033042
    72  H    0.022875
    73  H    0.042856
    74  H   -0.024262
    75  H    0.045746
    76  H    0.040573
    77  H    0.009048
    78  H    0.008658
    79  H    0.042988
    80  H    0.221477
    81  H    0.225870
 Sum of Mulliken charges =  -0.00000

 Dipole moment (field-independent basis, Debye):
    X=              3.9656    Y=             -2.7048    Z=             -0.3926  Tot=              4.8162
 Quadrupole moment (field-independent basis, Debye-Ang):
   XX=           -261.5807   YY=           -238.5477   ZZ=           -253.5453
   XY=            -16.2074   XZ=             17.0114   YZ=             15.9252

 Normal termination of Gaussian 16 at Thu Jul  4 14:24:20 2019.
