 Gaussian 16, Revision A.03,
 Gaussian 16:  ES64L-G16RevA.03 25-Dec-2016

 --------------------------
 # td=(NStates=1) B3LYP/SVP
 --------------------------

 --
 TD
 --
 Symbolic Z-matrix:
 Charge =  0 Multiplicity = 1

                         Standard orientation:
 ---------------------------------------------------------------------
 Center     Atomic      Atomic             Coordinates (Angstroms)
 Number     Number       Type             X           Y           Z
 ---------------------------------------------------------------------
      1          8           0        4.444872   -4.765829   -1.816386
      2          8           0       -2.932566   -4.698668   -1.355173
      3          8           0       -6.774370   -1.614074   -1.983358
      4          8           0       -3.726497   -3.097740    0.016058
      5          8           0       -7.621090   -0.751298   -0.116344
      6          8           0        3.012437    2.373525    0.094810
      7          7           0        0.262235   -0.583903    0.523733
      8          7           0       -1.546393    1.788955    0.387751
      9          7           0        3.426085   -3.168253   -0.596266
     10          7           0        0.703567    3.000333    0.112667
     11          6           0       -0.719820   -2.480210    1.405149
     12          6           0       -0.917176   -1.117141    0.913146
     13          6           0        0.630173   -2.663054    1.254940
     14          6           0        1.275212   -1.500248    0.744057
     15          6           0       -3.843121    1.460083    0.412582
     16          6           0       -2.510631    0.832591    0.512816
     17          6           0       -2.234520   -0.524187    0.911395
     18          6           0       -3.504776    2.767198   -0.014428
     19          6           0       -1.735077   -3.513111    1.970321
     20          6           0        5.610521   -2.578239   -1.435473
     21          6           0        3.595639   -1.877259   -0.104743
     22          6           0       -2.142806    2.975794    0.068981
     23          6           0        5.019518   -1.484819   -0.403133
     24          6           0       -5.205340    0.743605    0.537503
     25          6           0        2.635605   -1.122947    0.430721
     26          6           0        1.453389   -3.782031    1.978606
     27          6           0        4.482445   -3.644010   -1.325206
     28          6           0       -1.993812   -4.601074    0.938158
     29          6           0       -5.381031    0.054136   -0.844010
     30          6           0       -4.569523    3.783392   -0.277110
     31          6           0       -1.411376    4.083148   -0.315091
     32          6           0        7.007454   -3.084496   -1.340658
     33          6           0        5.734691   -0.532812    0.228966
     34          6           0        0.052018    4.128498   -0.124909
     35          6           0        0.999116    5.204653   -0.419223
     36          6           0        2.253570    4.707419   -0.254020
     37          6           0       -3.016653   -4.021993   -0.115506
     38          6           0        5.523261    0.411430    1.329792
     39          6           0       -6.663834   -0.814773   -0.904493
     40          6           0        3.480304    5.267567   -0.473398
     41          6           0        2.080097    3.266632   -0.056099
     42          6           0        0.557101    6.649688   -0.833307
     43          6           0        4.274822    5.571519    0.875525
     44          1           0        0.417066    0.145747    0.083947
     45          1           0       -3.086016   -1.167764    1.166660
     46          1           0       -2.515955   -2.912369    2.342696
     47          1           0       -1.119546   -3.968521    2.863575
     48          1           0        5.475270   -2.039962   -2.309077
     49          1           0       -5.172396   -0.103750    1.236720
     50          1           0       -6.016321    1.478142    0.733389
     51          1           0        2.952824    0.026894    0.803899
     52          1           0       -0.523912    2.036741    0.486011
     53          1           0        1.191613   -4.808436    1.373639
     54          1           0        2.454046   -3.585065    2.178461
     55          1           0        0.959926   -3.899817    2.984751
     56          1           0        2.602922   -3.856123   -0.609170
     57          1           0       -1.124694   -4.874041    0.416384
     58          1           0       -2.350984   -5.713867    1.507878
     59          1           0       -4.642857   -0.816898   -0.938612
     60          1           0       -5.335567    0.572305   -1.755251
     61          1           0       -4.319376    4.609439    0.664706
     62          1           0       -5.656361    3.439635   -0.235680
     63          1           0       -4.406938    4.442411   -1.270663
     64          1           0       -2.029731    5.016519   -0.520317
     65          1           0        7.704031   -2.200937   -1.400200
     66          1           0        7.254032   -4.043335   -2.198878
     67          1           0        7.201102   -3.752830   -0.434990
     68          1           0        6.696281   -0.650583   -0.061812
     69          1           0        4.989349    1.317562    0.831448
     70          1           0        6.415447    0.663662    1.985557
     71          1           0        4.804631    0.053429    2.119041
     72          1           0        3.541476    6.211667   -1.080433
     73          1           0        4.170894    4.689023   -1.132891
     74          1           0       -0.129304    6.436195   -1.702802
     75          1           0        1.403030    7.293777   -1.040074
     76          1           0       -0.057077    7.128839    0.045040
     77          1           0        3.650873    6.352785    1.271057
     78          1           0        5.325060    5.967300    0.668659
     79          1           0        4.444418    4.606323    1.441761
     80          1           0       -3.629744   -4.206228   -1.887167
     81          1           0       -7.570892   -2.104820   -1.970431
 ---------------------------------------------------------------------

 SCF Done:  E(RB3LYP) =  -1949.11261406     A.U. after   19 cycles

 Excitation energies and oscillator strengths:

 Excited State   1:      Singlet-A      1.7845 eV  694.77 nm  f=0.3638  <S**2>=0.000
     156 ->157         0.71235
     156 <-157        -0.14759
 This state for optimization and/or second-order correction.
 Total Energy, E(TD-HF/TD-DFT) =  -1949.04703348
 Copying the excited state density for this state as the 1-particle RhoCI density.

 The electronic state is 1-A.
 Alpha  occ. eigenvalues --  -19.18867 -19.18135 -19.16162 -19.11966 -19.10600
 Alpha  occ. eigenvalues --  -19.10335 -14.37457 -14.37415 -14.34649 -14.29095
 Alpha  occ. eigenvalues --  -10.34330 -10.32171 -10.28943 -10.26752 -10.24423
 Alpha  occ. eigenvalues --  -10.24221 -10.23921 -10.23836 -10.23775 -10.23017
 Alpha  occ. eigenvalues --  -10.22419 -10.22390 -10.22243 -10.21935 -10.21908
 Alpha  occ. eigenvalues --  -10.21451 -10.21230 -10.21021 -10.21020 -10.20978
 Alpha  occ. eigenvalues --  -10.20756 -10.20632 -10.20454 -10.20066 -10.19814
 Alpha  occ. eigenvalues --  -10.19616 -10.19614 -10.19605 -10.19142 -10.18997
 Alpha  occ. eigenvalues --  -10.18391 -10.18143 -10.17973  -1.11531  -1.09713
 Alpha  occ. eigenvalues --   -1.03169  -1.02135  -1.00279  -0.98871  -0.98391
 Alpha  occ. eigenvalues --   -0.97623  -0.94549  -0.91815  -0.83439  -0.81983
 Alpha  occ. eigenvalues --   -0.81366  -0.80971  -0.80484  -0.79053  -0.78253
 Alpha  occ. eigenvalues --   -0.77316  -0.76326  -0.74889  -0.74308  -0.71664
 Alpha  occ. eigenvalues --   -0.70455  -0.69712  -0.68739  -0.68654  -0.68016
 Alpha  occ. eigenvalues --   -0.66948  -0.65066  -0.64595  -0.62646  -0.61721
 Alpha  occ. eigenvalues --   -0.60911  -0.60633  -0.59190  -0.58285  -0.57314
 Alpha  occ. eigenvalues --   -0.56849  -0.55401  -0.54911  -0.53804  -0.52918
 Alpha  occ. eigenvalues --   -0.52500  -0.52183  -0.51271  -0.50909  -0.49670
 Alpha  occ. eigenvalues --   -0.49346  -0.48813  -0.48506  -0.48134  -0.47463
 Alpha  occ. eigenvalues --   -0.47282  -0.46784  -0.45903  -0.45236  -0.44753
 Alpha  occ. eigenvalues --   -0.44350  -0.44251  -0.44037  -0.43713  -0.43678
 Alpha  occ. eigenvalues --   -0.43587  -0.43343  -0.42966  -0.42710  -0.42507
 Alpha  occ. eigenvalues --   -0.42362  -0.41708  -0.41348  -0.41285  -0.41041
 Alpha  occ. eigenvalues --   -0.40483  -0.40261  -0.39730  -0.39438  -0.39352
 Alpha  occ. eigenvalues --   -0.39326  -0.38907  -0.38603  -0.38501  -0.38249
 Alpha  occ. eigenvalues --   -0.38041  -0.37845  -0.37423  -0.37341  -0.37064
 Alpha  occ. eigenvalues --   -0.36790  -0.36244  -0.35954  -0.35271  -0.34647
 Alpha  occ. eigenvalues --   -0.34434  -0.34355  -0.34130  -0.33661  -0.32991
 Alpha  occ. eigenvalues --   -0.31985  -0.31751  -0.31215  -0.31068  -0.29327
 Alpha  occ. eigenvalues --   -0.27596  -0.27319  -0.26432  -0.26272  -0.25763
 Alpha  occ. eigenvalues --   -0.25232  -0.24417  -0.24257  -0.23139  -0.21738
 Alpha  occ. eigenvalues --   -0.17557
 Alpha virt. eigenvalues --   -0.10788  -0.06447  -0.03334  -0.02423   0.00152
 Alpha virt. eigenvalues --    0.00524   0.01766   0.02513   0.03398   0.03728
 Alpha virt. eigenvalues --    0.04145   0.04271   0.05049   0.05088   0.05859

 Mulliken charges:
               1
     1  O   -0.230664
     2  O   -0.242007
     3  O   -0.166390
     4  O   -0.174421
     5  O   -0.265239
     6  O   -0.288506
     7  N    0.092474
     8  N   -0.079383
     9  N   -0.128680
    10  N   -0.305515
    11  C   -0.168016
    12  C    0.040767
    13  C   -0.163040
    14  C    0.035134
    15  C   -0.103481
    16  C    0.056718
    17  C   -0.056028
    18  C   -0.100824
    19  C    0.145082
    20  C    0.041418
    21  C    0.137843
    22  C    0.053918
    23  C   -0.087559
    24  C    0.164928
    25  C   -0.175936
    26  C    0.045835
    27  C    0.086252
    28  C   -0.000407
    29  C   -0.023049
    30  C   -0.041173
    31  C   -0.091800
    32  C   -0.034167
    33  C   -0.077193
    34  C    0.065548
    35  C   -0.123692
    36  C   -0.061426
    37  C    0.154386
    38  C    0.021777
    39  C    0.128032
    40  C   -0.010672
    41  C    0.179249
    42  C    0.076657
    43  C   -0.022061
    44  H    0.029808
    45  H    0.009372
    46  H    0.010488
    47  H    0.021048
    48  H    0.025343
    49  H    0.021037
    50  H    0.034289
    51  H    0.092036
    52  H    0.146190
    53  H    0.030894
    54  H    0.021659
    55  H    0.027222
    56  H    0.159352
    57  H    0.026776
    58  H    0.078835
    59  H    0.051529
    60  H    0.028328
    61  H    0.046940
    62  H    0.041095
    63  H    0.043922
    64  H   -0.006448
    65  H    0.047288
    66  H    0.056266
    67  H    0.028946
    68  H   -0.055421
    69  H    0.098233
    70  H    0.025291
    71  H    0.023173
    72  H   -0.010653
    73  H    0.010802
    74  H    0.041746
    75  H    0.016655
    76  H    0.042259
    77  H    0.013732
    78  H    0.013155
    79  H    0.045148
    80  H    0.193360
    81  H    0.165616
 Sum of Mulliken charges =  -0.00000

 Dipole moment (field-independent basis, Debye):
    X=             -1.7368    Y=              0.3588    Z=              0.3234  Tot=              1.8027
 Quadrupole moment (field-independent basis, Debye-Ang):
   XX=           -257.3966   YY=           -243.7432   ZZ=           -253.3556
   XY=             15.5805   XZ=             16.5103   YZ=            -15.4761

 Normal termination of Gaussian 16 at Mon Jul  1 20:19:04 2019.
