 Gaussian 16, Revision A.03,
 Gaussian 16:  ES64L-G16RevA.03 25-Dec-2016

 --------------------------
 # td=(NStates=1) B3LYP/SVP
 --------------------------

 --
 TD
 --
 Symbolic Z-matrix:
 Charge =  0 Multiplicity = 1

                         Standard orientation:
 ---------------------------------------------------------------------
 Center     Atomic      Atomic             Coordinates (Angstroms)
 Number     Number       Type             X           Y           Z
 ---------------------------------------------------------------------
      1          8           0       -4.267866   -4.832082    1.868091
      2          8           0        3.234227   -4.833861    1.093247
      3          8           0        7.203690   -1.342467    1.837955
      4          8           0        3.953102   -3.018278    0.002105
      5          8           0        7.588101   -0.537190   -0.251768
      6          8           0       -3.065046    2.346318   -0.346580
      7          7           0       -0.284828   -0.680588   -0.608991
      8          7           0        1.469240    1.912784   -0.347513
      9          7           0       -3.338418   -3.239526    0.651752
     10          7           0       -0.908734    2.884168   -0.092500
     11          6           0        0.750792   -2.351629   -1.472257
     12          6           0        0.928890   -1.005704   -0.963832
     13          6           0       -0.687791   -2.684508   -1.272068
     14          6           0       -1.282036   -1.510559   -0.818851
     15          6           0        3.718638    1.549777   -0.350496
     16          6           0        2.412415    0.916627   -0.492948
     17          6           0        2.148478   -0.358694   -0.818330
     18          6           0        3.491910    2.899061    0.058067
     19          6           0        1.790310   -3.417831   -1.970882
     20          6           0       -5.504166   -2.681606    1.488212
     21          6           0       -3.603299   -1.932993    0.039813
     22          6           0        2.039218    3.102538    0.019166
     23          6           0       -5.013980   -1.707437    0.374125
     24          6           0        5.008416    0.844927   -0.396344
     25          6           0       -2.634631   -1.123059   -0.583201
     26          6           0       -1.342269   -3.912009   -1.653343
     27          6           0       -4.358234   -3.793467    1.357088
     28          6           0        2.273750   -4.465338   -0.972775
     29          6           0        5.524474    0.079090    0.908578
     30          6           0        4.501764    3.883585    0.528414
     31          6           0        1.231275    4.143521    0.301955
     32          6           0       -6.854637   -3.383078    1.290156
     33          6           0       -5.936001   -0.836698   -0.147023
     34          6           0       -0.237109    4.098624    0.249298
     35          6           0       -1.178634    5.216586    0.453654
     36          6           0       -2.387415    4.671473    0.235251
     37          6           0        3.209065   -3.944061    0.115526
     38          6           0       -5.659875    0.209614   -1.173952
     39          6           0        6.948039   -0.513804    0.854053
     40          6           0       -3.809531    5.197873    0.518186
     41          6           0       -2.308916    3.144416   -0.144684
     42          6           0       -0.764916    6.532936    0.756281
     43          6           0       -4.464352    5.581660   -0.949442
     44          1           0       -0.477179    0.258078   -0.144338
     45          1           0        2.996864   -1.090208   -1.127202
     46          1           0        2.620445   -2.856360   -2.520665
     47          1           0        1.224407   -4.049505   -2.799035
     48          1           0       -5.495396   -2.200730    2.476162
     49          1           0        5.183024   -0.022294   -1.198595
     50          1           0        5.968365    1.415425   -0.620455
     51          1           0       -2.998543    0.058750   -0.713654
     52          1           0        0.387442    1.883895   -0.516571
     53          1           0       -1.166965   -4.484991   -0.773682
     54          1           0       -2.511614   -3.528799   -1.618186
     55          1           0       -0.938358   -4.337650   -2.537094
     56          1           0       -2.410431   -3.657735    0.666752
     57          1           0        1.430112   -5.105445   -0.319783
     58          1           0        2.806821   -5.135834   -1.454348
     59          1           0        4.786626   -0.789274    1.120425
     60          1           0        5.535207    0.557608    1.845104
     61          1           0        4.664157    5.010292   -0.014464
     62          1           0        5.518879    3.385211    0.611149
     63          1           0        4.150483    4.088441    1.660436
     64          1           0        1.729058    5.277383    0.505810
     65          1           0       -7.641642   -2.685465    1.382160
     66          1           0       -6.942009   -4.203364    1.996066
     67          1           0       -6.835475   -3.925334    0.349269
     68          1           0       -6.743162   -0.845671    0.383511
     69          1           0       -5.110142    0.972563   -0.705148
     70          1           0       -6.587424    0.702061   -1.652410
     71          1           0       -4.968580    0.041575   -2.063842
     72          1           0       -4.032823    6.112174    1.203555
     73          1           0       -4.249659    4.251204    0.918558
     74          1           0       -0.028239    6.630964    1.599225
     75          1           0       -1.433792    7.153004    1.103161
     76          1           0       -0.220998    7.121686   -0.060608
     77          1           0       -3.785698    6.232621   -1.503890
     78          1           0       -5.398604    6.107304   -0.824976
     79          1           0       -4.533623    4.644271   -1.403383
     80          1           0        3.937092   -4.470296    1.871499
     81          1           0        8.143053   -1.611929    1.831493
 ---------------------------------------------------------------------

 SCF Done:  E(RB3LYP) =  -1949.07329038     A.U. after   16 cycles

 Excitation energies and oscillator strengths:

 Excited State   1:      Singlet-A      1.8962 eV  653.86 nm  f=0.3672  <S**2>=0.000
     156 ->157         0.70759
     156 <-157        -0.11427
 This state for optimization and/or second-order correction.
 Total Energy, E(TD-HF/TD-DFT) =  -1949.00360713
 Copying the excited state density for this state as the 1-particle RhoCI density.

 The electronic state is 1-A.
 Alpha  occ. eigenvalues --  -19.20264 -19.19914 -19.13791 -19.12471 -19.11936
 Alpha  occ. eigenvalues --  -19.10705 -14.37368 -14.36130 -14.34927 -14.28618
 Alpha  occ. eigenvalues --  -10.32585 -10.32528 -10.28215 -10.27108 -10.25090
 Alpha  occ. eigenvalues --  -10.23798 -10.23514 -10.22661 -10.22293 -10.22242
 Alpha  occ. eigenvalues --  -10.22174 -10.22126 -10.21388 -10.21085 -10.21017
 Alpha  occ. eigenvalues --  -10.20819 -10.20686 -10.20677 -10.20660 -10.20469
 Alpha  occ. eigenvalues --  -10.20286 -10.20010 -10.19977 -10.19630 -10.19618
 Alpha  occ. eigenvalues --  -10.19563 -10.19192 -10.18904 -10.18549 -10.18545
 Alpha  occ. eigenvalues --  -10.18338 -10.17777 -10.17730  -1.10838  -1.10739
 Alpha  occ. eigenvalues --   -1.08654  -1.05975  -1.01944  -1.00667  -0.97767
 Alpha  occ. eigenvalues --   -0.96956  -0.93756  -0.89533  -0.82122  -0.81255
 Alpha  occ. eigenvalues --   -0.81013  -0.80696  -0.79323  -0.78954  -0.77407
 Alpha  occ. eigenvalues --   -0.76271  -0.76090  -0.75247  -0.74217  -0.71866
 Alpha  occ. eigenvalues --   -0.70838  -0.69916  -0.69044  -0.68193  -0.67354
 Alpha  occ. eigenvalues --   -0.67114  -0.65561  -0.64560  -0.62842  -0.61677
 Alpha  occ. eigenvalues --   -0.60451  -0.59942  -0.58586  -0.57585  -0.55583
 Alpha  occ. eigenvalues --   -0.55303  -0.54941  -0.54218  -0.53587  -0.53008
 Alpha  occ. eigenvalues --   -0.52486  -0.51271  -0.50606  -0.49670  -0.49290
 Alpha  occ. eigenvalues --   -0.48823  -0.48751  -0.48508  -0.48424  -0.47666
 Alpha  occ. eigenvalues --   -0.47184  -0.46528  -0.46372  -0.46113  -0.45702
 Alpha  occ. eigenvalues --   -0.45121  -0.44727  -0.44294  -0.44066  -0.43609
 Alpha  occ. eigenvalues --   -0.43553  -0.43281  -0.42483  -0.42369  -0.42168
 Alpha  occ. eigenvalues --   -0.41959  -0.41804  -0.41641  -0.41407  -0.40749
 Alpha  occ. eigenvalues --   -0.40485  -0.40368  -0.40122  -0.40043  -0.39645
 Alpha  occ. eigenvalues --   -0.39256  -0.38995  -0.38821  -0.38527  -0.38218
 Alpha  occ. eigenvalues --   -0.37649  -0.37273  -0.37067  -0.36819  -0.36765
 Alpha  occ. eigenvalues --   -0.36631  -0.35991  -0.35685  -0.35146  -0.34974
 Alpha  occ. eigenvalues --   -0.34572  -0.33843  -0.33805  -0.33572  -0.32683
 Alpha  occ. eigenvalues --   -0.32496  -0.32156  -0.31288  -0.30209  -0.28992
 Alpha  occ. eigenvalues --   -0.28797  -0.27050  -0.26342  -0.25945  -0.24875
 Alpha  occ. eigenvalues --   -0.24559  -0.24069  -0.23454  -0.22770  -0.21488
 Alpha  occ. eigenvalues --   -0.17648
 Alpha virt. eigenvalues --   -0.10152  -0.05785  -0.04071  -0.02119  -0.00147
 Alpha virt. eigenvalues --    0.00355   0.01076   0.02806   0.03195   0.03319
 Alpha virt. eigenvalues --    0.04057   0.04407   0.05313   0.05679   0.06203

 Mulliken charges:
               1
     1  O   -0.156317
     2  O   -0.226771
     3  O   -0.145702
     4  O   -0.207683
     5  O   -0.296114
     6  O   -0.076895
     7  N    0.034454
     8  N   -0.141575
     9  N   -0.150241
    10  N   -0.401424
    11  C   -0.138002
    12  C   -0.001974
    13  C   -0.211635
    14  C    0.056649
    15  C    0.016134
    16  C    0.120830
    17  C   -0.101753
    18  C   -0.091762
    19  C    0.043338
    20  C   -0.122129
    21  C    0.117227
    22  C    0.144944
    23  C   -0.087863
    24  C   -0.011377
    25  C   -0.171319
    26  C    0.100479
    27  C    0.093987
    28  C    0.045401
    29  C   -0.028105
    30  C   -0.017875
    31  C   -0.177804
    32  C    0.096160
    33  C    0.022553
    34  C    0.062830
    35  C   -0.027937
    36  C   -0.227274
    37  C    0.121591
    38  C    0.038556
    39  C    0.147459
    40  C   -0.004821
    41  C    0.161008
    42  C    0.152693
    43  C    0.016046
    44  H    0.138763
    45  H    0.041914
    46  H    0.035654
    47  H    0.018499
    48  H    0.041997
    49  H    0.047050
    50  H    0.029657
    51  H    0.088557
    52  H    0.168780
    53  H    0.013409
    54  H    0.059481
    55  H    0.016590
    56  H    0.122856
    57  H    0.058216
    58  H   -0.001567
    59  H    0.060237
    60  H   -0.002074
    61  H    0.059746
    62  H    0.028396
    63  H    0.043365
    64  H    0.019276
    65  H    0.008584
    66  H    0.021043
    67  H    0.002079
    68  H   -0.086540
    69  H    0.037576
    70  H    0.016319
    71  H    0.033129
    72  H    0.025610
    73  H    0.029072
    74  H    0.005134
    75  H   -0.051871
    76  H    0.029627
    77  H    0.015790
    78  H    0.012523
    79  H    0.014634
    80  H    0.238253
    81  H    0.192252
 Sum of Mulliken charges =  -0.00000

 Dipole moment (field-independent basis, Debye):
    X=              2.4451    Y=              1.3370    Z=              2.4685  Tot=              3.7228
 Quadrupole moment (field-independent basis, Debye-Ang):
   XX=           -244.5317   YY=           -239.0052   ZZ=           -253.0008
   XY=            -21.2914   XZ=             22.1796   YZ=              9.1792

 Normal termination of Gaussian 16 at Sat Jul  6 12:53:09 2019.
