 Gaussian 16, Revision A.03,
 Gaussian 16:  ES64L-G16RevA.03 25-Dec-2016

 --------------------------
 # td=(NStates=1) B3LYP/SVP
 --------------------------

 --
 TD
 --
 Symbolic Z-matrix:
 Charge =  0 Multiplicity = 1

                         Standard orientation:
 ---------------------------------------------------------------------
 Center     Atomic      Atomic             Coordinates (Angstroms)
 Number     Number       Type             X           Y           Z
 ---------------------------------------------------------------------
      1          8           0       -4.421647   -4.604351    2.003098
      2          8           0        2.917550   -4.690750    1.496375
      3          8           0        7.128103   -1.526993    1.806349
      4          8           0        3.578181   -3.038269    0.105907
      5          8           0        7.518231   -0.711721   -0.249990
      6          8           0       -3.076898    2.499546   -0.081749
      7          7           0       -0.328783   -0.575099   -0.544605
      8          7           0        1.550178    1.765219   -0.481567
      9          7           0       -3.384480   -3.070801    0.681884
     10          7           0       -0.782433    2.927463   -0.175642
     11          6           0        0.636745   -2.571790   -1.218729
     12          6           0        0.833045   -1.218223   -0.901249
     13          6           0       -0.783500   -2.668504   -1.158245
     14          6           0       -1.303892   -1.458578   -0.734381
     15          6           0        3.778723    1.415751   -0.415985
     16          6           0        2.450752    0.778963   -0.686363
     17          6           0        2.194487   -0.611672   -0.949053
     18          6           0        3.534524    2.765104   -0.071915
     19          6           0        1.630584   -3.575662   -1.789279
     20          6           0       -5.612423   -2.552441    1.324489
     21          6           0       -3.699625   -1.833086    0.069850
     22          6           0        2.158102    3.034770   -0.127261
     23          6           0       -5.054843   -1.466128    0.330501
     24          6           0        5.081945    0.677669   -0.402622
     25          6           0       -2.690535   -1.131363   -0.616750
     26          6           0       -1.510639   -3.900496   -1.869378
     27          6           0       -4.436409   -3.525474    1.414139
     28          6           0        2.059849   -4.618518   -0.792828
     29          6           0        5.526965   -0.127114    0.819562
     30          6           0        4.575084    3.816260    0.345367
     31          6           0        1.330295    4.111620    0.171709
     32          6           0       -6.930975   -3.167131    1.106265
     33          6           0       -5.835543   -0.602866   -0.385438
     34          6           0       -0.092824    4.028834    0.148178
     35          6           0       -0.878531    5.211759    0.384301
     36          6           0       -2.253495    4.689984    0.371883
     37          6           0        2.894375   -4.073488    0.283894
     38          6           0       -5.317430    0.152047   -1.549366
     39          6           0        6.803084   -0.807462    0.711697
     40          6           0       -3.472047    5.415217    0.656023
     41          6           0       -2.145502    3.290177    0.061446
     42          6           0       -0.569644    6.585147    0.935185
     43          6           0       -4.094995    5.810181   -0.720524
     44          1           0       -0.450359    0.476428   -0.028650
     45          1           0        3.135200   -1.169345   -1.159056
     46          1           0        2.475430   -2.965221   -1.916402
     47          1           0        1.223842   -4.007786   -2.643817
     48          1           0       -5.654058   -2.093357    2.425640
     49          1           0        5.122834    0.098232   -1.317017
     50          1           0        5.957313    1.328305   -0.840289
     51          1           0       -2.994093   -0.042358   -0.564873
     52          1           0        0.543842    1.889021   -0.460095
     53          1           0       -1.512372   -4.820512   -1.146437
     54          1           0       -2.602777   -3.877484   -2.200208
     55          1           0       -0.893528   -4.077432   -2.809393
     56          1           0       -2.484695   -3.572879    0.719249
     57          1           0        1.289836   -5.072564   -0.121394
     58          1           0        2.369596   -5.495570   -1.411556
     59          1           0        4.703937   -0.984204    1.101650
     60          1           0        5.695103    0.531833    1.681392
     61          1           0        4.662694    4.697744   -0.422770
     62          1           0        5.670576    3.361040    0.342390
     63          1           0        4.389356    4.092248    1.317974
     64          1           0        1.804675    5.035820    0.249779
     65          1           0       -7.742375   -2.472908    1.560902
     66          1           0       -6.828702   -4.223610    1.631158
     67          1           0       -7.094719   -3.486924    0.030934
     68          1           0       -6.930279   -0.542175   -0.278704
     69          1           0       -4.665724    0.951546   -1.104670
     70          1           0       -6.087138    0.654362   -1.996693
     71          1           0       -4.611536   -0.387851   -2.312073
     72          1           0       -3.359222    6.337507    1.260870
     73          1           0       -4.018273    4.858946    1.120700
     74          1           0       -0.020844    6.767202    1.914367
     75          1           0       -1.519804    7.195603    0.945132
     76          1           0        0.100376    7.035777    0.102020
     77          1           0       -3.322438    6.397394   -1.260746
     78          1           0       -4.802199    6.675938   -0.612621
     79          1           0       -4.627079    4.849995   -1.089393
     80          1           0        3.625421   -4.059294    2.119074
     81          1           0        8.088406   -1.871565    1.702474
 ---------------------------------------------------------------------

 SCF Done:  E(RB3LYP) =  -1949.12071653     A.U. after   18 cycles

 Excitation energies and oscillator strengths:

 Excited State   1:      Singlet-A      1.7200 eV  720.85 nm  f=0.3614  <S**2>=0.000
     156 ->157         0.71112
     156 <-157        -0.14036
 This state for optimization and/or second-order correction.
 Total Energy, E(TD-HF/TD-DFT) =  -1949.05750884
 Copying the excited state density for this state as the 1-particle RhoCI density.

 The electronic state is 1-A.
 Alpha  occ. eigenvalues --  -19.20897 -19.18532 -19.13912 -19.12112 -19.10123
 Alpha  occ. eigenvalues --  -19.10111 -14.38671 -14.37044 -14.34817 -14.28607
 Alpha  occ. eigenvalues --  -10.33907 -10.31465 -10.28386 -10.25959 -10.24691
 Alpha  occ. eigenvalues --  -10.23673 -10.23620 -10.23237 -10.22902 -10.22385
 Alpha  occ. eigenvalues --  -10.22324 -10.22166 -10.21549 -10.21212 -10.21211
 Alpha  occ. eigenvalues --  -10.20962 -10.20719 -10.20496 -10.20458 -10.20362
 Alpha  occ. eigenvalues --  -10.20353 -10.20236 -10.20084 -10.20016 -10.19804
 Alpha  occ. eigenvalues --  -10.19785 -10.19510 -10.18682 -10.18643 -10.18635
 Alpha  occ. eigenvalues --  -10.18413 -10.17527 -10.16744  -1.09346  -1.09194
 Alpha  occ. eigenvalues --   -1.02664  -1.00726  -1.00393  -0.99648  -0.99280
 Alpha  occ. eigenvalues --   -0.96190  -0.94583  -0.91099  -0.83302  -0.81755
 Alpha  occ. eigenvalues --   -0.81127  -0.80418  -0.79916  -0.78584  -0.78189
 Alpha  occ. eigenvalues --   -0.77076  -0.76493  -0.75209  -0.73900  -0.71928
 Alpha  occ. eigenvalues --   -0.70480  -0.69815  -0.68821  -0.68368  -0.67560
 Alpha  occ. eigenvalues --   -0.67145  -0.65222  -0.64331  -0.62446  -0.61366
 Alpha  occ. eigenvalues --   -0.59694  -0.59535  -0.58570  -0.56886  -0.56193
 Alpha  occ. eigenvalues --   -0.55753  -0.55545  -0.54865  -0.54048  -0.52861
 Alpha  occ. eigenvalues --   -0.52599  -0.51851  -0.51615  -0.49949  -0.49733
 Alpha  occ. eigenvalues --   -0.48899  -0.48703  -0.48366  -0.47856  -0.47705
 Alpha  occ. eigenvalues --   -0.47103  -0.46796  -0.46092  -0.45512  -0.45190
 Alpha  occ. eigenvalues --   -0.45024  -0.44326  -0.44178  -0.43776  -0.43507
 Alpha  occ. eigenvalues --   -0.43035  -0.42729  -0.42648  -0.42204  -0.41930
 Alpha  occ. eigenvalues --   -0.41447  -0.41284  -0.41028  -0.40874  -0.40793
 Alpha  occ. eigenvalues --   -0.40471  -0.40255  -0.39828  -0.39651  -0.39351
 Alpha  occ. eigenvalues --   -0.39240  -0.38992  -0.38606  -0.38425  -0.37849
 Alpha  occ. eigenvalues --   -0.37795  -0.37540  -0.37261  -0.36935  -0.36611
 Alpha  occ. eigenvalues --   -0.36003  -0.35930  -0.35574  -0.35202  -0.34249
 Alpha  occ. eigenvalues --   -0.34067  -0.33884  -0.33224  -0.33026  -0.32813
 Alpha  occ. eigenvalues --   -0.32556  -0.32058  -0.31988  -0.29499  -0.29095
 Alpha  occ. eigenvalues --   -0.28234  -0.27755  -0.26195  -0.25832  -0.25648
 Alpha  occ. eigenvalues --   -0.25036  -0.24639  -0.24047  -0.21743  -0.21106
 Alpha  occ. eigenvalues --   -0.17431
 Alpha virt. eigenvalues --   -0.10843  -0.06462  -0.04597  -0.02981  -0.00739
 Alpha virt. eigenvalues --    0.00072   0.01015   0.02546   0.03311   0.03599
 Alpha virt. eigenvalues --    0.04511   0.04709   0.04963   0.05004   0.05238

 Mulliken charges:
               1
     1  O   -0.236351
     2  O   -0.253532
     3  O   -0.223315
     4  O   -0.281147
     5  O   -0.223743
     6  O   -0.215275
     7  N   -0.093865
     8  N   -0.118930
     9  N   -0.099677
    10  N   -0.328415
    11  C   -0.165496
    12  C    0.065366
    13  C   -0.161109
    14  C    0.072136
    15  C   -0.083780
    16  C    0.057890
    17  C   -0.044831
    18  C   -0.114769
    19  C    0.257883
    20  C   -0.085899
    21  C    0.054658
    22  C    0.089666
    23  C    0.035227
    24  C    0.047049
    25  C   -0.121461
    26  C    0.002109
    27  C    0.087892
    28  C   -0.008916
    29  C    0.017617
    30  C    0.072061
    31  C   -0.080618
    32  C    0.004943
    33  C   -0.149810
    34  C    0.099893
    35  C   -0.107132
    36  C   -0.185366
    37  C    0.175043
    38  C    0.052823
    39  C    0.111756
    40  C    0.220843
    41  C    0.154880
    42  C    0.044351
    43  C   -0.028164
    44  H    0.224006
    45  H    0.036301
    46  H   -0.005046
    47  H   -0.021011
    48  H    0.057261
    49  H    0.001337
    50  H    0.019721
    51  H    0.032900
    52  H    0.108829
    53  H    0.030582
    54  H    0.040912
    55  H    0.037362
    56  H    0.143484
    57  H    0.033879
    58  H    0.059973
    59  H    0.076552
    60  H    0.031074
    61  H    0.045588
    62  H    0.020170
    63  H    0.011115
    64  H   -0.054837
    65  H    0.040647
    66  H    0.051848
    67  H    0.020331
    68  H    0.006433
    69  H    0.074581
    70  H   -0.023544
    71  H    0.051615
    72  H   -0.011438
    73  H   -0.091326
    74  H    0.048316
    75  H    0.021089
    76  H    0.025755
    77  H    0.011106
    78  H   -0.003018
    79  H    0.061427
    80  H    0.264925
    81  H    0.208614
 Sum of Mulliken charges =  -0.00000

 Dipole moment (field-independent basis, Debye):
    X=              2.8588    Y=              0.3742    Z=              0.7301  Tot=              2.9741
 Quadrupole moment (field-independent basis, Debye-Ang):
   XX=           -245.8412   YY=           -238.4367   ZZ=           -254.7539
   XY=            -17.5296   XZ=             19.8122   YZ=             17.3042

 Normal termination of Gaussian 16 at Sat Jun 29 06:50:03 2019.
