 Gaussian 16, Revision A.03,
 Gaussian 16:  ES64L-G16RevA.03 25-Dec-2016

 --------------------------
 # td=(NStates=1) B3LYP/SVP
 --------------------------

 --
 TD
 --
 Symbolic Z-matrix:
 Charge =  0 Multiplicity = 1

                         Standard orientation:
 ---------------------------------------------------------------------
 Center     Atomic      Atomic             Coordinates (Angstroms)
 Number     Number       Type             X           Y           Z
 ---------------------------------------------------------------------
      1          8           0       -4.501754   -4.579930    2.069365
      2          8           0        3.022147   -4.813985    1.134482
      3          8           0        7.020644   -1.587277    1.905272
      4          8           0        3.867363   -3.170224   -0.180129
      5          8           0        7.670722   -0.365106    0.172980
      6          8           0       -2.924558    2.419363   -0.349605
      7          7           0       -0.310106   -0.682570   -0.622867
      8          7           0        1.549090    1.771674   -0.511613
      9          7           0       -3.407024   -3.122180    0.746236
     10          7           0       -0.744127    2.976737   -0.322563
     11          6           0        0.586531   -2.542344   -1.426158
     12          6           0        0.923064   -1.215171   -1.076003
     13          6           0       -0.752976   -2.788887   -1.299749
     14          6           0       -1.310551   -1.524989   -0.672371
     15          6           0        3.729869    1.329715   -0.275330
     16          6           0        2.389104    0.741644   -0.605085
     17          6           0        2.180963   -0.500562   -1.008593
     18          6           0        3.559908    2.692095   -0.053592
     19          6           0        1.588516   -3.501032   -2.074210
     20          6           0       -5.578340   -2.470050    1.472109
     21          6           0       -3.639422   -1.847574    0.231366
     22          6           0        2.069075    2.891536   -0.044071
     23          6           0       -5.072351   -1.507591    0.446218
     24          6           0        5.060768    0.743290   -0.282615
     25          6           0       -2.677628   -1.034048   -0.345426
     26          6           0       -1.606563   -3.900781   -1.797832
     27          6           0       -4.416946   -3.534366    1.519620
     28          6           0        1.926282   -4.468276   -0.955178
     29          6           0        5.400837   -0.218933    0.933756
     30          6           0        4.550638    3.758305    0.451049
     31          6           0        1.390624    4.079860    0.182807
     32          6           0       -6.927706   -3.008106    1.194126
     33          6           0       -5.825672   -0.593171   -0.086417
     34          6           0       -0.021875    4.015001    0.044322
     35          6           0       -0.931821    5.218160    0.390557
     36          6           0       -2.092954    4.714831    0.280117
     37          6           0        3.029516   -4.028715    0.042477
     38          6           0       -5.567142    0.397191   -1.215754
     39          6           0        6.712439   -0.654464    0.901106
     40          6           0       -3.444839    5.347106    0.486977
     41          6           0       -2.018814    3.246531   -0.172964
     42          6           0       -0.409725    6.518537    0.885998
     43          6           0       -4.270345    5.673541   -0.807680
     44          1           0       -0.521462    0.308910    0.049070
     45          1           0        3.140411   -1.112515   -1.095786
     46          1           0        2.439591   -2.787030   -2.278150
     47          1           0        1.126164   -3.882960   -2.998672
     48          1           0       -5.540733   -1.953540    2.506925
     49          1           0        4.933789    0.171164   -1.289764
     50          1           0        6.045389    1.404961   -0.438805
     51          1           0       -2.877421    0.002989   -0.727318
     52          1           0        0.304872    1.816480   -0.670184
     53          1           0       -1.530627   -4.753447   -0.984609
     54          1           0       -2.658947   -3.560084   -2.127858
     55          1           0       -1.220711   -4.393219   -2.723161
     56          1           0       -2.490210   -3.472976    0.723396
     57          1           0        1.128982   -4.673493   -0.462482
     58          1           0        2.399269   -5.511775   -1.492961
     59          1           0        4.729345   -1.094610    0.788842
     60          1           0        5.351839    0.199272    2.056786
     61          1           0        4.432000    4.725393   -0.062159
     62          1           0        5.662218    3.374195    0.275487
     63          1           0        4.547877    3.969093    1.582219
     64          1           0        1.862591    5.131295    0.344960
     65          1           0       -7.575566   -2.282806    1.178902
     66          1           0       -7.071798   -3.626654    2.009424
     67          1           0       -7.068298   -3.514396    0.201419
     68          1           0       -6.857055   -0.607353    0.062699
     69          1           0       -4.883227    1.175819   -0.978884
     70          1           0       -6.377105    0.884789   -1.568284
     71          1           0       -4.990459   -0.199151   -2.044572
     72          1           0       -3.567100    6.289322    1.222413
     73          1           0       -4.064480    4.615696    1.048131
     74          1           0        0.377439    6.365443    1.686971
     75          1           0       -1.243924    7.268577    1.160706
     76          1           0        0.026132    7.101154    0.172546
     77          1           0       -3.915563    6.312291   -1.465120
     78          1           0       -5.287079    6.152376   -0.625763
     79          1           0       -4.422272    4.713513   -1.266993
     80          1           0        3.790634   -4.710365    1.742939
     81          1           0        7.819356   -1.844435    1.862949
 ---------------------------------------------------------------------

 SCF Done:  E(RB3LYP) =  -1949.08228341     A.U. after   16 cycles

 Excitation energies and oscillator strengths:

 Excited State   1:      Singlet-A      2.0866 eV  594.19 nm  f=0.3878  <S**2>=0.000
     156 ->157         0.70686
 This state for optimization and/or second-order correction.
 Total Energy, E(TD-HF/TD-DFT) =  -1949.00560173
 Copying the excited state density for this state as the 1-particle RhoCI density.

 The electronic state is 1-A.
 Alpha  occ. eigenvalues --  -19.20177 -19.15112 -19.14669 -19.12198 -19.10485
 Alpha  occ. eigenvalues --  -19.10412 -14.39378 -14.37250 -14.35575 -14.30607
 Alpha  occ. eigenvalues --  -10.34417 -10.31762 -10.28504 -10.26941 -10.24576
 Alpha  occ. eigenvalues --  -10.23923 -10.23856 -10.23679 -10.23233 -10.22827
 Alpha  occ. eigenvalues --  -10.22192 -10.21820 -10.21732 -10.21492 -10.21379
 Alpha  occ. eigenvalues --  -10.21079 -10.20897 -10.20478 -10.20017 -10.20016
 Alpha  occ. eigenvalues --  -10.19831 -10.19812 -10.19650 -10.19634 -10.19634
 Alpha  occ. eigenvalues --  -10.19606 -10.19267 -10.18907 -10.18466 -10.18444
 Alpha  occ. eigenvalues --  -10.16992 -10.16695 -10.16549  -1.10843  -1.08915
 Alpha  occ. eigenvalues --   -1.05080  -1.02158  -1.01784  -0.99157  -0.98974
 Alpha  occ. eigenvalues --   -0.98221  -0.96634  -0.94273  -0.83164  -0.82796
 Alpha  occ. eigenvalues --   -0.82523  -0.81309  -0.80802  -0.78415  -0.78213
 Alpha  occ. eigenvalues --   -0.77608  -0.76800  -0.75307  -0.74401  -0.72782
 Alpha  occ. eigenvalues --   -0.71383  -0.70496  -0.70070  -0.68772  -0.67838
 Alpha  occ. eigenvalues --   -0.67049  -0.66044  -0.65403  -0.62792  -0.62126
 Alpha  occ. eigenvalues --   -0.61491  -0.60178  -0.59592  -0.59202  -0.56799
 Alpha  occ. eigenvalues --   -0.55611  -0.54719  -0.54197  -0.54050  -0.53557
 Alpha  occ. eigenvalues --   -0.53233  -0.52034  -0.51181  -0.50585  -0.49766
 Alpha  occ. eigenvalues --   -0.49383  -0.48601  -0.48523  -0.48358  -0.47121
 Alpha  occ. eigenvalues --   -0.46768  -0.46595  -0.46202  -0.45995  -0.45356
 Alpha  occ. eigenvalues --   -0.44944  -0.44789  -0.44444  -0.44292  -0.44053
 Alpha  occ. eigenvalues --   -0.43573  -0.43384  -0.42795  -0.42453  -0.42274
 Alpha  occ. eigenvalues --   -0.42214  -0.42055  -0.41668  -0.41072  -0.40880
 Alpha  occ. eigenvalues --   -0.40781  -0.40583  -0.40252  -0.40109  -0.39978
 Alpha  occ. eigenvalues --   -0.39616  -0.39386  -0.39101  -0.38848  -0.38496
 Alpha  occ. eigenvalues --   -0.38358  -0.37979  -0.37787  -0.37348  -0.36787
 Alpha  occ. eigenvalues --   -0.36717  -0.36132  -0.35627  -0.35274  -0.35081
 Alpha  occ. eigenvalues --   -0.34317  -0.33853  -0.33532  -0.33422  -0.32626
 Alpha  occ. eigenvalues --   -0.32428  -0.31921  -0.31264  -0.30433  -0.29893
 Alpha  occ. eigenvalues --   -0.27876  -0.27346  -0.26932  -0.26519  -0.25752
 Alpha  occ. eigenvalues --   -0.25294  -0.24992  -0.24633  -0.24330  -0.22417
 Alpha  occ. eigenvalues --   -0.18137
 Alpha virt. eigenvalues --   -0.09785  -0.05140  -0.03433  -0.02212  -0.00789
 Alpha virt. eigenvalues --    0.01084   0.01172   0.02807   0.03159   0.03518
 Alpha virt. eigenvalues --    0.03731   0.04325   0.04697   0.05306   0.06472

 Mulliken charges:
               1
     1  O   -0.175988
     2  O   -0.187695
     3  O   -0.161176
     4  O   -0.227023
     5  O   -0.247976
     6  O   -0.224684
     7  N   -0.141091
     8  N   -0.140542
     9  N   -0.029179
    10  N   -0.210236
    11  C   -0.167379
    12  C    0.067891
    13  C   -0.156526
    14  C   -0.001996
    15  C   -0.041147
    16  C    0.121476
    17  C   -0.130054
    18  C   -0.121314
    19  C    0.135600
    20  C   -0.129309
    21  C    0.070380
    22  C    0.113665
    23  C    0.059484
    24  C   -0.060656
    25  C   -0.134901
    26  C    0.030864
    27  C    0.079978
    28  C    0.067130
    29  C    0.027399
    30  C    0.033156
    31  C   -0.166944
    32  C    0.177434
    33  C   -0.160716
    34  C    0.025360
    35  C   -0.071297
    36  C   -0.171978
    37  C    0.137616
    38  C    0.081484
    39  C    0.113200
    40  C    0.017117
    41  C    0.131433
    42  C    0.134613
    43  C    0.038240
    44  H    0.214246
    45  H    0.039053
    46  H    0.021791
    47  H    0.021569
    48  H    0.048405
    49  H    0.045276
    50  H    0.065006
    51  H    0.050959
    52  H    0.237236
    53  H    0.039228
    54  H    0.057682
    55  H    0.011628
    56  H    0.110453
    57  H   -0.030640
    58  H    0.066355
    59  H    0.065243
    60  H    0.075208
    61  H    0.027745
    62  H    0.024541
    63  H    0.040084
    64  H    0.018153
    65  H   -0.035083
    66  H   -0.000238
    67  H    0.011291
    68  H   -0.033830
    69  H    0.045436
    70  H   -0.024307
    71  H    0.026300
    72  H    0.008950
    73  H    0.008780
    74  H    0.036741
    75  H    0.017658
    76  H   -0.012885
    77  H   -0.028725
    78  H    0.003711
    79  H    0.019721
    80  H    0.203997
    81  H    0.099543
 Sum of Mulliken charges =  -0.00000

 Dipole moment (field-independent basis, Debye):
    X=              1.4532    Y=              0.6741    Z=              0.6751  Tot=              1.7384
 Quadrupole moment (field-independent basis, Debye-Ang):
   XX=           -268.2252   YY=           -236.3760   ZZ=           -253.6438
   XY=            -16.7701   XZ=             18.0433   YZ=             12.6845

 Normal termination of Gaussian 16 at Thu Jun 27 09:48:43 2019.
