 Gaussian 16, Revision A.03,
 Gaussian 16:  ES64L-G16RevA.03 25-Dec-2016

 --------------------------
 # td=(NStates=1) B3LYP/SVP
 --------------------------

 --
 TD
 --
 Symbolic Z-matrix:
 Charge =  0 Multiplicity = 1

                         Standard orientation:
 ---------------------------------------------------------------------
 Center     Atomic      Atomic             Coordinates (Angstroms)
 Number     Number       Type             X           Y           Z
 ---------------------------------------------------------------------
      1          8           0        4.268442   -4.868076   -1.968446
      2          8           0       -3.143610   -4.779271   -1.163834
      3          8           0       -6.953715   -1.535653   -1.746201
      4          8           0       -3.824031   -3.124530    0.133941
      5          8           0       -7.733906   -0.347761    0.033845
      6          8           0        3.052753    2.474644    0.233780
      7          7           0        0.308395   -0.549648    0.582919
      8          7           0       -1.508050    1.891018    0.349557
      9          7           0        3.318262   -3.243271   -0.665067
     10          7           0        0.797866    2.944538    0.093327
     11          6           0       -0.758364   -2.484347    1.331834
     12          6           0       -0.941522   -1.089503    0.941132
     13          6           0        0.665868   -2.665350    1.316130
     14          6           0        1.253420   -1.508606    0.786493
     15          6           0       -3.830102    1.615148    0.180997
     16          6           0       -2.484969    0.945400    0.536469
     17          6           0       -2.202392   -0.398914    0.924169
     18          6           0       -3.500078    2.969683   -0.075877
     19          6           0       -1.714202   -3.451792    1.953927
     20          6           0        5.421652   -2.720841   -1.517218
     21          6           0        3.557996   -2.007328    0.035787
     22          6           0       -2.005069    3.045643   -0.052434
     23          6           0        5.047678   -1.714967   -0.375605
     24          6           0       -5.092607    0.847186    0.290830
     25          6           0        2.689643   -1.177975    0.489330
     26          6           0        1.443343   -3.925785    1.826598
     27          6           0        4.338251   -3.776168   -1.405750
     28          6           0       -1.990347   -4.615180    0.922194
     29          6           0       -5.441260   -0.186615   -0.768745
     30          6           0       -4.464454    3.937430   -0.421310
     31          6           0       -1.261806    4.103431   -0.366382
     32          6           0        6.866848   -3.217021   -1.305514
     33          6           0        5.805034   -0.708283    0.168188
     34          6           0        0.170736    4.002509   -0.298323
     35          6           0        1.116888    5.186798   -0.554073
     36          6           0        2.360140    4.666418   -0.316153
     37          6           0       -3.095782   -4.115188   -0.090266
     38          6           0        5.533523    0.321302    1.267699
     39          6           0       -6.884220   -0.678822   -0.745563
     40          6           0        3.720485    5.299686   -0.329275
     41          6           0        2.158851    3.218886    0.046273
     42          6           0        0.780594    6.622180   -0.890744
     43          6           0        4.192787    5.712491    1.078869
     44          1           0        0.648162    0.344067    0.122788
     45          1           0       -2.887986   -1.214845    1.278231
     46          1           0       -2.590672   -2.959345    2.177725
     47          1           0       -1.404298   -3.884469    2.838248
     48          1           0        5.371777   -2.302460   -2.599931
     49          1           0       -5.136786    0.148645    1.237189
     50          1           0       -6.026519    1.746961    0.346684
     51          1           0        2.836986   -0.070717    0.552910
     52          1           0       -0.437283    1.819147    0.517819
     53          1           0        1.718919   -4.642817    1.075030
     54          1           0        2.378301   -3.313008    2.238000
     55          1           0        0.773301   -4.494005    2.636791
     56          1           0        2.473910   -3.736700   -0.465820
     57          1           0       -0.910542   -4.587018    0.566838
     58          1           0       -2.493440   -5.583845    1.254750
     59          1           0       -4.689577   -1.370447   -0.639940
     60          1           0       -5.104586    0.237531   -1.850456
     61          1           0       -4.420480    4.901771    0.101055
     62          1           0       -5.585973    3.573546   -0.475378
     63          1           0       -4.155728    4.348208   -1.320049
     64          1           0       -1.683259    5.050005   -0.758739
     65          1           0        7.679973   -2.378216   -1.173677
     66          1           0        7.117053   -4.114607   -2.051413
     67          1           0        6.961420   -3.676811   -0.355825
     68          1           0        6.946977   -0.677643   -0.111412
     69          1           0        5.011391    1.200544    0.630543
     70          1           0        6.429324    0.671245    1.797659
     71          1           0        4.824466   -0.121060    1.971192
     72          1           0        3.634496    6.121754   -1.000551
     73          1           0        4.379762    4.510182   -0.865559
     74          1           0        0.391708    6.690560   -1.719825
     75          1           0        1.755018    7.182215   -0.906557
     76          1           0        0.343964    7.189701   -0.025874
     77          1           0        3.657201    6.504156    1.525076
     78          1           0        5.485667    5.960070    1.241568
     79          1           0        4.000862    4.728868    1.712779
     80          1           0       -3.818909   -4.317756   -1.848568
     81          1           0       -7.956772   -1.645732   -1.865247
 ---------------------------------------------------------------------

 SCF Done:  E(RB3LYP) =  -1949.06686530     A.U. after   16 cycles

 Excitation energies and oscillator strengths:

 Excited State   1:      Singlet-A      1.9892 eV  623.28 nm  f=0.3862  <S**2>=0.000
     156 ->157         0.70830
     156 <-157        -0.11837
 This state for optimization and/or second-order correction.
 Total Energy, E(TD-HF/TD-DFT) =  -1948.99376328
 Copying the excited state density for this state as the 1-particle RhoCI density.

 The electronic state is 1-A.
 Alpha  occ. eigenvalues --  -19.21868 -19.19139 -19.13581 -19.12870 -19.11608
 Alpha  occ. eigenvalues --  -19.10247 -14.38326 -14.36574 -14.36065 -14.29746
 Alpha  occ. eigenvalues --  -10.33797 -10.31755 -10.28900 -10.26931 -10.24040
 Alpha  occ. eigenvalues --  -10.23811 -10.23718 -10.23609 -10.23514 -10.23057
 Alpha  occ. eigenvalues --  -10.22739 -10.21850 -10.21780 -10.21684 -10.21561
 Alpha  occ. eigenvalues --  -10.21226 -10.21080 -10.20783 -10.20726 -10.20486
 Alpha  occ. eigenvalues --  -10.20470 -10.20359 -10.20181 -10.19637 -10.19611
 Alpha  occ. eigenvalues --  -10.19484 -10.19407 -10.19346 -10.19172 -10.19098
 Alpha  occ. eigenvalues --  -10.18840 -10.18661 -10.18352  -1.13427  -1.10675
 Alpha  occ. eigenvalues --   -1.04880  -1.02257  -1.01656  -1.00577  -0.98673
 Alpha  occ. eigenvalues --   -0.97525  -0.93793  -0.93760  -0.82340  -0.81551
 Alpha  occ. eigenvalues --   -0.80969  -0.80216  -0.80107  -0.79263  -0.76916
 Alpha  occ. eigenvalues --   -0.76543  -0.76265  -0.75165  -0.74081  -0.71682
 Alpha  occ. eigenvalues --   -0.70895  -0.69733  -0.68879  -0.68165  -0.67467
 Alpha  occ. eigenvalues --   -0.66771  -0.65355  -0.64225  -0.62056  -0.61864
 Alpha  occ. eigenvalues --   -0.61301  -0.58899  -0.58618  -0.57523  -0.57064
 Alpha  occ. eigenvalues --   -0.56213  -0.55278  -0.54539  -0.53483  -0.52486
 Alpha  occ. eigenvalues --   -0.51943  -0.51750  -0.50912  -0.50420  -0.50041
 Alpha  occ. eigenvalues --   -0.49061  -0.48744  -0.48431  -0.48031  -0.47390
 Alpha  occ. eigenvalues --   -0.47094  -0.46519  -0.46429  -0.45980  -0.45709
 Alpha  occ. eigenvalues --   -0.45224  -0.44880  -0.44711  -0.44574  -0.44080
 Alpha  occ. eigenvalues --   -0.43574  -0.43296  -0.42748  -0.42636  -0.42391
 Alpha  occ. eigenvalues --   -0.42126  -0.41474  -0.41148  -0.41015  -0.40774
 Alpha  occ. eigenvalues --   -0.40661  -0.40408  -0.40080  -0.39815  -0.39682
 Alpha  occ. eigenvalues --   -0.39389  -0.38984  -0.38518  -0.38254  -0.37937
 Alpha  occ. eigenvalues --   -0.37499  -0.37215  -0.37093  -0.36586  -0.36205
 Alpha  occ. eigenvalues --   -0.35923  -0.35613  -0.35119  -0.34614  -0.34463
 Alpha  occ. eigenvalues --   -0.34044  -0.33993  -0.33776  -0.33492  -0.32984
 Alpha  occ. eigenvalues --   -0.32505  -0.30851  -0.30696  -0.29745  -0.29111
 Alpha  occ. eigenvalues --   -0.28806  -0.27823  -0.26176  -0.25907  -0.25394
 Alpha  occ. eigenvalues --   -0.25054  -0.24789  -0.24550  -0.24044  -0.22405
 Alpha  occ. eigenvalues --   -0.17554
 Alpha virt. eigenvalues --   -0.09818  -0.05337  -0.03133  -0.01417  -0.00073
 Alpha virt. eigenvalues --    0.00472   0.00792   0.01740   0.03379   0.03744
 Alpha virt. eigenvalues --    0.04090   0.04235   0.04701   0.05243   0.05691

 Mulliken charges:
               1
     1  O   -0.232023
     2  O   -0.135175
     3  O   -0.173248
     4  O   -0.279892
     5  O   -0.210094
     6  O   -0.154538
     7  N   -0.106769
     8  N   -0.064515
     9  N   -0.127309
    10  N   -0.272651
    11  C   -0.133260
    12  C   -0.009494
    13  C   -0.180174
    14  C   -0.000685
    15  C   -0.025206
    16  C    0.095479
    17  C   -0.022988
    18  C   -0.130554
    19  C    0.203903
    20  C   -0.054134
    21  C    0.168726
    22  C    0.169161
    23  C   -0.038837
    24  C    0.009283
    25  C   -0.112413
    26  C    0.006757
    27  C    0.137413
    28  C   -0.055856
    29  C   -0.209245
    30  C    0.131704
    31  C   -0.182844
    32  C    0.005121
    33  C   -0.200123
    34  C    0.035468
    35  C   -0.142250
    36  C   -0.222009
    37  C    0.121743
    38  C    0.023088
    39  C    0.159512
    40  C    0.113886
    41  C    0.132064
    42  C    0.219310
    43  C   -0.052475
    44  H    0.164871
    45  H    0.012415
    46  H   -0.025772
    47  H   -0.012717
    48  H    0.068484
    49  H    0.046866
    50  H    0.044282
    51  H    0.034918
    52  H    0.167957
    53  H    0.037674
    54  H    0.067301
    55  H    0.039473
    56  H    0.111273
    57  H    0.065652
    58  H    0.056827
    59  H    0.120295
    60  H    0.048625
    61  H   -0.002145
    62  H    0.043078
    63  H   -0.016971
    64  H   -0.024601
    65  H    0.037561
    66  H    0.045957
    67  H   -0.008811
    68  H    0.015491
    69  H    0.099581
    70  H    0.020448
    71  H    0.029440
    72  H   -0.014090
    73  H    0.028945
    74  H   -0.043138
    75  H   -0.005948
    76  H    0.030967
    77  H    0.011688
    78  H    0.032616
    79  H    0.039881
    80  H    0.240376
    81  H    0.187390
 Sum of Mulliken charges =  -0.00000

 Dipole moment (field-independent basis, Debye):
    X=             -2.7378    Y=              1.5186    Z=             -1.0766  Tot=              3.3107
 Quadrupole moment (field-independent basis, Debye-Ang):
   XX=           -257.5316   YY=           -238.2134   ZZ=           -254.2514
   XY=             22.6743   XZ=             24.4443   YZ=            -14.0419

 Normal termination of Gaussian 16 at Sun Jun 30 19:09:32 2019.
