 Gaussian 16, Revision A.03,
 Gaussian 16:  ES64L-G16RevA.03 25-Dec-2016

 --------------------------
 # td=(NStates=1) B3LYP/SVP
 --------------------------

 --
 TD
 --
 Symbolic Z-matrix:
 Charge =  0 Multiplicity = 1

                         Standard orientation:
 ---------------------------------------------------------------------
 Center     Atomic      Atomic             Coordinates (Angstroms)
 Number     Number       Type             X           Y           Z
 ---------------------------------------------------------------------
      1          8           0       -4.356843   -4.560823    2.082381
      2          8           0        3.001315   -4.846597    1.505718
      3          8           0        7.303616   -1.129250    1.860090
      4          8           0        3.789996   -3.179656    0.105476
      5          8           0        7.618768   -0.629117   -0.459522
      6          8           0       -3.169288    2.423584   -0.108265
      7          7           0       -0.318090   -0.698724   -0.635864
      8          7           0        1.490415    1.809180   -0.268882
      9          7           0       -3.416152   -3.125889    0.592875
     10          7           0       -0.804316    2.949254    0.025662
     11          6           0        0.696084   -2.534641   -1.263866
     12          6           0        0.925095   -1.192992   -0.928632
     13          6           0       -0.729387   -2.701993   -1.256981
     14          6           0       -1.328671   -1.592732   -0.852338
     15          6           0        3.854523    1.536329   -0.403922
     16          6           0        2.473581    0.845523   -0.598996
     17          6           0        2.148766   -0.447858   -0.867455
     18          6           0        3.507639    2.760494   -0.040621
     19          6           0        1.692353   -3.569748   -1.761874
     20          6           0       -5.534304   -2.661601    1.298009
     21          6           0       -3.633963   -1.809898    0.054218
     22          6           0        2.096792    2.998756    0.020486
     23          6           0       -5.086521   -1.536645    0.290668
     24          6           0        5.146492    0.772966   -0.468084
     25          6           0       -2.673210   -1.094834   -0.621693
     26          6           0       -1.464693   -3.831976   -1.909425
     27          6           0       -4.344298   -3.671410    1.420237
     28          6           0        2.112589   -4.650919   -0.653910
     29          6           0        5.513484    0.000810    0.794568
     30          6           0        4.459131    4.002614    0.141969
     31          6           0        1.249581    4.170720    0.263901
     32          6           0       -6.788811   -3.517549    0.934377
     33          6           0       -5.880385   -0.625772   -0.316766
     34          6           0       -0.129050    4.104986    0.266857
     35          6           0       -1.151851    5.224134    0.557176
     36          6           0       -2.376715    4.627857    0.326009
     37          6           0        3.120885   -4.173130    0.399355
     38          6           0       -5.474942    0.429657   -1.317119
     39          6           0        6.991550   -0.565512    0.600822
     40          6           0       -3.647853    5.299585    0.487475
     41          6           0       -2.185994    3.233610    0.038230
     42          6           0       -0.709947    6.545246    0.960338
     43          6           0       -4.305472    5.527581   -0.841227
     44          1           0       -0.399783    0.269782   -0.374243
     45          1           0        2.912756   -1.046920   -1.034022
     46          1           0        2.654933   -3.160368   -2.051793
     47          1           0        1.376734   -4.372335   -2.547341
     48          1           0       -5.768545   -2.290895    2.418122
     49          1           0        5.053513    0.194811   -1.432030
     50          1           0        5.849984    1.539376   -0.517545
     51          1           0       -2.808121   -0.023420   -0.594671
     52          1           0        0.668752    1.953524   -0.282403
     53          1           0       -1.880802   -4.626861   -1.007427
     54          1           0       -2.422686   -3.460105   -2.600118
     55          1           0       -0.756637   -4.429869   -2.648560
     56          1           0       -2.328525   -3.428104    0.824850
     57          1           0        1.093326   -4.987826   -0.153139
     58          1           0        2.800222   -5.419694   -1.150298
     59          1           0        5.009648   -0.900455    0.876046
     60          1           0        5.441132    0.516244    1.826290
     61          1           0        4.219320    4.904301   -0.368967
     62          1           0        5.352292    3.805067   -0.373859
     63          1           0        4.617672    4.343609    1.301603
     64          1           0        1.761912    5.093933    0.390828
     65          1           0       -7.673264   -2.934846    0.829836
     66          1           0       -6.908624   -4.162764    1.734358
     67          1           0       -6.679872   -3.992642   -0.203986
     68          1           0       -6.870961   -0.439405    0.116162
     69          1           0       -5.294519    1.384237   -0.704175
     70          1           0       -6.433179    0.628877   -2.020678
     71          1           0       -4.622825    0.021711   -1.686791
     72          1           0       -3.745082    6.162663    1.103353
     73          1           0       -4.374307    4.585384    0.954709
     74          1           0       -0.144223    6.576973    1.916514
     75          1           0       -1.579479    7.385219    0.612615
     76          1           0        0.045247    6.930163    0.251333
     77          1           0       -3.905623    6.290560   -1.364599
     78          1           0       -5.354348    5.908365   -0.606306
     79          1           0       -4.300558    4.644012   -1.299628
     80          1           0        3.754589   -4.556851    1.987594
     81          1           0        8.221537   -1.477277    1.484065
 ---------------------------------------------------------------------

 SCF Done:  E(RB3LYP) =  -1949.02719412     A.U. after   16 cycles

 Excitation energies and oscillator strengths:

 Excited State   1:      Singlet-A      1.9457 eV  637.23 nm  f=0.3161  <S**2>=0.000
     156 ->157         0.70314
 This state for optimization and/or second-order correction.
 Total Energy, E(TD-HF/TD-DFT) =  -1948.95569161
 Copying the excited state density for this state as the 1-particle RhoCI density.

 The electronic state is 1-A.
 Alpha  occ. eigenvalues --  -19.21955 -19.20229 -19.15679 -19.14308 -19.11412
 Alpha  occ. eigenvalues --  -19.10056 -14.36710 -14.36552 -14.35718 -14.28407
 Alpha  occ. eigenvalues --  -10.34056 -10.33650 -10.27861 -10.26229 -10.25200
 Alpha  occ. eigenvalues --  -10.24972 -10.24499 -10.22893 -10.22806 -10.22455
 Alpha  occ. eigenvalues --  -10.22216 -10.22015 -10.21801 -10.21773 -10.21359
 Alpha  occ. eigenvalues --  -10.21220 -10.21196 -10.20828 -10.20817 -10.20744
 Alpha  occ. eigenvalues --  -10.19938 -10.19904 -10.19863 -10.19751 -10.19438
 Alpha  occ. eigenvalues --  -10.19268 -10.18546 -10.18299 -10.18137 -10.17956
 Alpha  occ. eigenvalues --  -10.17802 -10.17001 -10.15255  -1.14288  -1.09094
 Alpha  occ. eigenvalues --   -1.08672  -1.02736  -1.01389  -0.99995  -0.98760
 Alpha  occ. eigenvalues --   -0.98071  -0.94227  -0.90470  -0.84294  -0.81860
 Alpha  occ. eigenvalues --   -0.80943  -0.80239  -0.79732  -0.79098  -0.78228
 Alpha  occ. eigenvalues --   -0.76798  -0.76403  -0.75414  -0.74246  -0.72517
 Alpha  occ. eigenvalues --   -0.71112  -0.70123  -0.69043  -0.68771  -0.68023
 Alpha  occ. eigenvalues --   -0.67187  -0.65270  -0.62861  -0.62241  -0.61695
 Alpha  occ. eigenvalues --   -0.61482  -0.60180  -0.58798  -0.56891  -0.56697
 Alpha  occ. eigenvalues --   -0.55975  -0.55384  -0.54793  -0.53823  -0.52926
 Alpha  occ. eigenvalues --   -0.51859  -0.51506  -0.51407  -0.50573  -0.50372
 Alpha  occ. eigenvalues --   -0.49947  -0.49451  -0.49248  -0.48572  -0.47554
 Alpha  occ. eigenvalues --   -0.47256  -0.46949  -0.46256  -0.45894  -0.45706
 Alpha  occ. eigenvalues --   -0.45206  -0.45077  -0.44495  -0.44356  -0.44016
 Alpha  occ. eigenvalues --   -0.43601  -0.43517  -0.43133  -0.42898  -0.42458
 Alpha  occ. eigenvalues --   -0.41973  -0.41702  -0.41350  -0.41240  -0.41032
 Alpha  occ. eigenvalues --   -0.40925  -0.40244  -0.40010  -0.39554  -0.39218
 Alpha  occ. eigenvalues --   -0.38824  -0.38630  -0.38403  -0.38039  -0.37961
 Alpha  occ. eigenvalues --   -0.37605  -0.37073  -0.37027  -0.36864  -0.36799
 Alpha  occ. eigenvalues --   -0.36275  -0.36111  -0.35956  -0.35440  -0.34974
 Alpha  occ. eigenvalues --   -0.34643  -0.34401  -0.34011  -0.33906  -0.33307
 Alpha  occ. eigenvalues --   -0.32789  -0.32167  -0.31655  -0.30029  -0.29958
 Alpha  occ. eigenvalues --   -0.28873  -0.27494  -0.26770  -0.26479  -0.25529
 Alpha  occ. eigenvalues --   -0.24713  -0.24243  -0.23896  -0.22969  -0.21313
 Alpha  occ. eigenvalues --   -0.18658
 Alpha virt. eigenvalues --   -0.10661  -0.05838  -0.03945  -0.01984  -0.01072
 Alpha virt. eigenvalues --    0.00996   0.01596   0.02626   0.02935   0.03881
 Alpha virt. eigenvalues --    0.04005   0.04351   0.04765   0.05556   0.06007

 Mulliken charges:
               1
     1  O   -0.084082
     2  O   -0.084530
     3  O   -0.245822
     4  O   -0.253933
     5  O   -0.232320
     6  O   -0.279991
     7  N   -0.047601
     8  N    0.099694
     9  N   -0.207289
    10  N   -0.327313
    11  C   -0.035828
    12  C   -0.001235
    13  C   -0.178469
    14  C    0.106745
    15  C   -0.084661
    16  C    0.085951
    17  C    0.069424
    18  C   -0.123257
    19  C    0.090816
    20  C   -0.190198
    21  C    0.086610
    22  C    0.011943
    23  C    0.063955
    24  C    0.188830
    25  C   -0.078036
    26  C   -0.042168
    27  C    0.105307
    28  C   -0.074824
    29  C    0.009592
    30  C    0.070683
    31  C   -0.056182
    32  C    0.059873
    33  C   -0.185978
    34  C    0.091919
    35  C   -0.078835
    36  C   -0.141616
    37  C    0.113852
    38  C    0.076624
    39  C    0.176683
    40  C    0.083672
    41  C    0.195542
    42  C    0.067814
    43  C    0.084062
    44  H    0.117977
    45  H   -0.101705
    46  H    0.004631
    47  H    0.028163
    48  H    0.045995
    49  H    0.047490
    50  H   -0.019459
    51  H    0.023731
    52  H   -0.063042
    53  H    0.033643
    54  H    0.059115
    55  H    0.030046
    56  H    0.173634
    57  H    0.056441
    58  H    0.046040
    59  H    0.022047
    60  H    0.056974
    61  H    0.011374
    62  H   -0.003587
    63  H    0.046093
    64  H   -0.051408
    65  H   -0.001366
    66  H    0.013829
    67  H    0.024701
    68  H   -0.001148
    69  H    0.082553
    70  H    0.028168
    71  H    0.001741
    72  H   -0.019175
    73  H   -0.002662
    74  H    0.038462
    75  H    0.037856
    76  H    0.012606
    77  H   -0.031145
    78  H   -0.004339
    79  H   -0.006172
    80  H    0.160206
    81  H    0.196263
 Sum of Mulliken charges =  -0.00000

 Dipole moment (field-independent basis, Debye):
    X=              5.7509    Y=              1.0141    Z=              1.0042  Tot=              5.9254
 Quadrupole moment (field-independent basis, Debye-Ang):
   XX=           -244.3470   YY=           -236.1672   ZZ=           -257.6580
   XY=            -13.5050   XZ=             14.8533   YZ=              6.1551

 Normal termination of Gaussian 16 at Sun Jun 30 02:14:12 2019.
