 Gaussian 16, Revision A.03,
 Gaussian 16:  ES64L-G16RevA.03 25-Dec-2016

 --------------------------
 # td=(NStates=1) B3LYP/SVP
 --------------------------

 --
 TD
 --
 Symbolic Z-matrix:
 Charge =  0 Multiplicity = 1

                         Standard orientation:
 ---------------------------------------------------------------------
 Center     Atomic      Atomic             Coordinates (Angstroms)
 Number     Number       Type             X           Y           Z
 ---------------------------------------------------------------------
      1          8           0       -4.570591   -4.594351    1.841247
      2          8           0        2.629005   -4.801818    1.303605
      3          8           0        6.932910   -1.782030    1.900049
      4          8           0        3.685691   -3.221452    0.038563
      5          8           0        7.638056   -0.542306    0.020093
      6          8           0       -2.920654    2.545340   -0.160143
      7          7           0       -0.258090   -0.525107   -0.650427
      8          7           0        1.584745    1.779424   -0.505995
      9          7           0       -3.425165   -3.030965    0.645582
     10          7           0       -0.600901    2.954000   -0.118899
     11          6           0        0.563292   -2.476649   -1.326062
     12          6           0        0.945706   -1.162382   -0.960649
     13          6           0       -0.847956   -2.641750   -1.268917
     14          6           0       -1.268242   -1.398061   -0.738303
     15          6           0        3.825839    1.341493   -0.291461
     16          6           0        2.556747    0.836795   -0.589444
     17          6           0        2.174378   -0.577797   -0.842022
     18          6           0        3.655996    2.679688   -0.096623
     19          6           0        1.550251   -3.478625   -1.899347
     20          6           0       -5.620229   -2.528154    1.357016
     21          6           0       -3.602775   -1.741593    0.157504
     22          6           0        2.211413    2.918485   -0.129993
     23          6           0       -5.101680   -1.435648    0.329210
     24          6           0        5.147271    0.620977   -0.295064
     25          6           0       -2.676595   -0.920406   -0.508365
     26          6           0       -1.569239   -3.821201   -1.781423
     27          6           0       -4.453920   -3.590900    1.377542
     28          6           0        1.916678   -4.566954   -0.871859
     29          6           0        5.329190   -0.482753    0.782035
     30          6           0        4.684930    3.806302    0.128166
     31          6           0        1.462020    4.121202    0.031963
     32          6           0       -7.130676   -3.039796    0.976048
     33          6           0       -5.861133   -0.541315   -0.280215
     34          6           0        0.061411    4.140995    0.146051
     35          6           0       -0.881635    5.160647    0.525799
     36          6           0       -2.121612    4.646160    0.449691
     37          6           0        2.882444   -4.079216    0.162007
     38          6           0       -5.452977    0.594660   -1.224376
     39          6           0        6.806389   -0.931332    0.857693
     40          6           0       -3.488267    5.247963    0.532220
     41          6           0       -2.006823    3.338958    0.072863
     42          6           0       -0.350944    6.526896    0.962093
     43          6           0       -4.130559    5.699831   -0.804986
     44          1           0       -0.489965    0.444071   -0.169297
     45          1           0        3.147164   -1.354319   -1.207406
     46          1           0        2.287343   -2.918968   -2.264129
     47          1           0        1.289258   -3.965621   -2.814245
     48          1           0       -5.590869   -2.143479    2.359729
     49          1           0        5.281341    0.039120   -1.100875
     50          1           0        5.831668    1.340405   -0.343182
     51          1           0       -2.989530    0.138068   -0.427052
     52          1           0        0.636727    1.783088   -0.528127
     53          1           0       -1.681727   -4.687882   -0.948990
     54          1           0       -2.616970   -3.548647   -2.252674
     55          1           0       -0.964096   -4.562297   -2.471713
     56          1           0       -2.308433   -3.425137    0.628271
     57          1           0        0.870996   -4.953122   -0.478912
     58          1           0        2.504955   -5.378554   -1.360078
     59          1           0        4.684019   -1.565825    0.109337
     60          1           0        4.952968   -0.189319    1.914458
     61          1           0        4.590993    4.653318   -0.352219
     62          1           0        5.670223    3.437180   -0.005645
     63          1           0        4.569880    4.048207    1.355189
     64          1           0        1.929115    5.076068    0.479166
     65          1           0       -7.732000   -2.063852    1.126346
     66          1           0       -7.405458   -4.044781    1.655866
     67          1           0       -7.341463   -3.409452    0.016461
     68          1           0       -6.983852   -0.541449    0.068951
     69          1           0       -5.306733    1.541587   -0.285838
     70          1           0       -6.244289    1.035655   -1.794293
     71          1           0       -4.513187    0.383764   -1.742388
     72          1           0       -3.532302    6.217546    1.203104
     73          1           0       -4.182962    4.570507    1.123367
     74          1           0        0.500562    6.250272    1.723844
     75          1           0       -1.022506    7.292219    1.270446
     76          1           0        0.321932    6.915534    0.131964
     77          1           0       -3.489148    6.686037   -1.251593
     78          1           0       -5.230917    5.943189   -0.728385
     79          1           0       -4.092264    4.710858   -1.336230
     80          1           0        3.242296   -4.585394    2.132158
     81          1           0        7.895604   -1.836223    1.792721
 ---------------------------------------------------------------------

 SCF Done:  E(RB3LYP) =  -1948.99069516     A.U. after   20 cycles

 Excitation energies and oscillator strengths:

 Excited State   1:      Singlet-A      1.7570 eV  705.64 nm  f=0.3247  <S**2>=0.000
     156 ->157         0.70726
     156 <-157        -0.14475
 This state for optimization and/or second-order correction.
 Total Energy, E(TD-HF/TD-DFT) =  -1948.92612490
 Copying the excited state density for this state as the 1-particle RhoCI density.

 The electronic state is 1-A.
 Alpha  occ. eigenvalues --  -19.19896 -19.19596 -19.15616 -19.13393 -19.12097
 Alpha  occ. eigenvalues --  -19.09452 -14.38403 -14.37932 -14.35334 -14.27236
 Alpha  occ. eigenvalues --  -10.34090 -10.32564 -10.29070 -10.25051 -10.24514
 Alpha  occ. eigenvalues --  -10.24502 -10.23316 -10.23261 -10.23166 -10.22938
 Alpha  occ. eigenvalues --  -10.22756 -10.22733 -10.22368 -10.21137 -10.20610
 Alpha  occ. eigenvalues --  -10.20566 -10.20539 -10.20368 -10.20293 -10.20229
 Alpha  occ. eigenvalues --  -10.20177 -10.19790 -10.19764 -10.19760 -10.19743
 Alpha  occ. eigenvalues --  -10.19574 -10.19373 -10.19270 -10.19201 -10.19114
 Alpha  occ. eigenvalues --  -10.18761 -10.17566 -10.17356  -1.10826  -1.10653
 Alpha  occ. eigenvalues --   -1.09572  -1.02685  -1.00671  -1.00073  -0.99527
 Alpha  occ. eigenvalues --   -0.98696  -0.95060  -0.90142  -0.83054  -0.82393
 Alpha  occ. eigenvalues --   -0.80650  -0.79805  -0.79038  -0.78199  -0.77260
 Alpha  occ. eigenvalues --   -0.75963  -0.75226  -0.74385  -0.72913  -0.71807
 Alpha  occ. eigenvalues --   -0.71283  -0.69541  -0.68931  -0.68063  -0.67666
 Alpha  occ. eigenvalues --   -0.66712  -0.64732  -0.63695  -0.61795  -0.60976
 Alpha  occ. eigenvalues --   -0.60313  -0.59390  -0.58150  -0.57202  -0.56713
 Alpha  occ. eigenvalues --   -0.56433  -0.55509  -0.55343  -0.53836  -0.52674
 Alpha  occ. eigenvalues --   -0.51461  -0.51210  -0.50750  -0.50327  -0.50291
 Alpha  occ. eigenvalues --   -0.50135  -0.49130  -0.48287  -0.47848  -0.47341
 Alpha  occ. eigenvalues --   -0.46568  -0.46131  -0.45763  -0.45283  -0.45231
 Alpha  occ. eigenvalues --   -0.45110  -0.44210  -0.44061  -0.43966  -0.43616
 Alpha  occ. eigenvalues --   -0.43333  -0.42982  -0.42697  -0.42664  -0.42126
 Alpha  occ. eigenvalues --   -0.41739  -0.41529  -0.41432  -0.41247  -0.40630
 Alpha  occ. eigenvalues --   -0.39998  -0.39852  -0.39510  -0.39302  -0.38849
 Alpha  occ. eigenvalues --   -0.38751  -0.38282  -0.38039  -0.37969  -0.37609
 Alpha  occ. eigenvalues --   -0.37480  -0.37405  -0.37263  -0.36847  -0.36673
 Alpha  occ. eigenvalues --   -0.36276  -0.36049  -0.35970  -0.35439  -0.34727
 Alpha  occ. eigenvalues --   -0.34607  -0.34513  -0.33094  -0.32922  -0.32310
 Alpha  occ. eigenvalues --   -0.31798  -0.31344  -0.31036  -0.30644  -0.29748
 Alpha  occ. eigenvalues --   -0.27889  -0.27184  -0.26948  -0.25928  -0.25728
 Alpha  occ. eigenvalues --   -0.25199  -0.24703  -0.23409  -0.22690  -0.21040
 Alpha  occ. eigenvalues --   -0.17014
 Alpha virt. eigenvalues --   -0.10223  -0.06102  -0.03405  -0.01602  -0.00676
 Alpha virt. eigenvalues --    0.00966   0.01776   0.02017   0.02668   0.03449
 Alpha virt. eigenvalues --    0.03852   0.04522   0.04590   0.05145   0.05493

 Mulliken charges:
               1
     1  O   -0.081819
     2  O   -0.256955
     3  O   -0.151828
     4  O   -0.174068
     5  O   -0.260510
     6  O   -0.228165
     7  N   -0.110009
     8  N    0.046747
     9  N   -0.201281
    10  N   -0.402451
    11  C   -0.115517
    12  C    0.097476
    13  C   -0.114725
    14  C    0.012203
    15  C   -0.091304
    16  C    0.040127
    17  C   -0.116238
    18  C   -0.148426
    19  C    0.172060
    20  C   -0.087841
    21  C    0.060952
    22  C    0.043598
    23  C    0.011311
    24  C    0.308510
    25  C   -0.086804
    26  C   -0.013220
    27  C    0.099027
    28  C   -0.008438
    29  C   -0.227434
    30  C    0.151748
    31  C   -0.101745
    32  C   -0.009521
    33  C   -0.195899
    34  C    0.050929
    35  C   -0.050841
    36  C   -0.117907
    37  C    0.151817
    38  C    0.030042
    39  C    0.179973
    40  C    0.016826
    41  C    0.140715
    42  C    0.085582
    43  C   -0.039515
    44  H    0.196731
    45  H    0.070564
    46  H   -0.052141
    47  H   -0.010728
    48  H    0.032096
    49  H   -0.042882
    50  H   -0.054165
    51  H    0.049280
    52  H    0.054594
    53  H    0.027256
    54  H    0.070473
    55  H    0.027386
    56  H    0.191153
    57  H    0.058914
    58  H    0.047257
    59  H    0.144283
    60  H    0.057110
    61  H   -0.009979
    62  H    0.000086
    63  H    0.032562
    64  H   -0.017456
    65  H    0.044665
    66  H    0.047592
    67  H    0.011048
    68  H    0.008920
    69  H    0.078295
    70  H    0.010990
    71  H    0.052678
    72  H   -0.009691
    73  H    0.017041
    74  H    0.035292
    75  H    0.018752
    76  H    0.026980
    77  H    0.037455
    78  H    0.021761
    79  H    0.035392
    80  H    0.224021
    81  H    0.159230
 Sum of Mulliken charges =  -0.00000

 Dipole moment (field-independent basis, Debye):
    X=              2.3393    Y=             -1.9139    Z=              1.1032  Tot=              3.2175
 Quadrupole moment (field-independent basis, Debye-Ang):
   XX=           -254.9415   YY=           -236.3284   ZZ=           -252.9018
   XY=            -15.9168   XZ=             14.8118   YZ=             11.8191

 Normal termination of Gaussian 16 at Thu Jul  4 21:54:52 2019.
