 Gaussian 16, Revision A.03,
 Gaussian 16:  ES64L-G16RevA.03 25-Dec-2016

 --------------------------
 # td=(NStates=1) B3LYP/SVP
 --------------------------

 --
 TD
 --
 Symbolic Z-matrix:
 Charge =  0 Multiplicity = 1

                         Standard orientation:
 ---------------------------------------------------------------------
 Center     Atomic      Atomic             Coordinates (Angstroms)
 Number     Number       Type             X           Y           Z
 ---------------------------------------------------------------------
      1          8           0       -4.276931   -4.707831    2.010589
      2          8           0        3.213213   -4.724697    1.256659
      3          8           0        7.072890   -1.268051    1.847919
      4          8           0        3.920094   -2.943545    0.010632
      5          8           0        7.643914   -0.630555   -0.167965
      6          8           0       -3.082281    2.334675   -0.188017
      7          7           0       -0.257214   -0.563354   -0.651595
      8          7           0        1.515779    1.915956   -0.426465
      9          7           0       -3.332313   -3.068575    0.732984
     10          7           0       -0.845971    2.846934   -0.053113
     11          6           0        0.657811   -2.426573   -1.295722
     12          6           0        0.914852   -1.132934   -0.935564
     13          6           0       -0.713272   -2.683330   -1.203107
     14          6           0       -1.313431   -1.405325   -0.714499
     15          6           0        3.759309    1.496652   -0.390744
     16          6           0        2.454717    0.914355   -0.625161
     17          6           0        2.177457   -0.442447   -0.881563
     18          6           0        3.530455    2.782702   -0.065802
     19          6           0        1.683634   -3.443743   -1.776767
     20          6           0       -5.581410   -2.739020    1.336966
     21          6           0       -3.665092   -1.876957    0.104711
     22          6           0        2.073056    3.037506   -0.058222
     23          6           0       -5.033460   -1.640026    0.317225
     24          6           0        5.088943    0.774351   -0.513245
     25          6           0       -2.644318   -1.149591   -0.441392
     26          6           0       -1.537916   -3.838233   -1.697149
     27          6           0       -4.379752   -3.667547    1.346242
     28          6           0        2.141940   -4.451940   -0.830430
     29          6           0        5.355370   -0.063532    0.748997
     30          6           0        4.586744    3.899685    0.352430
     31          6           0        1.185602    4.127880    0.171156
     32          6           0       -6.855393   -3.368301    0.829494
     33          6           0       -5.820330   -0.685176   -0.188144
     34          6           0       -0.192985    3.958893    0.130301
     35          6           0       -1.073842    5.075851    0.543016
     36          6           0       -2.402562    4.649424    0.408280
     37          6           0        3.263048   -3.958524    0.163499
     38          6           0       -5.421593    0.368564   -1.195981
     39          6           0        6.830126   -0.658595    0.749405
     40          6           0       -3.733701    5.152137    0.464585
     41          6           0       -2.227796    3.210844    0.015064
     42          6           0       -0.647747    6.485987    0.940913
     43          6           0       -4.443304    5.317900   -0.809513
     44          1           0       -0.352130    0.524573   -0.236320
     45          1           0        3.020397   -1.182720   -0.806925
     46          1           0        2.564745   -2.624316   -2.125417
     47          1           0        1.177586   -4.046331   -2.608492
     48          1           0       -5.573326   -2.244346    2.189362
     49          1           0        5.041363    0.217043   -1.422110
     50          1           0        6.022379    1.427887   -0.752112
     51          1           0       -3.228390   -0.097328   -0.681328
     52          1           0        0.530715    2.052697   -0.533416
     53          1           0       -1.430896   -4.503062   -1.051673
     54          1           0       -2.383909   -3.527077   -2.021390
     55          1           0       -1.084613   -4.193666   -2.589478
     56          1           0       -2.306303   -3.476246    1.050408
     57          1           0        1.342549   -4.856962   -0.218740
     58          1           0        2.720958   -5.353379   -1.284536
     59          1           0        4.695877   -0.821077    1.140015
     60          1           0        5.315834    0.585599    1.733777
     61          1           0        4.388296    4.696167   -0.282633
     62          1           0        5.597497    3.711710    0.260536
     63          1           0        4.428437    4.123347    1.282578
     64          1           0        1.729826    5.141852    0.397021
     65          1           0       -7.544486   -2.662999    1.427599
     66          1           0       -6.921604   -4.243483    1.501440
     67          1           0       -6.506101   -3.597587   -0.261899
     68          1           0       -6.869195   -0.782206   -0.126893
     69          1           0       -4.950035    1.452757   -0.967966
     70          1           0       -6.256415    0.880349   -1.775336
     71          1           0       -4.841378   -0.047098   -2.230927
     72          1           0       -3.787796    6.242656    0.903880
     73          1           0       -4.347350    4.589954    1.112049
     74          1           0        0.104233    6.305333    1.715228
     75          1           0       -1.519168    7.156838    1.454976
     76          1           0       -0.336725    7.218281    0.015402
     77          1           0       -3.845979    6.121092   -1.259159
     78          1           0       -5.253658    5.847619   -0.563022
     79          1           0       -4.665032    4.335331   -1.357654
     80          1           0        3.922198   -4.519759    1.859299
     81          1           0        7.821474   -1.973762    1.746955
 ---------------------------------------------------------------------

 SCF Done:  E(RB3LYP) =  -1949.01336609     A.U. after   16 cycles

 Excitation energies and oscillator strengths:

 Excited State   1:      Singlet-A      1.8734 eV  661.83 nm  f=0.3597  <S**2>=0.000
     156 ->157         0.70833
     156 <-157        -0.10850
 This state for optimization and/or second-order correction.
 Total Energy, E(TD-HF/TD-DFT) =  -1948.94452150
 Copying the excited state density for this state as the 1-particle RhoCI density.

 The electronic state is 1-A.
 Alpha  occ. eigenvalues --  -19.20727 -19.19182 -19.15113 -19.11577 -19.10128
 Alpha  occ. eigenvalues --  -19.09669 -14.37929 -14.36948 -14.35627 -14.28882
 Alpha  occ. eigenvalues --  -10.34192 -10.31717 -10.27629 -10.26448 -10.23645
 Alpha  occ. eigenvalues --  -10.23591 -10.23536 -10.23154 -10.22306 -10.21989
 Alpha  occ. eigenvalues --  -10.21917 -10.21480 -10.21363 -10.21352 -10.21279
 Alpha  occ. eigenvalues --  -10.20702 -10.20584 -10.20194 -10.20129 -10.19911
 Alpha  occ. eigenvalues --  -10.19652 -10.19608 -10.19580 -10.19405 -10.19074
 Alpha  occ. eigenvalues --  -10.19033 -10.18935 -10.18760 -10.18638 -10.18343
 Alpha  occ. eigenvalues --  -10.17483 -10.16862 -10.16250  -1.12052  -1.11199
 Alpha  occ. eigenvalues --   -1.03129  -1.01992  -1.00589  -0.99904  -0.99215
 Alpha  occ. eigenvalues --   -0.98641  -0.94573  -0.92179  -0.82725  -0.82129
 Alpha  occ. eigenvalues --   -0.81832  -0.80968  -0.80623  -0.78553  -0.77929
 Alpha  occ. eigenvalues --   -0.76840  -0.76549  -0.75854  -0.74116  -0.73126
 Alpha  occ. eigenvalues --   -0.72077  -0.70127  -0.69153  -0.68504  -0.68199
 Alpha  occ. eigenvalues --   -0.67738  -0.65275  -0.63598  -0.62671  -0.62002
 Alpha  occ. eigenvalues --   -0.61248  -0.60773  -0.58914  -0.57752  -0.57299
 Alpha  occ. eigenvalues --   -0.56176  -0.55625  -0.54223  -0.53456  -0.53049
 Alpha  occ. eigenvalues --   -0.52330  -0.51851  -0.51301  -0.50211  -0.49541
 Alpha  occ. eigenvalues --   -0.49274  -0.49162  -0.48831  -0.48341  -0.47946
 Alpha  occ. eigenvalues --   -0.47655  -0.47365  -0.46701  -0.46352  -0.45662
 Alpha  occ. eigenvalues --   -0.45114  -0.44669  -0.44508  -0.44138  -0.43895
 Alpha  occ. eigenvalues --   -0.43456  -0.43378  -0.42871  -0.42505  -0.42402
 Alpha  occ. eigenvalues --   -0.42312  -0.42039  -0.41798  -0.41548  -0.41052
 Alpha  occ. eigenvalues --   -0.40191  -0.40061  -0.39913  -0.39785  -0.39573
 Alpha  occ. eigenvalues --   -0.39128  -0.38759  -0.38555  -0.38054  -0.38010
 Alpha  occ. eigenvalues --   -0.37733  -0.37376  -0.36719  -0.36191  -0.35725
 Alpha  occ. eigenvalues --   -0.35610  -0.35354  -0.34804  -0.34725  -0.34443
 Alpha  occ. eigenvalues --   -0.34203  -0.33723  -0.33332  -0.33047  -0.32908
 Alpha  occ. eigenvalues --   -0.32303  -0.31783  -0.30736  -0.29842  -0.29280
 Alpha  occ. eigenvalues --   -0.28134  -0.27527  -0.26166  -0.26031  -0.25337
 Alpha  occ. eigenvalues --   -0.24776  -0.24421  -0.23979  -0.23391  -0.21203
 Alpha  occ. eigenvalues --   -0.17395
 Alpha virt. eigenvalues --   -0.09894  -0.05974  -0.03890  -0.01646  -0.00294
 Alpha virt. eigenvalues --    0.00365   0.02722   0.02942   0.03185   0.03898
 Alpha virt. eigenvalues --    0.04113   0.04709   0.05283   0.05544   0.05883

 Mulliken charges:
               1
     1  O   -0.251942
     2  O   -0.148863
     3  O   -0.163320
     4  O   -0.221285
     5  O   -0.254232
     6  O   -0.215759
     7  N   -0.073934
     8  N   -0.015919
     9  N   -0.151869
    10  N   -0.296099
    11  C   -0.100778
    12  C    0.017763
    13  C   -0.271420
    14  C    0.094647
    15  C   -0.089816
    16  C    0.094946
    17  C   -0.103854
    18  C   -0.162309
    19  C    0.052585
    20  C   -0.011176
    21  C    0.053642
    22  C   -0.005801
    23  C   -0.026476
    24  C    0.149060
    25  C   -0.160085
    26  C    0.386338
    27  C    0.079292
    28  C    0.024951
    29  C   -0.038934
    30  C    0.241571
    31  C   -0.177230
    32  C    0.068133
    33  C   -0.074744
    34  C    0.124990
    35  C   -0.120063
    36  C   -0.101294
    37  C    0.115795
    38  C   -0.104678
    39  C    0.118438
    40  C    0.039757
    41  C    0.139348
    42  C    0.005001
    43  C    0.077828
    44  H    0.202755
    45  H    0.045897
    46  H    0.047953
    47  H    0.011906
    48  H    0.000470
    49  H    0.012047
    50  H    0.033939
    51  H    0.078363
    52  H    0.113321
    53  H   -0.061434
    54  H   -0.037539
    55  H   -0.025575
    56  H    0.188833
    57  H    0.030749
    58  H    0.049299
    59  H    0.027774
    60  H    0.030244
    61  H   -0.002425
    62  H   -0.019547
    63  H   -0.024737
    64  H    0.004786
    65  H    0.036708
    66  H    0.025025
    67  H    0.063297
    68  H   -0.013215
    69  H    0.097897
    70  H   -0.004947
    71  H    0.041248
    72  H   -0.016299
    73  H   -0.004602
    74  H    0.034888
    75  H    0.032940
    76  H    0.057498
    77  H   -0.009870
    78  H   -0.035578
    79  H    0.055986
    80  H    0.174201
    81  H    0.215536
 Sum of Mulliken charges =  -0.00000

 Dipole moment (field-independent basis, Debye):
    X=              2.7637    Y=              0.1131    Z=              1.4397  Tot=              3.1183
 Quadrupole moment (field-independent basis, Debye-Ang):
   XX=           -252.3987   YY=           -235.2317   ZZ=           -254.6618
   XY=            -26.7060   XZ=             20.9653   YZ=              8.3533

 Normal termination of Gaussian 16 at Thu Jul  4 01:31:04 2019.
