 Gaussian 16, Revision A.03,
 Gaussian 16:  ES64L-G16RevA.03 25-Dec-2016

 --------------------------
 # td=(NStates=1) B3LYP/SVP
 --------------------------

 --
 TD
 --
 Symbolic Z-matrix:
 Charge =  0 Multiplicity = 1

                         Standard orientation:
 ---------------------------------------------------------------------
 Center     Atomic      Atomic             Coordinates (Angstroms)
 Number     Number       Type             X           Y           Z
 ---------------------------------------------------------------------
      1          8           0       -4.859783   -4.561741    1.892592
      2          8           0        2.688406   -4.767711    1.557960
      3          8           0        6.938746   -1.819131    1.895551
      4          8           0        3.689439   -3.360468   -0.069790
      5          8           0        7.730293   -0.739292   -0.003715
      6          8           0       -2.920355    2.541363   -0.140023
      7          7           0       -0.349326   -0.577827   -0.615961
      8          7           0        1.659882    1.718245   -0.432125
      9          7           0       -3.673913   -3.111199    0.459645
     10          7           0       -0.636902    2.934782   -0.108092
     11          6           0        0.571349   -2.545466   -1.282659
     12          6           0        0.934138   -1.100988   -0.983499
     13          6           0       -0.800993   -2.690468   -1.239995
     14          6           0       -1.329724   -1.435043   -0.703955
     15          6           0        3.837965    1.257760   -0.434961
     16          6           0        2.563910    0.746619   -0.676021
     17          6           0        2.261818   -0.587897   -0.998801
     18          6           0        3.696761    2.638876   -0.104241
     19          6           0        1.524089   -3.552654   -1.728973
     20          6           0       -5.805104   -2.375653    1.291749
     21          6           0       -3.762137   -1.860934    0.054784
     22          6           0        2.211644    2.907990   -0.098333
     23          6           0       -5.196845   -1.397755    0.270743
     24          6           0        5.216844    0.593154   -0.444116
     25          6           0       -2.707892   -1.058031   -0.429060
     26          6           0       -1.526545   -3.833584   -1.916492
     27          6           0       -4.814519   -3.472949    1.280379
     28          6           0        1.893277   -4.664671   -0.764213
     29          6           0        5.332602   -0.386077    0.725488
     30          6           0        4.734994    3.661578    0.285026
     31          6           0        1.447648    4.118755    0.200598
     32          6           0       -7.207176   -3.002766    1.097933
     33          6           0       -5.773753   -0.293111   -0.146575
     34          6           0        0.187857    4.064906    0.252759
     35          6           0       -0.739158    5.171810    0.592479
     36          6           0       -2.034065    4.852976    0.315321
     37          6           0        2.850908   -4.170091    0.273057
     38          6           0       -5.298938    0.650687   -1.306111
     39          6           0        6.812961   -0.961504    0.798031
     40          6           0       -3.395076    5.625843    0.536997
     41          6           0       -1.929911    3.274438    0.047051
     42          6           0       -0.181544    6.625833    0.860275
     43          6           0       -4.031063    5.823083   -0.812331
     44          1           0       -0.506315    0.163787   -0.124349
     45          1           0        3.254937   -1.220417   -1.225512
     46          1           0        2.263719   -3.269351   -2.247281
     47          1           0        0.873156   -4.114803   -2.498172
     48          1           0       -5.656773   -1.781087    2.301884
     49          1           0        5.224271   -0.106758   -1.455606
     50          1           0        6.005002    1.497577   -0.316018
     51          1           0       -2.919056   -0.050682   -0.310888
     52          1           0        0.489338    1.844341   -0.400287
     53          1           0       -1.748232   -4.739552   -1.150185
     54          1           0       -2.508840   -3.535678   -2.159239
     55          1           0       -0.990140   -4.163888   -2.824674
     56          1           0       -2.816806   -3.669848    0.522090
     57          1           0        0.899571   -4.942322   -0.261834
     58          1           0        2.478158   -5.493081   -1.271811
     59          1           0        4.759455   -1.216596    0.652722
     60          1           0        5.207722    0.069262    1.746976
     61          1           0        4.810906    4.532702   -0.518890
     62          1           0        5.708431    3.285169    0.520433
     63          1           0        4.216273    4.399039    1.131620
     64          1           0        2.001183    4.935794    0.580011
     65          1           0       -7.849147   -2.339042    1.368851
     66          1           0       -7.110563   -3.842722    1.778692
     67          1           0       -7.684553   -3.096514   -0.183317
     68          1           0       -6.809358    0.042433    0.061719
     69          1           0       -4.514720    1.270935   -0.587445
     70          1           0       -6.335085    1.300311   -1.605990
     71          1           0       -4.642421    0.061180   -2.028140
     72          1           0       -3.261334    6.635120    1.126283
     73          1           0       -4.074662    4.840324    0.959559
     74          1           0        0.616530    6.546208    1.814486
     75          1           0       -0.937941    7.250695    1.212589
     76          1           0        0.434457    7.172356   -0.068224
     77          1           0       -3.403667    6.399353   -1.510594
     78          1           0       -5.039642    6.083148   -0.753328
     79          1           0       -4.172090    4.853487   -1.276169
     80          1           0        3.444939   -4.278726    1.998290
     81          1           0        7.895211   -2.162312    1.942872
 ---------------------------------------------------------------------

 SCF Done:  E(RB3LYP) =  -1949.02787466     A.U. after   17 cycles

 Excitation energies and oscillator strengths:

 Excited State   1:      Singlet-A      2.0154 eV  615.20 nm  f=0.4727  <S**2>=0.000
     155 ->157        -0.10753
     156 ->157         0.69971
     156 <-157        -0.11185
 This state for optimization and/or second-order correction.
 Total Energy, E(TD-HF/TD-DFT) =  -1948.95381157
 Copying the excited state density for this state as the 1-particle RhoCI density.

 The electronic state is 1-A.
 Alpha  occ. eigenvalues --  -19.20498 -19.18370 -19.15929 -19.13410 -19.13169
 Alpha  occ. eigenvalues --  -19.07944 -14.39373 -14.38798 -14.35025 -14.28221
 Alpha  occ. eigenvalues --  -10.34289 -10.32519 -10.31467 -10.26596 -10.25556
 Alpha  occ. eigenvalues --  -10.25308 -10.24994 -10.23570 -10.23551 -10.23002
 Alpha  occ. eigenvalues --  -10.22897 -10.22371 -10.22156 -10.21729 -10.21416
 Alpha  occ. eigenvalues --  -10.21118 -10.20980 -10.20833 -10.20698 -10.20693
 Alpha  occ. eigenvalues --  -10.20668 -10.20610 -10.20558 -10.20496 -10.20071
 Alpha  occ. eigenvalues --  -10.19694 -10.19546 -10.19417 -10.19390 -10.18781
 Alpha  occ. eigenvalues --  -10.18483 -10.17522 -10.15842  -1.09904  -1.06953
 Alpha  occ. eigenvalues --   -1.04169  -1.02722  -1.00864  -0.99088  -0.98132
 Alpha  occ. eigenvalues --   -0.97688  -0.97195  -0.89116  -0.84652  -0.83031
 Alpha  occ. eigenvalues --   -0.81481  -0.80501  -0.79440  -0.78776  -0.77575
 Alpha  occ. eigenvalues --   -0.77391  -0.76081  -0.75421  -0.73706  -0.72726
 Alpha  occ. eigenvalues --   -0.71053  -0.70414  -0.70274  -0.68486  -0.66377
 Alpha  occ. eigenvalues --   -0.65892  -0.65508  -0.64554  -0.62660  -0.61278
 Alpha  occ. eigenvalues --   -0.60137  -0.59139  -0.58878  -0.58431  -0.57693
 Alpha  occ. eigenvalues --   -0.56510  -0.55320  -0.54380  -0.53185  -0.52700
 Alpha  occ. eigenvalues --   -0.51967  -0.51763  -0.51015  -0.50838  -0.50575
 Alpha  occ. eigenvalues --   -0.50016  -0.48847  -0.48690  -0.48180  -0.47568
 Alpha  occ. eigenvalues --   -0.47365  -0.46919  -0.46197  -0.45844  -0.45251
 Alpha  occ. eigenvalues --   -0.45214  -0.44973  -0.44068  -0.43673  -0.43622
 Alpha  occ. eigenvalues --   -0.43482  -0.43181  -0.43127  -0.42874  -0.42270
 Alpha  occ. eigenvalues --   -0.41860  -0.41289  -0.41153  -0.41006  -0.40777
 Alpha  occ. eigenvalues --   -0.40548  -0.40282  -0.40074  -0.39663  -0.39133
 Alpha  occ. eigenvalues --   -0.38894  -0.38727  -0.38450  -0.38292  -0.37958
 Alpha  occ. eigenvalues --   -0.37670  -0.37261  -0.37007  -0.36811  -0.36735
 Alpha  occ. eigenvalues --   -0.36085  -0.35919  -0.35708  -0.35246  -0.35224
 Alpha  occ. eigenvalues --   -0.34684  -0.34383  -0.33987  -0.33439  -0.32654
 Alpha  occ. eigenvalues --   -0.32460  -0.32220  -0.32103  -0.30572  -0.30063
 Alpha  occ. eigenvalues --   -0.28178  -0.27933  -0.26540  -0.26449  -0.26287
 Alpha  occ. eigenvalues --   -0.25351  -0.23422  -0.22991  -0.22471  -0.21394
 Alpha  occ. eigenvalues --   -0.18118
 Alpha virt. eigenvalues --   -0.10257  -0.05159  -0.03507  -0.02973  -0.02825
 Alpha virt. eigenvalues --   -0.00216   0.01497   0.02017   0.02729   0.02990
 Alpha virt. eigenvalues --    0.03303   0.03597   0.04086   0.04342   0.04664

 Mulliken charges:
               1
     1  O   -0.227843
     2  O   -0.228171
     3  O   -0.251097
     4  O   -0.223315
     5  O   -0.242460
     6  O   -0.279687
     7  N    0.054182
     8  N   -0.139746
     9  N   -0.082273
    10  N   -0.349748
    11  C   -0.126479
    12  C    0.111345
    13  C   -0.174271
    14  C    0.015487
    15  C   -0.093830
    16  C    0.062733
    17  C   -0.101668
    18  C   -0.119233
    19  C    0.188753
    20  C   -0.087784
    21  C    0.061172
    22  C    0.021721
    23  C    0.030658
    24  C    0.034029
    25  C   -0.047941
    26  C    0.074181
    27  C    0.148637
    28  C    0.028947
    29  C    0.040388
    30  C    0.030950
    31  C   -0.099603
    32  C    0.103395
    33  C   -0.197610
    34  C    0.209188
    35  C   -0.107790
    36  C   -0.176705
    37  C    0.153051
    38  C   -0.096299
    39  C    0.158756
    40  C    0.066531
    41  C    0.159423
    42  C    0.021041
    43  C    0.025468
    44  H    0.074464
    45  H    0.070366
    46  H   -0.064042
    47  H   -0.007598
    48  H    0.085384
    49  H    0.044747
    50  H    0.049333
    51  H   -0.042470
    52  H    0.208510
    53  H    0.029876
    54  H    0.011037
    55  H    0.043122
    56  H    0.142231
    57  H    0.036926
    58  H    0.062207
    59  H    0.001585
    60  H    0.039237
    61  H    0.034587
    62  H    0.020998
    63  H    0.032421
    64  H   -0.048610
    65  H   -0.033590
    66  H    0.049376
    67  H    0.044082
    68  H    0.008160
    69  H    0.143291
    70  H    0.046649
    71  H    0.055233
    72  H    0.027095
    73  H    0.016187
    74  H    0.022673
    75  H   -0.003252
    76  H    0.054097
    77  H    0.011684
    78  H   -0.017324
    79  H    0.007778
    80  H    0.194365
    81  H    0.202701
 Sum of Mulliken charges =  -0.00000

 Dipole moment (field-independent basis, Debye):
    X=              0.5066    Y=             -2.8880    Z=              0.8993  Tot=              3.0669
 Quadrupole moment (field-independent basis, Debye-Ang):
   XX=           -249.0112   YY=           -250.2990   ZZ=           -255.5222
   XY=            -11.8282   XZ=             14.3921   YZ=             14.0323

 Normal termination of Gaussian 16 at Tue Jul  2 20:26:06 2019.
