 Gaussian 16, Revision A.03,
 Gaussian 16:  ES64L-G16RevA.03 25-Dec-2016

 --------------------------
 # td=(NStates=1) B3LYP/SVP
 --------------------------

 --
 TD
 --
 Symbolic Z-matrix:
 Charge =  0 Multiplicity = 1

                         Standard orientation:
 ---------------------------------------------------------------------
 Center     Atomic      Atomic             Coordinates (Angstroms)
 Number     Number       Type             X           Y           Z
 ---------------------------------------------------------------------
      1          8           0        4.466857   -4.790931   -1.928164
      2          8           0       -3.401402   -4.682744   -1.366846
      3          8           0       -6.926388   -1.441023   -1.801622
      4          8           0       -4.072821   -2.997829   -0.062478
      5          8           0       -7.648150   -0.251396    0.102333
      6          8           0        3.211352    2.202520    0.108586
      7          7           0        0.156260   -0.647978    0.461397
      8          7           0       -1.500433    1.936969    0.288913
      9          7           0        3.434087   -3.287156   -0.436267
     10          7           0        0.973144    2.749003   -0.000321
     11          6           0       -0.849818   -2.471392    1.210913
     12          6           0       -1.100603   -1.224357    0.781813
     13          6           0        0.596424   -2.755435    1.256764
     14          6           0        1.094895   -1.570647    0.669330
     15          6           0       -3.654130    1.736721    0.414970
     16          6           0       -2.413707    0.927107    0.478238
     17          6           0       -2.294090   -0.441960    0.706934
     18          6           0       -3.450909    2.973182    0.012657
     19          6           0       -1.903960   -3.384762    1.894233
     20          6           0        5.545540   -2.612142   -1.344466
     21          6           0        3.530217   -2.024982   -0.017056
     22          6           0       -1.969232    3.128882   -0.044534
     23          6           0        4.943406   -1.622362   -0.265246
     24          6           0       -5.078225    0.986498    0.378274
     25          6           0        2.492065   -1.125793    0.345466
     26          6           0        1.245712   -4.020233    1.867688
     27          6           0        4.491403   -3.748260   -1.387377
     28          6           0       -2.358486   -4.494823    0.945198
     29          6           0       -5.398927    0.169518   -0.791068
     30          6           0       -4.356261    4.159977   -0.162801
     31          6           0       -1.100951    4.138893   -0.351716
     32          6           0        6.936542   -3.182413   -1.126191
     33          6           0        5.776694   -0.686178    0.305008
     34          6           0        0.267855    3.931906   -0.255890
     35          6           0        1.226491    5.056195   -0.550680
     36          6           0        2.444743    4.573778   -0.421067
     37          6           0       -3.343111   -4.028187   -0.163969
     38          6           0        5.393815    0.233947    1.374648
     39          6           0       -6.772071   -0.479967   -0.728989
     40          6           0        3.904743    5.155416   -0.323939
     41          6           0        2.300668    3.098563   -0.032683
     42          6           0        0.977575    6.578850   -0.792177
     43          6           0        4.398305    5.250824    1.002836
     44          1           0        0.351849    0.266326    0.151487
     45          1           0       -3.319293   -0.891727    1.203210
     46          1           0       -2.580344   -2.772044    2.353572
     47          1           0       -1.163328   -3.980158    2.636720
     48          1           0        5.572908   -2.175722   -2.343908
     49          1           0       -5.139108    0.455624    1.380366
     50          1           0       -6.086600    1.561946    0.583814
     51          1           0        2.661269   -0.199259    0.445032
     52          1           0       -0.520441    1.784618    0.390150
     53          1           0        1.010944   -5.062239    1.405348
     54          1           0        2.324074   -3.941594    1.875029
     55          1           0        1.125896   -3.966858    3.038739
     56          1           0        2.602583   -3.861101   -0.601195
     57          1           0       -1.464006   -4.905595    0.321976
     58          1           0       -2.846970   -5.297991    1.460880
     59          1           0       -4.682196   -0.623712   -0.611009
     60          1           0       -5.126731    0.604132   -1.686220
     61          1           0       -4.595311    4.859782    0.725466
     62          1           0       -5.404985    3.700547   -0.587293
     63          1           0       -3.898270    4.912543   -1.019454
     64          1           0       -1.586161    5.134214   -0.724541
     65          1           0        7.635838   -2.462973   -1.150843
     66          1           0        7.091291   -3.803961   -2.136718
     67          1           0        7.067163   -3.911461   -0.244486
     68          1           0        6.681862   -0.721640   -0.110167
     69          1           0        5.152687    1.138025    0.885451
     70          1           0        6.330016    0.159375    2.030275
     71          1           0        4.312760   -0.111989    1.896621
     72          1           0        3.931598    6.052130   -0.926104
     73          1           0        4.580793    4.504602   -0.979720
     74          1           0        0.123875    6.924944   -1.615505
     75          1           0        1.999380    7.331422   -0.685085
     76          1           0        0.301848    7.104124   -0.045608
     77          1           0        3.924918    5.861075    1.731228
     78          1           0        5.565904    5.483275    1.196722
     79          1           0        4.502845    4.407796    1.504862
     80          1           0       -4.209740   -4.463800   -1.806431
     81          1           0       -7.841470   -2.015525   -1.863899
 ---------------------------------------------------------------------

 SCF Done:  E(RB3LYP) =  -1949.03141839     A.U. after   18 cycles

 Excitation energies and oscillator strengths:

 Excited State   1:      Singlet-A      1.8726 eV  662.09 nm  f=0.3192  <S**2>=0.000
     156 ->157         0.70326
 This state for optimization and/or second-order correction.
 Total Energy, E(TD-HF/TD-DFT) =  -1948.96260139
 Copying the excited state density for this state as the 1-particle RhoCI density.

 The electronic state is 1-A.
 Alpha  occ. eigenvalues --  -19.18855 -19.17154 -19.13720 -19.13566 -19.13243
 Alpha  occ. eigenvalues --  -19.09494 -14.36912 -14.36631 -14.36508 -14.29549
 Alpha  occ. eigenvalues --  -10.33772 -10.32899 -10.30369 -10.26128 -10.24421
 Alpha  occ. eigenvalues --  -10.24357 -10.24086 -10.23863 -10.23553 -10.23237
 Alpha  occ. eigenvalues --  -10.23186 -10.22656 -10.22618 -10.22596 -10.21641
 Alpha  occ. eigenvalues --  -10.21483 -10.21004 -10.20901 -10.20537 -10.20429
 Alpha  occ. eigenvalues --  -10.20429 -10.20090 -10.19814 -10.19796 -10.19559
 Alpha  occ. eigenvalues --  -10.19499 -10.19451 -10.18961 -10.18938 -10.18584
 Alpha  occ. eigenvalues --  -10.18208 -10.17351 -10.16321  -1.09442  -1.06800
 Alpha  occ. eigenvalues --   -1.05278  -1.00324  -0.98808  -0.98598  -0.97820
 Alpha  occ. eigenvalues --   -0.97663  -0.95244  -0.90353  -0.82677  -0.82146
 Alpha  occ. eigenvalues --   -0.81300  -0.80952  -0.79564  -0.78554  -0.78263
 Alpha  occ. eigenvalues --   -0.77630  -0.76759  -0.75431  -0.74313  -0.72362
 Alpha  occ. eigenvalues --   -0.70461  -0.69145  -0.68782  -0.68305  -0.67282
 Alpha  occ. eigenvalues --   -0.66258  -0.65370  -0.64066  -0.62920  -0.62237
 Alpha  occ. eigenvalues --   -0.61472  -0.59610  -0.58600  -0.57637  -0.56955
 Alpha  occ. eigenvalues --   -0.56299  -0.55626  -0.55086  -0.54230  -0.53117
 Alpha  occ. eigenvalues --   -0.52228  -0.51517  -0.50666  -0.50092  -0.49478
 Alpha  occ. eigenvalues --   -0.49077  -0.48661  -0.47926  -0.47535  -0.47369
 Alpha  occ. eigenvalues --   -0.46604  -0.46494  -0.45765  -0.45345  -0.44983
 Alpha  occ. eigenvalues --   -0.44580  -0.44371  -0.44130  -0.43779  -0.43486
 Alpha  occ. eigenvalues --   -0.43458  -0.43249  -0.42834  -0.42461  -0.41886
 Alpha  occ. eigenvalues --   -0.41647  -0.41458  -0.41170  -0.40959  -0.40635
 Alpha  occ. eigenvalues --   -0.40395  -0.39908  -0.39761  -0.39697  -0.39475
 Alpha  occ. eigenvalues --   -0.39048  -0.38844  -0.38690  -0.38013  -0.37911
 Alpha  occ. eigenvalues --   -0.37852  -0.37607  -0.37404  -0.37114  -0.36637
 Alpha  occ. eigenvalues --   -0.36388  -0.35622  -0.35573  -0.34747  -0.34513
 Alpha  occ. eigenvalues --   -0.33546  -0.33040  -0.32677  -0.32263  -0.32170
 Alpha  occ. eigenvalues --   -0.31621  -0.31312  -0.30542  -0.29811  -0.28409
 Alpha  occ. eigenvalues --   -0.28107  -0.27826  -0.27482  -0.26808  -0.26159
 Alpha  occ. eigenvalues --   -0.24854  -0.24686  -0.23848  -0.23600  -0.21444
 Alpha  occ. eigenvalues --   -0.18148
 Alpha virt. eigenvalues --   -0.10560  -0.05346  -0.03436  -0.02417  -0.00669
 Alpha virt. eigenvalues --   -0.00565   0.01858   0.02480   0.02836   0.03351
 Alpha virt. eigenvalues --    0.03930   0.04364   0.04433   0.05433   0.05644

 Mulliken charges:
               1
     1  O   -0.142232
     2  O   -0.177380
     3  O   -0.328672
     4  O   -0.277483
     5  O   -0.221652
     6  O   -0.277180
     7  N   -0.059076
     8  N   -0.020749
     9  N   -0.165354
    10  N   -0.298069
    11  C   -0.176960
    12  C    0.107600
    13  C   -0.143972
    14  C    0.037667
    15  C   -0.061387
    16  C    0.018906
    17  C   -0.061552
    18  C   -0.057496
    19  C    0.130667
    20  C   -0.084459
    21  C    0.105760
    22  C    0.081629
    23  C   -0.073233
    24  C   -0.057745
    25  C    0.051964
    26  C    0.030453
    27  C    0.132300
    28  C    0.033289
    29  C    0.112192
    30  C   -0.031534
    31  C   -0.172986
    32  C    0.050917
    33  C   -0.052252
    34  C    0.131002
    35  C   -0.038529
    36  C   -0.193186
    37  C    0.141351
    38  C    0.061906
    39  C    0.203335
    40  C    0.150229
    41  C    0.165403
    42  C   -0.033039
    43  C    0.066565
    44  H    0.108769
    45  H    0.077718
    46  H   -0.002650
    47  H    0.026107
    48  H    0.037327
    49  H    0.016076
    50  H    0.020208
    51  H   -0.124081
    52  H    0.108705
    53  H    0.050578
    54  H    0.010506
    55  H    0.044806
    56  H    0.130544
    57  H    0.055854
    58  H    0.041850
    59  H    0.034521
    60  H    0.014758
    61  H    0.062712
    62  H    0.047934
    63  H    0.037803
    64  H    0.005371
    65  H   -0.006988
    66  H    0.031528
    67  H    0.036721
    68  H   -0.072521
    69  H    0.059200
    70  H    0.026825
    71  H    0.050306
    72  H   -0.020972
    73  H    0.010848
    74  H    0.027235
    75  H    0.064488
    76  H    0.014429
    77  H   -0.009757
    78  H   -0.004506
    79  H   -0.031477
    80  H    0.180985
    81  H    0.231284
 Sum of Mulliken charges =  -0.00000

 Dipole moment (field-independent basis, Debye):
    X=             -1.8287    Y=             -0.9005    Z=              0.1265  Tot=              2.0423
 Quadrupole moment (field-independent basis, Debye-Ang):
   XX=           -251.2138   YY=           -231.5868   ZZ=           -254.4548
   XY=             12.9788   XZ=             13.3746   YZ=             -9.1334

 Normal termination of Gaussian 16 at Thu Jul  4 14:31:54 2019.
