 Gaussian 16, Revision A.03,
 Gaussian 16:  ES64L-G16RevA.03 25-Dec-2016

 --------------------------
 # td=(NStates=1) B3LYP/SVP
 --------------------------

 --
 TD
 --
 Symbolic Z-matrix:
 Charge =  0 Multiplicity = 1

                         Standard orientation:
 ---------------------------------------------------------------------
 Center     Atomic      Atomic             Coordinates (Angstroms)
 Number     Number       Type             X           Y           Z
 ---------------------------------------------------------------------
      1          8           0        4.348851   -4.778138   -1.853056
      2          8           0       -2.775627   -4.864298   -1.487682
      3          8           0       -6.847860   -1.619549   -1.746108
      4          8           0       -3.598932   -2.992492   -0.297986
      5          8           0       -7.481988   -0.867369    0.239143
      6          8           0        2.990829    2.494879    0.165525
      7          7           0        0.161409   -0.564168    0.420788
      8          7           0       -1.536186    1.855020    0.356395
      9          7           0        3.344432   -3.099767   -0.506525
     10          7           0        0.812520    3.004412    0.137984
     11          6           0       -0.735022   -2.426682    1.281476
     12          6           0       -1.011005   -1.128195    0.916529
     13          6           0        0.640716   -2.663245    1.134569
     14          6           0        1.211269   -1.439096    0.613578
     15          6           0       -3.795406    1.412101    0.510096
     16          6           0       -2.460550    0.960674    0.649446
     17          6           0       -2.244777   -0.389104    1.027712
     18          6           0       -3.561020    2.790323    0.053715
     19          6           0       -1.740111   -3.451576    1.833435
     20          6           0        5.558804   -2.744538   -1.209340
     21          6           0        3.678096   -1.832814   -0.106066
     22          6           0       -2.191157    3.039458    0.055878
     23          6           0        5.017043   -1.590951   -0.316402
     24          6           0       -5.108802    0.667952    0.487093
     25          6           0        2.641269   -1.158029    0.439755
     26          6           0        1.411239   -3.853486    1.749473
     27          6           0        4.375415   -3.680485   -1.255421
     28          6           0       -2.001277   -4.501854    0.851498
     29          6           0       -5.391613   -0.006447   -0.807958
     30          6           0       -4.658366    3.804098   -0.293870
     31          6           0       -1.273796    4.162329   -0.247042
     32          6           0        6.810444   -3.440680   -0.836644
     33          6           0        5.814977   -0.632103    0.336795
     34          6           0        0.073713    4.105952   -0.222499
     35          6           0        1.002031    5.223785   -0.499345
     36          6           0        2.296350    4.760501   -0.399242
     37          6           0       -2.940375   -4.036075   -0.370382
     38          6           0        5.506836    0.440654    1.274348
     39          6           0       -6.734367   -0.772237   -0.677477
     40          6           0        3.578624    5.402825   -0.667396
     41          6           0        2.109448    3.321144    0.033645
     42          6           0        0.640420    6.601123   -0.844368
     43          6           0        4.287075    5.672386    0.692603
     44          1           0        0.352259    0.228732    0.048319
     45          1           0       -3.017877   -0.974266    1.071629
     46          1           0       -2.716443   -3.075626    2.305794
     47          1           0       -1.338336   -3.883202    2.628811
     48          1           0        5.365506   -2.420319   -2.208009
     49          1           0       -5.187300    0.032685    1.313438
     50          1           0       -5.863217    1.599056    0.685720
     51          1           0        2.703224   -0.105982    0.633360
     52          1           0       -0.456225    1.872511    0.599586
     53          1           0        1.655128   -4.665671    1.055932
     54          1           0        2.516760   -3.696311    1.925569
     55          1           0        0.822100   -4.286470    2.739906
     56          1           0        2.262578   -3.419154   -0.744994
     57          1           0       -1.246944   -5.224330    0.450645
     58          1           0       -2.719122   -5.249785    1.326111
     59          1           0       -4.683688   -0.953981   -0.852230
     60          1           0       -5.264679    0.591725   -1.797889
     61          1           0       -4.761213    4.952695    0.202949
     62          1           0       -5.745141    3.554088    0.052849
     63          1           0       -4.634943    3.893825   -1.547208
     64          1           0       -1.706906    5.007317   -0.346380
     65          1           0        7.771468   -2.902253   -1.175411
     66          1           0        6.879305   -4.463208   -1.503532
     67          1           0        6.923795   -3.633442    0.208011
     68          1           0        6.883534   -0.683036    0.009227
     69          1           0        5.096504    1.260749    0.752777
     70          1           0        6.372523    0.848686    1.971118
     71          1           0        4.833106    0.145258    2.095081
     72          1           0        3.470339    6.335438   -1.358282
     73          1           0        4.091774    4.605031   -1.325920
     74          1           0       -0.119098    6.558162   -1.741802
     75          1           0        1.486537    7.252311   -1.138141
     76          1           0        0.258662    7.020959    0.075209
     77          1           0        3.745388    6.444879    1.183041
     78          1           0        5.304834    6.082286    0.518184
     79          1           0        4.275451    4.732029    1.302403
     80          1           0       -3.271384   -4.414873   -1.986456
     81          1           0       -7.732428   -2.025519   -1.577736
 ---------------------------------------------------------------------

 SCF Done:  E(RB3LYP) =  -1949.07644423     A.U. after   19 cycles

 Excitation energies and oscillator strengths:

 Excited State   1:      Singlet-A      1.8168 eV  682.44 nm  f=0.3674  <S**2>=0.000
     156 ->157         0.70815
     156 <-157        -0.12870
 This state for optimization and/or second-order correction.
 Total Energy, E(TD-HF/TD-DFT) =  -1949.00967924
 Copying the excited state density for this state as the 1-particle RhoCI density.

 The electronic state is 1-A.
 Alpha  occ. eigenvalues --  -19.20016 -19.17552 -19.16281 -19.13505 -19.11237
 Alpha  occ. eigenvalues --  -19.07928 -14.37971 -14.37753 -14.35647 -14.27012
 Alpha  occ. eigenvalues --  -10.35187 -10.32127 -10.29442 -10.24851 -10.24282
 Alpha  occ. eigenvalues --  -10.24082 -10.23830 -10.23737 -10.23094 -10.22948
 Alpha  occ. eigenvalues --  -10.22846 -10.22167 -10.21718 -10.21570 -10.21223
 Alpha  occ. eigenvalues --  -10.21174 -10.21161 -10.21151 -10.21124 -10.21062
 Alpha  occ. eigenvalues --  -10.20990 -10.20807 -10.20613 -10.20578 -10.20211
 Alpha  occ. eigenvalues --  -10.19057 -10.18809 -10.18757 -10.18632 -10.18152
 Alpha  occ. eigenvalues --  -10.17505 -10.17131 -10.17024  -1.13122  -1.10204
 Alpha  occ. eigenvalues --   -1.03786  -1.02328  -1.00976  -1.00042  -0.99747
 Alpha  occ. eigenvalues --   -0.98502  -0.96059  -0.90321  -0.83972  -0.82302
 Alpha  occ. eigenvalues --   -0.82113  -0.80915  -0.79335  -0.79031  -0.78828
 Alpha  occ. eigenvalues --   -0.77348  -0.76864  -0.75474  -0.74263  -0.72764
 Alpha  occ. eigenvalues --   -0.70649  -0.70276  -0.69813  -0.67893  -0.67644
 Alpha  occ. eigenvalues --   -0.66911  -0.65977  -0.64581  -0.62283  -0.62107
 Alpha  occ. eigenvalues --   -0.61021  -0.59279  -0.58823  -0.58378  -0.58161
 Alpha  occ. eigenvalues --   -0.56474  -0.55902  -0.54872  -0.53569  -0.53226
 Alpha  occ. eigenvalues --   -0.52465  -0.51765  -0.51672  -0.50865  -0.49914
 Alpha  occ. eigenvalues --   -0.49383  -0.49199  -0.48890  -0.48594  -0.48216
 Alpha  occ. eigenvalues --   -0.47517  -0.46863  -0.45935  -0.45773  -0.45101
 Alpha  occ. eigenvalues --   -0.44846  -0.44704  -0.44367  -0.44216  -0.43838
 Alpha  occ. eigenvalues --   -0.43708  -0.43282  -0.42825  -0.42690  -0.42456
 Alpha  occ. eigenvalues --   -0.42180  -0.42014  -0.41942  -0.41508  -0.41226
 Alpha  occ. eigenvalues --   -0.40865  -0.40542  -0.40494  -0.40173  -0.39881
 Alpha  occ. eigenvalues --   -0.39792  -0.39466  -0.38838  -0.38570  -0.38108
 Alpha  occ. eigenvalues --   -0.37859  -0.37415  -0.37251  -0.36910  -0.36721
 Alpha  occ. eigenvalues --   -0.36255  -0.35800  -0.35576  -0.35279  -0.34868
 Alpha  occ. eigenvalues --   -0.34483  -0.33895  -0.33699  -0.33668  -0.33119
 Alpha  occ. eigenvalues --   -0.32603  -0.32461  -0.32181  -0.30525  -0.29458
 Alpha  occ. eigenvalues --   -0.28833  -0.27142  -0.26493  -0.26081  -0.25706
 Alpha  occ. eigenvalues --   -0.25104  -0.24929  -0.22686  -0.22178  -0.20927
 Alpha  occ. eigenvalues --   -0.18124
 Alpha virt. eigenvalues --   -0.11059  -0.05886  -0.04139  -0.02986  -0.00238
 Alpha virt. eigenvalues --    0.00207   0.02127   0.02707   0.03292   0.03657
 Alpha virt. eigenvalues --    0.04181   0.04948   0.05438   0.05778   0.05974

 Mulliken charges:
               1
     1  O   -0.246982
     2  O   -0.098448
     3  O   -0.208039
     4  O   -0.227738
     5  O   -0.200722
     6  O   -0.223748
     7  N    0.012989
     8  N   -0.089428
     9  N   -0.184474
    10  N   -0.282755
    11  C   -0.107315
    12  C    0.053522
    13  C   -0.144645
    14  C   -0.013403
    15  C   -0.109194
    16  C    0.059296
    17  C    0.047539
    18  C   -0.088136
    19  C    0.243000
    20  C    0.048850
    21  C    0.145795
    22  C    0.090485
    23  C   -0.044830
    24  C    0.119505
    25  C   -0.123975
    26  C    0.044200
    27  C    0.080472
    28  C   -0.039641
    29  C   -0.069485
    30  C   -0.079597
    31  C   -0.065364
    32  C    0.032202
    33  C   -0.120167
    34  C    0.157480
    35  C   -0.123869
    36  C   -0.176809
    37  C    0.145324
    38  C    0.073092
    39  C    0.138872
    40  C    0.022882
    41  C    0.096463
    42  C    0.097067
    43  C    0.027722
    44  H    0.051896
    45  H   -0.085521
    46  H    0.022981
    47  H   -0.058217
    48  H    0.027736
    49  H    0.004711
    50  H    0.034612
    51  H    0.001803
    52  H    0.182581
    53  H    0.008185
    54  H    0.028024
    55  H    0.051194
    56  H    0.196223
    57  H    0.043486
    58  H    0.035969
    59  H    0.084652
    60  H    0.065070
    61  H    0.052134
    62  H    0.032517
    63  H    0.053897
    64  H   -0.126173
    65  H    0.024850
    66  H    0.056921
    67  H    0.019391
    68  H    0.006688
    69  H    0.065349
    70  H    0.019073
    71  H    0.025303
    72  H    0.008149
    73  H    0.024582
    74  H    0.034730
    75  H    0.004639
    76  H    0.020423
    77  H   -0.003860
    78  H    0.009878
    79  H    0.040853
    80  H    0.093225
    81  H    0.174056
 Sum of Mulliken charges =  -0.00000

 Dipole moment (field-independent basis, Debye):
    X=             -2.3521    Y=             -0.9014    Z=              0.4297  Tot=              2.5553
 Quadrupole moment (field-independent basis, Debye-Ang):
   XX=           -246.4981   YY=           -248.4883   ZZ=           -253.4641
   XY=             11.6615   XZ=             13.3993   YZ=            -13.0270

 Normal termination of Gaussian 16 at Mon Jul  1 16:50:14 2019.
