 Gaussian 16, Revision A.03,
 Gaussian 16:  ES64L-G16RevA.03 25-Dec-2016

 --------------------------
 # td=(NStates=1) B3LYP/SVP
 --------------------------

 --
 TD
 --
 Symbolic Z-matrix:
 Charge =  0 Multiplicity = 1

                         Standard orientation:
 ---------------------------------------------------------------------
 Center     Atomic      Atomic             Coordinates (Angstroms)
 Number     Number       Type             X           Y           Z
 ---------------------------------------------------------------------
      1          8           0       -4.510800   -4.778529    1.747983
      2          8           0        3.067498   -4.792269    1.393246
      3          8           0        6.783503   -1.529508    1.810813
      4          8           0        3.704348   -3.091987    0.175845
      5          8           0        7.502363   -0.791466   -0.214039
      6          8           0       -2.986551    2.593425   -0.299548
      7          7           0       -0.335312   -0.536363   -0.689371
      8          7           0        1.597808    1.780301   -0.457477
      9          7           0       -3.440302   -3.213418    0.631816
     10          7           0       -0.702972    2.966836   -0.244724
     11          6           0        0.693653   -2.540887   -1.276240
     12          6           0        0.890773   -1.122006   -1.033756
     13          6           0       -0.702245   -2.722727   -1.206801
     14          6           0       -1.325924   -1.449130   -0.853781
     15          6           0        3.793982    1.507180   -0.294518
     16          6           0        2.479440    0.831538   -0.590630
     17          6           0        2.222182   -0.485807   -0.912856
     18          6           0        3.548959    2.752133    0.019892
     19          6           0        1.744134   -3.517727   -1.813421
     20          6           0       -5.624195   -2.639764    1.201639
     21          6           0       -3.696922   -1.892477    0.069290
     22          6           0        2.122834    2.926587   -0.004351
     23          6           0       -5.014366   -1.484729    0.325521
     24          6           0        5.093673    0.770936   -0.464952
     25          6           0       -2.665493   -1.153029   -0.564605
     26          6           0       -1.528816   -3.962842   -1.666871
     27          6           0       -4.521142   -3.697379    1.192832
     28          6           0        2.032556   -4.538189   -0.755982
     29          6           0        5.296407   -0.229588    0.831978
     30          6           0        4.720235    3.745831    0.313845
     31          6           0        1.413345    4.026624    0.226844
     32          6           0       -6.927505   -3.268921    1.006432
     33          6           0       -5.802080   -0.463074   -0.086394
     34          6           0       -0.044281    4.107944    0.221271
     35          6           0       -0.988036    5.233165    0.511409
     36          6           0       -2.248111    4.759619    0.432642
     37          6           0        2.863754   -4.000983    0.342040
     38          6           0       -5.435009    0.613865   -1.078591
     39          6           0        6.726149   -0.835591    0.701112
     40          6           0       -3.539219    5.491999    0.600788
     41          6           0       -2.079055    3.252354   -0.069122
     42          6           0       -0.509820    6.586962    0.901538
     43          6           0       -4.101999    5.779957   -0.821466
     44          1           0       -0.482834    0.352956   -0.395954
     45          1           0        2.845082   -1.465554   -0.868189
     46          1           0        2.870887   -3.099458   -2.081227
     47          1           0        1.539035   -3.706400   -2.794223
     48          1           0       -5.513633   -2.421785    2.257181
     49          1           0        5.320935    0.355912   -1.521633
     50          1           0        6.008761    1.562607   -0.444941
     51          1           0       -2.895231   -0.143904   -0.569016
     52          1           0        0.535561    2.001519   -0.640474
     53          1           0       -1.409143   -4.760872   -0.881364
     54          1           0       -2.602777   -3.653854   -1.824212
     55          1           0       -1.243816   -4.578908   -2.700705
     56          1           0       -2.397558   -3.628474    0.689237
     57          1           0        1.343101   -5.264865   -0.403385
     58          1           0        2.643943   -5.439049   -1.216701
     59          1           0        4.399211   -0.862474    1.124762
     60          1           0        5.540299    0.451733    1.694509
     61          1           0        4.536913    4.574142   -0.495832
     62          1           0        5.633860    3.192440    0.455557
     63          1           0        4.519038    4.243538    1.372324
     64          1           0        1.804253    5.090807    0.481649
     65          1           0       -8.013241   -2.708389    1.303073
     66          1           0       -6.719058   -4.111073    1.707839
     67          1           0       -6.958420   -3.780343   -0.125938
     68          1           0       -6.815834   -0.505757    0.289868
     69          1           0       -5.086813    1.641805   -0.647357
     70          1           0       -6.285827    0.813054   -1.651140
     71          1           0       -4.642859    0.210346   -1.631225
     72          1           0       -3.415859    6.360162    1.219403
     73          1           0       -4.346401    4.834917    1.176923
     74          1           0        0.312834    6.631403    1.717769
     75          1           0       -1.205229    7.393284    1.030999
     76          1           0        0.151120    7.131841    0.127079
     77          1           0       -3.549675    6.459779   -1.489149
     78          1           0       -5.081399    6.085148   -0.592736
     79          1           0       -4.113728    4.854642   -1.277223
     80          1           0        3.554713   -4.228389    1.829030
     81          1           0        7.575197   -2.032344    1.750889
 ---------------------------------------------------------------------

 SCF Done:  E(RB3LYP) =  -1949.06038394     A.U. after   16 cycles

 Excitation energies and oscillator strengths:

 Excited State   1:      Singlet-A      1.8225 eV  680.30 nm  f=0.3799  <S**2>=0.000
     156 ->157         0.71057
     156 <-157        -0.11984
 This state for optimization and/or second-order correction.
 Total Energy, E(TD-HF/TD-DFT) =  -1948.99340863
 Copying the excited state density for this state as the 1-particle RhoCI density.

 The electronic state is 1-A.
 Alpha  occ. eigenvalues --  -19.19799 -19.19060 -19.14426 -19.13364 -19.11685
 Alpha  occ. eigenvalues --  -19.09216 -14.37570 -14.37170 -14.35110 -14.30081
 Alpha  occ. eigenvalues --  -10.34340 -10.32143 -10.27537 -10.27371 -10.24449
 Alpha  occ. eigenvalues --  -10.24108 -10.23287 -10.23256 -10.23121 -10.22993
 Alpha  occ. eigenvalues --  -10.22858 -10.21933 -10.21523 -10.21112 -10.21102
 Alpha  occ. eigenvalues --  -10.20918 -10.20533 -10.20407 -10.20378 -10.20363
 Alpha  occ. eigenvalues --  -10.20290 -10.20176 -10.20101 -10.19991 -10.19663
 Alpha  occ. eigenvalues --  -10.19568 -10.19331 -10.19239 -10.19218 -10.18928
 Alpha  occ. eigenvalues --  -10.18657 -10.17289 -10.17232  -1.15076  -1.12128
 Alpha  occ. eigenvalues --   -1.06476  -1.03254  -1.02362  -1.01561  -1.00161
 Alpha  occ. eigenvalues --   -0.98172  -0.93965  -0.90938  -0.83185  -0.81681
 Alpha  occ. eigenvalues --   -0.81494  -0.81035  -0.79930  -0.79074  -0.78595
 Alpha  occ. eigenvalues --   -0.76546  -0.75798  -0.75662  -0.74194  -0.71897
 Alpha  occ. eigenvalues --   -0.70396  -0.69786  -0.69381  -0.68991  -0.67714
 Alpha  occ. eigenvalues --   -0.67225  -0.65274  -0.63935  -0.62804  -0.62292
 Alpha  occ. eigenvalues --   -0.61467  -0.59917  -0.58821  -0.58208  -0.56991
 Alpha  occ. eigenvalues --   -0.55655  -0.55021  -0.54726  -0.53696  -0.53394
 Alpha  occ. eigenvalues --   -0.52901  -0.52375  -0.51709  -0.51385  -0.49693
 Alpha  occ. eigenvalues --   -0.49365  -0.49312  -0.48754  -0.48418  -0.47700
 Alpha  occ. eigenvalues --   -0.47390  -0.47026  -0.46322  -0.46023  -0.45814
 Alpha  occ. eigenvalues --   -0.45693  -0.44989  -0.44667  -0.44488  -0.43914
 Alpha  occ. eigenvalues --   -0.43778  -0.43477  -0.43045  -0.42578  -0.42477
 Alpha  occ. eigenvalues --   -0.41801  -0.41356  -0.41131  -0.40907  -0.40417
 Alpha  occ. eigenvalues --   -0.40233  -0.40063  -0.39982  -0.39602  -0.39218
 Alpha  occ. eigenvalues --   -0.39075  -0.38875  -0.38720  -0.38598  -0.37914
 Alpha  occ. eigenvalues --   -0.37730  -0.37598  -0.36978  -0.36504  -0.36286
 Alpha  occ. eigenvalues --   -0.35924  -0.35629  -0.35146  -0.34879  -0.34666
 Alpha  occ. eigenvalues --   -0.34142  -0.34084  -0.33648  -0.33586  -0.33209
 Alpha  occ. eigenvalues --   -0.33125  -0.32242  -0.31706  -0.30026  -0.29800
 Alpha  occ. eigenvalues --   -0.29634  -0.28631  -0.26528  -0.25920  -0.25480
 Alpha  occ. eigenvalues --   -0.25443  -0.24694  -0.24586  -0.23479  -0.21464
 Alpha  occ. eigenvalues --   -0.17018
 Alpha virt. eigenvalues --   -0.09899  -0.05952  -0.04736  -0.03204   0.00845
 Alpha virt. eigenvalues --    0.01575   0.02708   0.02969   0.03853   0.04539
 Alpha virt. eigenvalues --    0.04705   0.04813   0.05556   0.05944   0.06557

 Mulliken charges:
               1
     1  O   -0.231538
     2  O   -0.067097
     3  O   -0.121997
     4  O   -0.282784
     5  O   -0.209707
     6  O   -0.116436
     7  N   -0.005793
     8  N   -0.037879
     9  N   -0.118907
    10  N   -0.377001
    11  C   -0.097687
    12  C   -0.034924
    13  C   -0.161826
    14  C    0.073466
    15  C   -0.037011
    16  C    0.106244
    17  C   -0.098961
    18  C   -0.129027
    19  C    0.094148
    20  C   -0.025601
    21  C    0.060013
    22  C    0.137423
    23  C    0.047588
    24  C   -0.010082
    25  C   -0.080437
    26  C   -0.010604
    27  C    0.040926
    28  C    0.028946
    29  C   -0.044949
    30  C    0.081238
    31  C   -0.169392
    32  C   -0.047988
    33  C   -0.156469
    34  C    0.026398
    35  C   -0.002736
    36  C   -0.223237
    37  C    0.141127
    38  C    0.108779
    39  C    0.138280
    40  C    0.030342
    41  C    0.151718
    42  C    0.049147
    43  C    0.070195
    44  H    0.082055
    45  H    0.065442
    46  H    0.047078
    47  H   -0.005191
    48  H    0.032962
    49  H    0.050897
    50  H    0.016522
    51  H   -0.030817
    52  H    0.178375
    53  H    0.029117
    54  H    0.052494
    55  H    0.039378
    56  H    0.182257
    57  H    0.003889
    58  H    0.059668
    59  H    0.080364
    60  H    0.026117
    61  H    0.051457
    62  H    0.020946
    63  H    0.024593
    64  H   -0.008044
    65  H    0.048459
    66  H    0.045465
    67  H    0.029800
    68  H   -0.017104
    69  H    0.075179
    70  H   -0.007519
    71  H    0.001334
    72  H   -0.002915
    73  H    0.024502
    74  H    0.029363
    75  H    0.006198
    76  H    0.010163
    77  H    0.018306
    78  H   -0.000527
    79  H    0.000318
    80  H    0.108391
    81  H    0.145126
 Sum of Mulliken charges =  -0.00000

 Dipole moment (field-independent basis, Debye):
    X=              2.7545    Y=              1.6555    Z=              0.7586  Tot=              3.3020
 Quadrupole moment (field-independent basis, Debye-Ang):
   XX=           -258.0156   YY=           -237.8485   ZZ=           -254.8382
   XY=            -25.2204   XZ=             17.1910   YZ=             13.6135

 Normal termination of Gaussian 16 at Fri Jun 28 16:54:27 2019.
