 Gaussian 16, Revision A.03,
 Gaussian 16:  ES64L-G16RevA.03 25-Dec-2016

 --------------------------
 # td=(NStates=1) B3LYP/SVP
 --------------------------

 --
 TD
 --
 Symbolic Z-matrix:
 Charge =  0 Multiplicity = 1

                         Standard orientation:
 ---------------------------------------------------------------------
 Center     Atomic      Atomic             Coordinates (Angstroms)
 Number     Number       Type             X           Y           Z
 ---------------------------------------------------------------------
      1          8           0        4.503604   -4.842233   -1.867881
      2          8           0       -2.602282   -4.794030   -1.261445
      3          8           0       -7.088044   -1.734799   -1.761866
      4          8           0       -3.681602   -3.309094    0.042584
      5          8           0       -7.746815   -0.488742    0.046150
      6          8           0        3.094202    2.592753    0.440453
      7          7           0        0.286669   -0.588669    0.530358
      8          7           0       -1.661910    1.788699    0.212379
      9          7           0        3.347832   -3.162684   -0.560614
     10          7           0        0.761485    2.979099    0.119280
     11          6           0       -0.607806   -2.487526    1.428993
     12          6           0       -0.916520   -1.073018    0.975701
     13          6           0        0.752524   -2.593398    1.330555
     14          6           0        1.300629   -1.455143    0.716798
     15          6           0       -3.838001    1.434286    0.209953
     16          6           0       -2.516295    0.842036    0.457595
     17          6           0       -2.222781   -0.438429    0.820239
     18          6           0       -3.597906    2.699069   -0.181117
     19          6           0       -1.541235   -3.556843    1.993936
     20          6           0        5.517101   -2.644885   -1.486818
     21          6           0        3.645000   -1.862777   -0.131483
     22          6           0       -2.175537    2.956160   -0.077903
     23          6           0        5.057768   -1.451618   -0.499828
     24          6           0       -5.138563    0.668266    0.461094
     25          6           0        2.706427   -1.064473    0.463649
     26          6           0        1.582449   -3.739905    1.814917
     27          6           0        4.447097   -3.661718   -1.301759
     28          6           0       -1.878841   -4.604597    1.072474
     29          6           0       -5.445094   -0.275156   -0.688616
     30          6           0       -4.628995    3.698149   -0.637157
     31          6           0       -1.368054    4.000795   -0.344302
     32          6           0        6.954511   -3.050863   -1.161435
     33          6           0        5.822738   -0.478119   -0.045259
     34          6           0        0.072272    3.960529   -0.252465
     35          6           0        0.908307    5.268442   -0.433648
     36          6           0        2.196332    4.799888   -0.335980
     37          6           0       -2.880736   -4.232647   -0.115932
     38          6           0        5.489862    0.444439    1.069370
     39          6           0       -6.950573   -0.796684   -0.766425
     40          6           0        3.565360    5.516608   -0.380253
     41          6           0        2.109359    3.320444    0.121397
     42          6           0        0.447466    6.626996   -0.787195
     43          6           0        3.978392    5.847409    1.129091
     44          1           0        0.352852    0.459353    0.410859
     45          1           0       -3.013445   -1.087016    1.097980
     46          1           0       -2.365480   -3.005741    2.138080
     47          1           0       -1.220112   -4.005055    2.980950
     48          1           0        5.570999   -2.687670   -2.738890
     49          1           0       -4.898832   -0.116181    1.399932
     50          1           0       -5.998521    1.313783    0.851409
     51          1           0        2.915193    0.017623    0.596554
     52          1           0       -0.595251    1.948398    0.461276
     53          1           0        1.803681   -4.499788    1.212587
     54          1           0        2.722755   -3.650651    1.932795
     55          1           0        1.046116   -4.457720    2.542880
     56          1           0        2.527059   -3.729947   -0.380938
     57          1           0       -0.764609   -4.917249    0.668247
     58          1           0       -2.518607   -5.416222    1.706854
     59          1           0       -4.934978   -1.112713   -0.777764
     60          1           0       -5.392712    0.432549   -1.606033
     61          1           0       -4.697249    4.550231    0.237571
     62          1           0       -5.587731    3.370019   -0.685995
     63          1           0       -4.297944    4.033974   -1.514893
     64          1           0       -1.866482    4.993893   -0.659693
     65          1           0        7.756040   -2.343826   -1.626304
     66          1           0        7.228439   -4.075660   -1.708479
     67          1           0        7.250002   -3.204289   -0.102994
     68          1           0        7.026284   -0.519571   -0.434511
     69          1           0        5.200512    1.487452    0.641136
     70          1           0        6.395849    0.655276    1.704805
     71          1           0        4.572954   -0.114659    1.554763
     72          1           0        3.559845    6.433030   -0.949768
     73          1           0        4.462271    4.988087   -0.658041
     74          1           0       -0.084604    6.533127   -1.787913
     75          1           0        1.251886    7.482337   -0.947311
     76          1           0       -0.359991    7.111233   -0.146347
     77          1           0        3.168006    6.359279    1.423299
     78          1           0        5.047376    6.400770    1.187149
     79          1           0        4.102297    4.834138    1.801612
     80          1           0       -3.312632   -4.512718   -1.903473
     81          1           0       -8.102203   -2.148131   -1.764298
 ---------------------------------------------------------------------

 SCF Done:  E(RB3LYP) =  -1949.05246712     A.U. after   16 cycles

 Excitation energies and oscillator strengths:

 Excited State   1:      Singlet-A      1.9310 eV  642.08 nm  f=0.3784  <S**2>=0.000
     156 ->157         0.70808
     156 <-157        -0.11779
 This state for optimization and/or second-order correction.
 Total Energy, E(TD-HF/TD-DFT) =  -1948.98150509
 Copying the excited state density for this state as the 1-particle RhoCI density.

 The electronic state is 1-A.
 Alpha  occ. eigenvalues --  -19.21278 -19.18993 -19.14018 -19.13142 -19.11555
 Alpha  occ. eigenvalues --  -19.09994 -14.38514 -14.38000 -14.35975 -14.30903
 Alpha  occ. eigenvalues --  -10.33936 -10.31959 -10.29483 -10.28274 -10.24997
 Alpha  occ. eigenvalues --  -10.24249 -10.23684 -10.23269 -10.23217 -10.23213
 Alpha  occ. eigenvalues --  -10.22706 -10.22488 -10.21993 -10.21416 -10.20960
 Alpha  occ. eigenvalues --  -10.20899 -10.20862 -10.20807 -10.20301 -10.20094
 Alpha  occ. eigenvalues --  -10.20053 -10.20002 -10.19974 -10.19823 -10.19797
 Alpha  occ. eigenvalues --  -10.19505 -10.19338 -10.19302 -10.19218 -10.19182
 Alpha  occ. eigenvalues --  -10.19064 -10.19050 -10.18782  -1.12439  -1.08647
 Alpha  occ. eigenvalues --   -1.01781  -1.01636  -1.00821  -1.00386  -0.99376
 Alpha  occ. eigenvalues --   -0.98784  -0.94533  -0.93152  -0.82982  -0.82559
 Alpha  occ. eigenvalues --   -0.81716  -0.81274  -0.79704  -0.79388  -0.77518
 Alpha  occ. eigenvalues --   -0.77344  -0.76283  -0.74889  -0.74257  -0.72319
 Alpha  occ. eigenvalues --   -0.71733  -0.69999  -0.68925  -0.68365  -0.67754
 Alpha  occ. eigenvalues --   -0.66734  -0.65841  -0.64888  -0.62114  -0.61534
 Alpha  occ. eigenvalues --   -0.60821  -0.59698  -0.58912  -0.58234  -0.57010
 Alpha  occ. eigenvalues --   -0.56425  -0.55572  -0.54868  -0.54646  -0.53476
 Alpha  occ. eigenvalues --   -0.52896  -0.52001  -0.50959  -0.50496  -0.49615
 Alpha  occ. eigenvalues --   -0.49239  -0.48906  -0.48602  -0.47921  -0.47672
 Alpha  occ. eigenvalues --   -0.47176  -0.46458  -0.46264  -0.45908  -0.45475
 Alpha  occ. eigenvalues --   -0.45200  -0.44973  -0.44078  -0.43781  -0.43693
 Alpha  occ. eigenvalues --   -0.43504  -0.43198  -0.42977  -0.42573  -0.42402
 Alpha  occ. eigenvalues --   -0.42202  -0.41851  -0.41633  -0.40862  -0.40705
 Alpha  occ. eigenvalues --   -0.40358  -0.40235  -0.40202  -0.39918  -0.39476
 Alpha  occ. eigenvalues --   -0.39355  -0.38907  -0.38798  -0.38360  -0.38142
 Alpha  occ. eigenvalues --   -0.37952  -0.37553  -0.37153  -0.37025  -0.36180
 Alpha  occ. eigenvalues --   -0.35793  -0.35358  -0.34875  -0.34408  -0.34247
 Alpha  occ. eigenvalues --   -0.34196  -0.33651  -0.33522  -0.33242  -0.32949
 Alpha  occ. eigenvalues --   -0.32532  -0.32410  -0.31236  -0.30222  -0.29060
 Alpha  occ. eigenvalues --   -0.28934  -0.27916  -0.25970  -0.25942  -0.25608
 Alpha  occ. eigenvalues --   -0.25578  -0.25113  -0.24592  -0.24198  -0.22281
 Alpha  occ. eigenvalues --   -0.17739
 Alpha virt. eigenvalues --   -0.10196  -0.05609  -0.03214  -0.02023  -0.01734
 Alpha virt. eigenvalues --    0.00808   0.01481   0.01940   0.02968   0.03352
 Alpha virt. eigenvalues --    0.03993   0.04156   0.04393   0.04883   0.05050

 Mulliken charges:
               1
     1  O   -0.310862
     2  O   -0.131625
     3  O   -0.271980
     4  O   -0.249774
     5  O   -0.182910
     6  O   -0.243469
     7  N   -0.041776
     8  N   -0.025808
     9  N   -0.128311
    10  N   -0.225097
    11  C   -0.161587
    12  C   -0.033106
    13  C   -0.097894
    14  C    0.032919
    15  C   -0.046348
    16  C    0.057742
    17  C   -0.017342
    18  C   -0.167870
    19  C    0.210775
    20  C   -0.073047
    21  C    0.099430
    22  C    0.063265
    23  C    0.039899
    24  C    0.023602
    25  C   -0.118264
    26  C    0.093747
    27  C    0.169910
    28  C   -0.062422
    29  C    0.044006
    30  C    0.177280
    31  C   -0.163751
    32  C   -0.035407
    33  C   -0.187225
    34  C    0.041231
    35  C   -0.079833
    36  C   -0.181518
    37  C    0.127782
    38  C    0.010579
    39  C    0.125439
    40  C    0.106565
    41  C    0.183019
    42  C    0.023915
    43  C   -0.067426
    44  H    0.146588
    45  H   -0.024046
    46  H   -0.050978
    47  H    0.027384
    48  H    0.084476
    49  H    0.033762
    50  H    0.044840
    51  H    0.031569
    52  H    0.186932
    53  H   -0.034737
    54  H    0.024971
    55  H    0.011694
    56  H    0.140524
    57  H    0.051462
    58  H    0.054715
    59  H    0.001224
    60  H    0.038336
    61  H    0.033975
    62  H   -0.020648
    63  H   -0.003542
    64  H   -0.007739
    65  H    0.033772
    66  H    0.038878
    67  H    0.023641
    68  H    0.031108
    69  H    0.080523
    70  H    0.020970
    71  H    0.053388
    72  H   -0.005694
    73  H    0.006365
    74  H    0.033168
    75  H    0.042307
    76  H    0.032905
    77  H   -0.006701
    78  H    0.031718
    79  H    0.052704
    80  H    0.202211
    81  H    0.231523
 Sum of Mulliken charges =  -0.00000

 Dipole moment (field-independent basis, Debye):
    X=             -3.8092    Y=              1.2052    Z=             -0.6496  Tot=              4.0478
 Quadrupole moment (field-independent basis, Debye-Ang):
   XX=           -247.7049   YY=           -239.9962   ZZ=           -256.4928
   XY=             22.1598   XZ=             18.2140   YZ=            -14.3240

 Normal termination of Gaussian 16 at Wed Jul  3 08:08:50 2019.
