 Gaussian 16, Revision A.03,
 Gaussian 16:  ES64L-G16RevA.03 25-Dec-2016

 --------------------------
 # td=(NStates=1) B3LYP/SVP
 --------------------------

 --
 TD
 --
 Symbolic Z-matrix:
 Charge =  0 Multiplicity = 1

                         Standard orientation:
 ---------------------------------------------------------------------
 Center     Atomic      Atomic             Coordinates (Angstroms)
 Number     Number       Type             X           Y           Z
 ---------------------------------------------------------------------
      1          8           0       -4.389347   -4.757255    1.990777
      2          8           0        3.431751   -4.542635    1.298398
      3          8           0        7.065479   -1.336876    1.872819
      4          8           0        4.091666   -3.039704   -0.177444
      5          8           0        7.502462   -0.379039   -0.108509
      6          8           0       -3.211874    2.436184   -0.199836
      7          7           0       -0.333114   -0.646859   -0.666207
      8          7           0        1.301290    1.886673   -0.317647
      9          7           0       -3.283987   -3.256793    0.493336
     10          7           0       -0.904688    2.947214   -0.040250
     11          6           0        0.733504   -2.399926   -1.427108
     12          6           0        0.932445   -1.178004   -1.038039
     13          6           0       -0.626585   -2.719559   -1.233389
     14          6           0       -1.287454   -1.647087   -0.736018
     15          6           0        3.633557    1.560042   -0.353636
     16          6           0        2.363019    0.845272   -0.498888
     17          6           0        2.237348   -0.507465   -0.789743
     18          6           0        3.345909    2.821353   -0.048696
     19          6           0        1.767062   -3.386119   -1.914854
     20          6           0       -5.427221   -2.688537    1.435772
     21          6           0       -3.527336   -2.062097    0.060122
     22          6           0        1.910394    2.920084   -0.045984
     23          6           0       -4.982609   -1.656323    0.449804
     24          6           0        4.962850    0.833974   -0.352461
     25          6           0       -2.599300   -1.207867   -0.444607
     26          6           0       -1.429502   -3.922207   -1.805813
     27          6           0       -4.333789   -3.664109    1.436416
     28          6           0        2.268636   -4.414342   -0.908398
     29          6           0        5.444552    0.167106    1.054978
     30          6           0        4.292888    3.867748    0.296529
     31          6           0        1.182904    4.054006    0.217847
     32          6           0       -6.689295   -3.506084    1.257989
     33          6           0       -5.758056   -0.849975   -0.215157
     34          6           0       -0.185131    4.053511    0.192972
     35          6           0       -1.187186    5.194288    0.453207
     36          6           0       -2.306834    4.661039    0.319451
     37          6           0        3.366770   -3.905536    0.109693
     38          6           0       -5.443999    0.273590   -1.189911
     39          6           0        6.714446   -0.444684    0.788982
     40          6           0       -3.747474    5.384751    0.385464
     41          6           0       -2.222845    3.216393   -0.009773
     42          6           0       -0.669345    6.579318    0.869463
     43          6           0       -4.399912    5.366064   -0.993092
     44          1           0       -0.590296    0.142772   -0.093737
     45          1           0        3.231077   -1.042615   -1.286214
     46          1           0        2.645502   -2.754225   -2.240549
     47          1           0        1.274897   -4.055824   -2.635981
     48          1           0       -5.402444   -2.224818    2.349387
     49          1           0        5.145813    0.124022   -1.250906
     50          1           0        5.662364    1.425914   -0.626947
     51          1           0       -3.012739   -0.290805   -0.615402
     52          1           0        0.328514    1.922640   -0.079090
     53          1           0       -1.104749   -4.868874   -1.319958
     54          1           0       -2.511696   -3.639681   -1.787082
     55          1           0       -1.207747   -4.270232   -3.033826
     56          1           0       -2.415938   -3.844600    0.445873
     57          1           0        1.551895   -5.074807   -0.495445
     58          1           0        2.921723   -5.295041   -1.363167
     59          1           0        4.620659   -0.563607    1.429791
     60          1           0        5.603574    0.888113    1.975991
     61          1           0        4.223248    4.824620   -0.322183
     62          1           0        5.349807    3.390998    0.125892
     63          1           0        4.215145    4.369322    1.211816
     64          1           0        1.626437    4.959217    0.408606
     65          1           0       -7.577769   -2.887519    1.132836
     66          1           0       -7.013075   -4.150581    2.189380
     67          1           0       -6.798494   -4.233642    0.344318
     68          1           0       -6.685880   -0.834086    0.277256
     69          1           0       -4.960671    1.314757   -0.853969
     70          1           0       -6.328186    0.641789   -1.741160
     71          1           0       -4.603044   -0.050510   -1.864639
     72          1           0       -3.469977    6.295619    0.745264
     73          1           0       -4.449382    4.900603    1.184673
     74          1           0       -0.420831    6.628270    1.896584
     75          1           0       -1.624651    7.399564    0.750742
     76          1           0        0.051477    7.109597    0.125297
     77          1           0       -3.728563    5.786149   -1.862821
     78          1           0       -5.428639    5.946449   -0.800018
     79          1           0       -4.730574    4.408222   -1.364539
     80          1           0        4.211989   -4.087453    1.788038
     81          1           0        8.029167   -1.698449    1.622877
 ---------------------------------------------------------------------

 SCF Done:  E(RB3LYP) =  -1949.04647930     A.U. after   16 cycles

 Excitation energies and oscillator strengths:

 Excited State   1:      Singlet-A      2.0368 eV  608.73 nm  f=0.3206  <S**2>=0.000
     156 ->157         0.70523
 This state for optimization and/or second-order correction.
 Total Energy, E(TD-HF/TD-DFT) =  -1948.97162939
 Copying the excited state density for this state as the 1-particle RhoCI density.

 The electronic state is 1-A.
 Alpha  occ. eigenvalues --  -19.19187 -19.16555 -19.14277 -19.13854 -19.11837
 Alpha  occ. eigenvalues --  -19.09702 -14.37309 -14.36014 -14.35808 -14.28491
 Alpha  occ. eigenvalues --  -10.32744 -10.32696 -10.29662 -10.26044 -10.24512
 Alpha  occ. eigenvalues --  -10.23736 -10.23506 -10.23357 -10.23293 -10.22591
 Alpha  occ. eigenvalues --  -10.22199 -10.22001 -10.21769 -10.21455 -10.21346
 Alpha  occ. eigenvalues --  -10.21307 -10.21217 -10.21028 -10.20698 -10.20184
 Alpha  occ. eigenvalues --  -10.20177 -10.20020 -10.19717 -10.18943 -10.18692
 Alpha  occ. eigenvalues --  -10.18643 -10.18468 -10.18272 -10.18207 -10.18149
 Alpha  occ. eigenvalues --  -10.17388 -10.17342 -10.16581  -1.11536  -1.08361
 Alpha  occ. eigenvalues --   -1.03500  -1.02413  -1.01609  -0.98710  -0.98195
 Alpha  occ. eigenvalues --   -0.97572  -0.96504  -0.92489  -0.84763  -0.83055
 Alpha  occ. eigenvalues --   -0.82315  -0.80785  -0.79803  -0.79219  -0.78653
 Alpha  occ. eigenvalues --   -0.77135  -0.76780  -0.75144  -0.73621  -0.72865
 Alpha  occ. eigenvalues --   -0.71347  -0.70422  -0.68646  -0.68527  -0.67667
 Alpha  occ. eigenvalues --   -0.66996  -0.65458  -0.64996  -0.62632  -0.61030
 Alpha  occ. eigenvalues --   -0.60247  -0.59477  -0.58549  -0.58466  -0.56947
 Alpha  occ. eigenvalues --   -0.56670  -0.56097  -0.54995  -0.53948  -0.53602
 Alpha  occ. eigenvalues --   -0.52770  -0.51873  -0.50977  -0.50512  -0.50241
 Alpha  occ. eigenvalues --   -0.49708  -0.49166  -0.48489  -0.48163  -0.47999
 Alpha  occ. eigenvalues --   -0.47705  -0.46746  -0.46394  -0.46086  -0.45623
 Alpha  occ. eigenvalues --   -0.45405  -0.44482  -0.44306  -0.43839  -0.43713
 Alpha  occ. eigenvalues --   -0.43318  -0.42839  -0.42509  -0.42398  -0.42131
 Alpha  occ. eigenvalues --   -0.41923  -0.41447  -0.41384  -0.40964  -0.40622
 Alpha  occ. eigenvalues --   -0.40537  -0.40291  -0.40212  -0.39835  -0.39592
 Alpha  occ. eigenvalues --   -0.39456  -0.39114  -0.38763  -0.38321  -0.38220
 Alpha  occ. eigenvalues --   -0.38071  -0.37612  -0.37305  -0.36967  -0.36861
 Alpha  occ. eigenvalues --   -0.35940  -0.35594  -0.35460  -0.35229  -0.35066
 Alpha  occ. eigenvalues --   -0.34108  -0.33867  -0.33760  -0.33433  -0.32840
 Alpha  occ. eigenvalues --   -0.32418  -0.31682  -0.30680  -0.30337  -0.29306
 Alpha  occ. eigenvalues --   -0.29210  -0.27632  -0.27037  -0.26832  -0.25986
 Alpha  occ. eigenvalues --   -0.25687  -0.25010  -0.24291  -0.23701  -0.21725
 Alpha  occ. eigenvalues --   -0.18486
 Alpha virt. eigenvalues --   -0.10010  -0.04893  -0.02693  -0.01657  -0.00901
 Alpha virt. eigenvalues --    0.00720   0.01960   0.02359   0.03154   0.03994
 Alpha virt. eigenvalues --    0.04232   0.04569   0.04828   0.05263   0.05624

 Mulliken charges:
               1
     1  O   -0.209027
     2  O   -0.208420
     3  O   -0.318833
     4  O   -0.195707
     5  O   -0.200829
     6  O   -0.267083
     7  N   -0.131289
     8  N    0.034695
     9  N   -0.116925
    10  N   -0.273722
    11  C   -0.090270
    12  C    0.071159
    13  C   -0.154455
    14  C    0.131921
    15  C   -0.058620
    16  C    0.098135
    17  C   -0.130552
    18  C   -0.112930
    19  C    0.172396
    20  C    0.094805
    21  C   -0.007925
    22  C    0.073286
    23  C   -0.043853
    24  C    0.139815
    25  C   -0.056208
    26  C   -0.036285
    27  C    0.096509
    28  C   -0.005006
    29  C   -0.027419
    30  C    0.096742
    31  C   -0.112385
    32  C    0.015469
    33  C   -0.085608
    34  C    0.036248
    35  C   -0.026680
    36  C   -0.226193
    37  C    0.099789
    38  C   -0.010922
    39  C    0.176324
    40  C    0.153633
    41  C    0.165241
    42  C    0.026449
    43  C   -0.045335
    44  H    0.131781
    45  H    0.089202
    46  H    0.017425
    47  H   -0.001397
    48  H    0.011165
    49  H    0.036005
    50  H   -0.062357
    51  H   -0.054363
    52  H    0.111459
    53  H    0.026048
    54  H    0.056140
    55  H    0.035661
    56  H    0.157829
    57  H   -0.003370
    58  H    0.042075
    59  H    0.073044
    60  H    0.075169
    61  H    0.016957
    62  H    0.032749
    63  H    0.002104
    64  H   -0.084559
    65  H   -0.000429
    66  H    0.043287
    67  H    0.033853
    68  H   -0.022950
    69  H    0.100981
    70  H    0.007585
    71  H    0.029575
    72  H   -0.048218
    73  H    0.020967
    74  H    0.034013
    75  H    0.023094
    76  H    0.047729
    77  H    0.026750
    78  H    0.016090
    79  H    0.031044
    80  H    0.206379
    81  H    0.211353
 Sum of Mulliken charges =  -0.00000

 Dipole moment (field-independent basis, Debye):
    X=              3.7330    Y=              1.2727    Z=              1.2286  Tot=              4.1309
 Quadrupole moment (field-independent basis, Debye-Ang):
   XX=           -248.7998   YY=           -241.9811   ZZ=           -256.2359
   XY=             -3.4520   XZ=             10.0248   YZ=             14.3303

 Normal termination of Gaussian 16 at Thu Jun 27 05:35:35 2019.
