 Gaussian 16, Revision A.03,
 Gaussian 16:  ES64L-G16RevA.03 25-Dec-2016

 --------------------------
 # td=(NStates=1) B3LYP/SVP
 --------------------------

 --
 TD
 --
 Symbolic Z-matrix:
 Charge =  0 Multiplicity = 1

                         Standard orientation:
 ---------------------------------------------------------------------
 Center     Atomic      Atomic             Coordinates (Angstroms)
 Number     Number       Type             X           Y           Z
 ---------------------------------------------------------------------
      1          8           0        4.746827   -4.607186   -1.935664
      2          8           0       -2.494959   -4.842436   -1.179421
      3          8           0       -6.830688   -1.892092   -2.025287
      4          8           0       -3.400966   -3.240455   -0.164890
      5          8           0       -7.294402   -1.242980    0.048353
      6          8           0        2.821201    2.716255    0.198060
      7          7           0        0.291949   -0.541551    0.680447
      8          7           0       -1.626623    1.799806    0.390006
      9          7           0        3.597524   -3.094467   -0.580432
     10          7           0        0.496714    3.095268    0.190012
     11          6           0       -0.604481   -2.462693    1.492765
     12          6           0       -0.878810   -1.187655    0.989987
     13          6           0        0.794418   -2.623041    1.340482
     14          6           0        1.365881   -1.426799    0.719799
     15          6           0       -3.838382    1.273140    0.298477
     16          6           0       -2.492791    0.688950    0.574974
     17          6           0       -2.172590   -0.640556    0.809719
     18          6           0       -3.718051    2.612223    0.085014
     19          6           0       -1.533096   -3.491489    1.985861
     20          6           0        5.713658   -2.401332   -1.321104
     21          6           0        3.720002   -1.713611   -0.046727
     22          6           0       -2.306501    2.906123    0.084252
     23          6           0        5.118834   -1.417153   -0.333217
     24          6           0       -5.153243    0.415672    0.272318
     25          6           0        2.681602   -0.983537    0.438482
     26          6           0        1.545404   -3.824184    1.842895
     27          6           0        4.721065   -3.487749   -1.378951
     28          6           0       -1.781143   -4.630528    0.877512
     29          6           0       -5.247986   -0.407065   -0.916324
     30          6           0       -4.768484    3.669703   -0.338784
     31          6           0       -1.682996    4.101904   -0.130888
     32          6           0        7.224823   -2.962974   -1.137542
     33          6           0        5.811096   -0.317051    0.152610
     34          6           0       -0.210225    4.137169   -0.143238
     35          6           0        0.591601    5.264160   -0.502005
     36          6           0        1.888407    4.896156   -0.391981
     37          6           0       -2.702109   -4.165236   -0.108023
     38          6           0        5.288040    0.722475    1.076778
     39          6           0       -6.479514   -1.251362   -0.839209
     40          6           0        3.158526    5.552099   -0.560903
     41          6           0        1.826400    3.408305   -0.019860
     42          6           0        0.042419    6.675730   -0.757375
     43          6           0        3.881193    5.901633    0.877625
     44          1           0        0.510513    0.417450    0.292117
     45          1           0       -2.883457   -1.242237    0.676661
     46          1           0       -2.543442   -3.012737    2.267519
     47          1           0       -1.048442   -3.881981    2.731952
     48          1           0        5.714074   -1.846703   -2.412847
     49          1           0       -5.072486   -0.098107    1.284627
     50          1           0       -6.014851    0.979889    0.145688
     51          1           0        2.869081    0.168922    0.575867
     52          1           0       -0.648574    1.948706    0.708145
     53          1           0        1.531731   -4.692075    1.270602
     54          1           0        2.633106   -3.616735    1.991942
     55          1           0        1.068657   -4.365592    2.890800
     56          1           0        2.781214   -3.659783   -0.450674
     57          1           0       -0.997136   -5.152295    0.544758
     58          1           0       -2.230487   -5.387010    1.648027
     59          1           0       -4.496646   -1.046531   -1.111361
     60          1           0       -5.338176   -0.017430   -2.049527
     61          1           0       -4.931487    4.443539    0.514420
     62          1           0       -5.712528    3.061845   -0.524132
     63          1           0       -4.527208    4.263129   -1.141409
     64          1           0       -2.059484    5.151902   -0.416438
     65          1           0        8.063589   -2.316745   -1.222301
     66          1           0        7.419179   -3.923036   -1.544644
     67          1           0        7.201537   -3.097481    0.080221
     68          1           0        6.806048   -0.271312   -0.128738
     69          1           0        4.472939    1.411153    0.534970
     70          1           0        5.974030    1.434069    1.532265
     71          1           0        4.486054    0.208867    1.859293
     72          1           0        3.139488    6.505840   -1.200273
     73          1           0        3.731104    4.825132   -1.135439
     74          1           0       -0.450840    6.581152   -1.679980
     75          1           0        0.739351    7.370116   -0.897056
     76          1           0       -0.429713    7.323630    0.072838
     77          1           0        3.215310    6.728984    1.434963
     78          1           0        5.154657    6.188509    0.585535
     79          1           0        4.044105    4.908747    1.322724
     80          1           0       -3.156094   -4.592753   -1.736148
     81          1           0       -7.525570   -2.631838   -1.564924
 ---------------------------------------------------------------------

 SCF Done:  E(RB3LYP) =  -1949.04754817     A.U. after   16 cycles

 Excitation energies and oscillator strengths:

 Excited State   1:      Singlet-A      1.8164 eV  682.57 nm  f=0.3243  <S**2>=0.000
     156 ->157         0.70816
     156 <-157        -0.10582
 This state for optimization and/or second-order correction.
 Total Energy, E(TD-HF/TD-DFT) =  -1948.98079597
 Copying the excited state density for this state as the 1-particle RhoCI density.

 The electronic state is 1-A.
 Alpha  occ. eigenvalues --  -19.18546 -19.17693 -19.13924 -19.12739 -19.11737
 Alpha  occ. eigenvalues --  -19.10403 -14.37986 -14.36037 -14.35393 -14.29136
 Alpha  occ. eigenvalues --  -10.32448 -10.31461 -10.29247 -10.27315 -10.24597
 Alpha  occ. eigenvalues --  -10.23679 -10.23661 -10.23564 -10.22874 -10.22701
 Alpha  occ. eigenvalues --  -10.22610 -10.21743 -10.21300 -10.21027 -10.20768
 Alpha  occ. eigenvalues --  -10.20680 -10.20566 -10.20385 -10.20383 -10.20331
 Alpha  occ. eigenvalues --  -10.20042 -10.20037 -10.19972 -10.19893 -10.19872
 Alpha  occ. eigenvalues --  -10.19581 -10.19574 -10.19567 -10.19375 -10.19343
 Alpha  occ. eigenvalues --  -10.19122 -10.18888 -10.18765  -1.16055  -1.08184
 Alpha  occ. eigenvalues --   -1.04444  -1.02117  -1.00847  -0.98488  -0.98272
 Alpha  occ. eigenvalues --   -0.97500  -0.93781  -0.92286  -0.83536  -0.82942
 Alpha  occ. eigenvalues --   -0.81164  -0.80859  -0.80240  -0.78898  -0.78785
 Alpha  occ. eigenvalues --   -0.78333  -0.76515  -0.75103  -0.74184  -0.72746
 Alpha  occ. eigenvalues --   -0.70966  -0.70220  -0.69311  -0.69137  -0.67792
 Alpha  occ. eigenvalues --   -0.67575  -0.65966  -0.64567  -0.62841  -0.62453
 Alpha  occ. eigenvalues --   -0.61210  -0.59403  -0.57218  -0.56774  -0.56342
 Alpha  occ. eigenvalues --   -0.56281  -0.55797  -0.55357  -0.54237  -0.53676
 Alpha  occ. eigenvalues --   -0.53459  -0.52854  -0.52111  -0.51428  -0.50323
 Alpha  occ. eigenvalues --   -0.50082  -0.49463  -0.49248  -0.48024  -0.47862
 Alpha  occ. eigenvalues --   -0.47110  -0.46766  -0.46327  -0.45894  -0.45615
 Alpha  occ. eigenvalues --   -0.45124  -0.44859  -0.44526  -0.44125  -0.43766
 Alpha  occ. eigenvalues --   -0.43571  -0.43159  -0.43093  -0.42745  -0.42633
 Alpha  occ. eigenvalues --   -0.42371  -0.41715  -0.41422  -0.41318  -0.41096
 Alpha  occ. eigenvalues --   -0.40751  -0.40351  -0.40126  -0.39979  -0.39818
 Alpha  occ. eigenvalues --   -0.39420  -0.39217  -0.39019  -0.38696  -0.38351
 Alpha  occ. eigenvalues --   -0.37958  -0.37555  -0.37448  -0.36764  -0.36705
 Alpha  occ. eigenvalues --   -0.36357  -0.36144  -0.35575  -0.35054  -0.34599
 Alpha  occ. eigenvalues --   -0.34543  -0.34151  -0.34002  -0.33598  -0.33202
 Alpha  occ. eigenvalues --   -0.33141  -0.32277  -0.31558  -0.30633  -0.30123
 Alpha  occ. eigenvalues --   -0.28491  -0.28117  -0.26204  -0.25862  -0.25775
 Alpha  occ. eigenvalues --   -0.24800  -0.24745  -0.24287  -0.23635  -0.21934
 Alpha  occ. eigenvalues --   -0.17751
 Alpha virt. eigenvalues --   -0.10443  -0.06170  -0.04029  -0.01148  -0.01085
 Alpha virt. eigenvalues --   -0.00217   0.01962   0.02387   0.03033   0.03420
 Alpha virt. eigenvalues --    0.03900   0.05149   0.05910   0.06346   0.06517

 Mulliken charges:
               1
     1  O   -0.247584
     2  O   -0.070730
     3  O   -0.289116
     4  O   -0.181042
     5  O   -0.228359
     6  O   -0.217005
     7  N   -0.110085
     8  N   -0.094564
     9  N   -0.205649
    10  N   -0.268712
    11  C   -0.113684
    12  C    0.120102
    13  C   -0.121378
    14  C    0.081214
    15  C   -0.131239
    16  C    0.081575
    17  C    0.037047
    18  C   -0.120620
    19  C    0.191488
    20  C   -0.069318
    21  C    0.148293
    22  C    0.151025
    23  C   -0.056187
    24  C    0.173647
    25  C   -0.169022
    26  C    0.009018
    27  C    0.170180
    28  C    0.019189
    29  C    0.042053
    30  C    0.116147
    31  C   -0.150167
    32  C    0.024763
    33  C   -0.046555
    34  C   -0.006293
    35  C   -0.112579
    36  C   -0.147375
    37  C    0.082906
    38  C   -0.035296
    39  C    0.123645
    40  C    0.039380
    41  C    0.155001
    42  C    0.162707
    43  C   -0.087304
    44  H    0.159162
    45  H   -0.138031
    46  H    0.030738
    47  H   -0.068048
    48  H    0.079027
    49  H    0.052063
    50  H   -0.015341
    51  H    0.049993
    52  H    0.152067
    53  H    0.008334
    54  H    0.036630
    55  H    0.027729
    56  H    0.113863
    57  H   -0.009681
    58  H    0.058578
    59  H   -0.014431
    60  H    0.056411
    61  H    0.030579
    62  H    0.022788
    63  H    0.004720
    64  H    0.000803
    65  H    0.019572
    66  H    0.040810
    67  H    0.018741
    68  H   -0.045185
    69  H    0.102162
    70  H    0.018005
    71  H    0.048188
    72  H    0.011374
    73  H    0.015756
    74  H    0.010646
    75  H   -0.054809
    76  H    0.036449
    77  H    0.058870
    78  H    0.028620
    79  H    0.046949
    80  H    0.126955
    81  H    0.229425
 Sum of Mulliken charges =  -0.00000

 Dipole moment (field-independent basis, Debye):
    X=             -2.0525    Y=              1.0742    Z=              0.2678  Tot=              2.3321
 Quadrupole moment (field-independent basis, Debye-Ang):
   XX=           -260.7518   YY=           -232.7956   ZZ=           -258.7533
   XY=             19.0229   XZ=              9.7428   YZ=            -15.6734

 Normal termination of Gaussian 16 at Thu Jun 27 23:55:22 2019.
