 Gaussian 16, Revision A.03,
 Gaussian 16:  ES64L-G16RevA.03 25-Dec-2016

 --------------------------
 # td=(NStates=1) B3LYP/SVP
 --------------------------

 --
 TD
 --
 Symbolic Z-matrix:
 Charge =  0 Multiplicity = 1

                         Standard orientation:
 ---------------------------------------------------------------------
 Center     Atomic      Atomic             Coordinates (Angstroms)
 Number     Number       Type             X           Y           Z
 ---------------------------------------------------------------------
      1          8           0        4.516133   -4.717336   -1.949793
      2          8           0       -2.967845   -4.812750   -1.275073
      3          8           0       -7.039182   -1.509718   -1.860908
      4          8           0       -3.808390   -3.237189    0.000673
      5          8           0       -7.560698   -0.571147    0.135388
      6          8           0        3.015655    2.668939    0.248852
      7          7           0        0.363526   -0.525743    0.528735
      8          7           0       -1.536595    1.803789    0.379143
      9          7           0        3.372959   -3.122059   -0.655012
     10          7           0        0.742018    3.068024    0.100699
     11          6           0       -0.507988   -2.368354    1.333962
     12          6           0       -0.844822   -1.110317    0.997258
     13          6           0        0.844668   -2.607558    1.297459
     14          6           0        1.329232   -1.461728    0.724308
     15          6           0       -3.719086    1.334271    0.343167
     16          6           0       -2.451005    0.768331    0.485501
     17          6           0       -2.190524   -0.522263    0.902330
     18          6           0       -3.638370    2.697012    0.060463
     19          6           0       -1.528388   -3.511309    1.928216
     20          6           0        5.572751   -2.570209   -1.445098
     21          6           0        3.635229   -1.840899   -0.173293
     22          6           0       -2.157737    3.024077   -0.015264
     23          6           0        5.078534   -1.584660   -0.355916
     24          6           0       -5.073400    0.512978    0.408610
     25          6           0        2.732400   -0.987895    0.445256
     26          6           0        1.666673   -3.867744    1.720956
     27          6           0        4.446228   -3.673884   -1.375199
     28          6           0       -1.838636   -4.549547    0.925387
     29          6           0       -5.333754   -0.345748   -0.715207
     30          6           0       -4.647074    3.626092   -0.319213
     31          6           0       -1.448623    4.099236   -0.299621
     32          6           0        6.918854   -3.073960   -1.101565
     33          6           0        5.752928   -0.569820    0.157474
     34          6           0       -0.019220    4.009550   -0.264398
     35          6           0        0.824330    5.241416   -0.588344
     36          6           0        2.134704    4.803124   -0.306594
     37          6           0       -2.992286   -4.140430   -0.081223
     38          6           0        5.435854    0.422430    1.182649
     39          6           0       -6.756269   -0.785733   -0.764461
     40          6           0        3.471571    5.525377   -0.381409
     41          6           0        2.046258    3.419977    0.060109
     42          6           0        0.249213    6.511396   -1.016885
     43          6           0        4.262025    5.637284    1.038737
     44          1           0        0.349419    0.436969    0.109205
     45          1           0       -2.767411   -1.304052    0.945598
     46          1           0       -2.425971   -2.998895    2.272151
     47          1           0       -0.921124   -3.939300    2.876880
     48          1           0        5.500309   -1.966864   -2.512723
     49          1           0       -5.310520   -0.098358    1.386660
     50          1           0       -5.567593    1.235390    0.622271
     51          1           0        2.782123    0.162116    0.613876
     52          1           0       -0.679077    1.732270    0.851761
     53          1           0        1.472636   -4.689805    1.057926
     54          1           0        2.842829   -3.727325    1.791906
     55          1           0        1.368114   -4.184752    2.809942
     56          1           0        2.325415   -3.572978   -0.705071
     57          1           0       -1.006969   -5.079149    0.423503
     58          1           0       -2.326470   -5.483333    1.493838
     59          1           0       -4.826739   -1.262272   -0.792467
     60          1           0       -5.174710    0.079591   -1.705388
     61          1           0       -4.799282    4.727557    0.087361
     62          1           0       -5.648148    3.205134   -0.394460
     63          1           0       -4.378666    3.919660   -1.469440
     64          1           0       -2.125444    4.889434   -0.296746
     65          1           0        7.824765   -2.425281   -1.331198
     66          1           0        6.998921   -3.978088   -1.712522
     67          1           0        6.922343   -3.494644   -0.130301
     68          1           0        6.580523   -0.381610   -0.274547
     69          1           0        5.033720    1.348546    0.739599
     70          1           0        6.487474    0.764482    1.661514
     71          1           0        4.822282   -0.018533    1.956588
     72          1           0        3.140974    6.398261   -0.974138
     73          1           0        4.216662    4.999846   -1.138319
     74          1           0       -0.423217    6.520696   -1.824370
     75          1           0        1.063791    7.225402   -1.067785
     76          1           0       -0.247982    6.833499   -0.089806
     77          1           0        3.622431    6.190676    1.930651
     78          1           0        5.230150    6.285204    0.554374
     79          1           0        4.478614    4.674103    1.688629
     80          1           0       -3.836074   -4.667027   -1.562680
     81          1           0       -7.962464   -1.853991   -1.609252
 ---------------------------------------------------------------------

 SCF Done:  E(RB3LYP) =  -1949.03333274     A.U. after   16 cycles

 Excitation energies and oscillator strengths:

 Excited State   1:      Singlet-A      1.7962 eV  690.24 nm  f=0.2580  <S**2>=0.000
     156 ->157         0.70217
 This state for optimization and/or second-order correction.
 Total Energy, E(TD-HF/TD-DFT) =  -1948.96732223
 Copying the excited state density for this state as the 1-particle RhoCI density.

 The electronic state is 1-A.
 Alpha  occ. eigenvalues --  -19.19094 -19.18880 -19.15179 -19.12404 -19.11674
 Alpha  occ. eigenvalues --  -19.10992 -14.37824 -14.36816 -14.35512 -14.28777
 Alpha  occ. eigenvalues --  -10.34558 -10.31593 -10.29440 -10.26210 -10.24302
 Alpha  occ. eigenvalues --  -10.23845 -10.23707 -10.23679 -10.22658 -10.22434
 Alpha  occ. eigenvalues --  -10.22118 -10.21781 -10.21684 -10.21509 -10.21471
 Alpha  occ. eigenvalues --  -10.21060 -10.21008 -10.20545 -10.20443 -10.20402
 Alpha  occ. eigenvalues --  -10.20135 -10.19335 -10.19200 -10.18976 -10.18853
 Alpha  occ. eigenvalues --  -10.18703 -10.18539 -10.18464 -10.18409 -10.18384
 Alpha  occ. eigenvalues --  -10.17778 -10.17696 -10.16901  -1.11941  -1.09797
 Alpha  occ. eigenvalues --   -1.04399  -1.01847  -1.01512  -0.99973  -0.97936
 Alpha  occ. eigenvalues --   -0.96938  -0.94485  -0.94124  -0.82975  -0.81876
 Alpha  occ. eigenvalues --   -0.81745  -0.81222  -0.79627  -0.78923  -0.78714
 Alpha  occ. eigenvalues --   -0.77861  -0.76679  -0.74994  -0.74078  -0.72492
 Alpha  occ. eigenvalues --   -0.71003  -0.69352  -0.68814  -0.68316  -0.67774
 Alpha  occ. eigenvalues --   -0.66994  -0.65570  -0.63580  -0.62574  -0.60770
 Alpha  occ. eigenvalues --   -0.60359  -0.59318  -0.58705  -0.57513  -0.56636
 Alpha  occ. eigenvalues --   -0.56165  -0.55847  -0.54463  -0.54137  -0.53543
 Alpha  occ. eigenvalues --   -0.53158  -0.52073  -0.51136  -0.50636  -0.49662
 Alpha  occ. eigenvalues --   -0.49599  -0.48849  -0.48640  -0.48105  -0.47986
 Alpha  occ. eigenvalues --   -0.47726  -0.47079  -0.46135  -0.45867  -0.45353
 Alpha  occ. eigenvalues --   -0.44621  -0.44323  -0.44256  -0.43815  -0.43795
 Alpha  occ. eigenvalues --   -0.43545  -0.43096  -0.42948  -0.42674  -0.42427
 Alpha  occ. eigenvalues --   -0.42163  -0.41920  -0.41592  -0.41428  -0.41177
 Alpha  occ. eigenvalues --   -0.40800  -0.40592  -0.40506  -0.40089  -0.39962
 Alpha  occ. eigenvalues --   -0.39385  -0.39174  -0.38904  -0.38752  -0.38538
 Alpha  occ. eigenvalues --   -0.38129  -0.38008  -0.37414  -0.37340  -0.36865
 Alpha  occ. eigenvalues --   -0.36710  -0.36433  -0.34945  -0.34816  -0.34247
 Alpha  occ. eigenvalues --   -0.34186  -0.33820  -0.33268  -0.32794  -0.32476
 Alpha  occ. eigenvalues --   -0.32373  -0.31442  -0.30889  -0.30249  -0.29753
 Alpha  occ. eigenvalues --   -0.28010  -0.26903  -0.26663  -0.26126  -0.25595
 Alpha  occ. eigenvalues --   -0.25343  -0.24861  -0.23980  -0.23180  -0.21519
 Alpha  occ. eigenvalues --   -0.17844
 Alpha virt. eigenvalues --   -0.10523  -0.06237  -0.03131  -0.02691  -0.00381
 Alpha virt. eigenvalues --    0.00821   0.02060   0.02261   0.03466   0.04071
 Alpha virt. eigenvalues --    0.04571   0.04917   0.05199   0.05745   0.06256

 Mulliken charges:
               1
     1  O   -0.178607
     2  O   -0.158158
     3  O   -0.196913
     4  O   -0.225041
     5  O   -0.254566
     6  O   -0.211216
     7  N   -0.117123
     8  N   -0.136816
     9  N   -0.189682
    10  N   -0.161624
    11  C   -0.121642
    12  C   -0.019895
    13  C   -0.141348
    14  C    0.012116
    15  C   -0.126288
    16  C    0.127907
    17  C    0.062761
    18  C   -0.034677
    19  C    0.071986
    20  C   -0.128569
    21  C    0.132678
    22  C    0.084890
    23  C   -0.022832
    24  C    0.255488
    25  C   -0.157327
    26  C    0.027834
    27  C    0.145197
    28  C    0.013011
    29  C    0.100564
    30  C   -0.020433
    31  C   -0.123477
    32  C    0.096255
    33  C   -0.088178
    34  C    0.106439
    35  C   -0.181405
    36  C   -0.169898
    37  C    0.134662
    38  C    0.082533
    39  C    0.098702
    40  C    0.063245
    41  C    0.122204
    42  C    0.193231
    43  C   -0.105763
    44  H    0.148949
    45  H   -0.102080
    46  H    0.020195
    47  H    0.035455
    48  H    0.068502
    49  H    0.022615
    50  H   -0.119904
    51  H    0.067859
    52  H    0.125177
    53  H    0.019135
    54  H    0.060856
    55  H    0.033330
    56  H    0.186525
    57  H    0.039270
    58  H    0.054729
    59  H    0.019120
    60  H    0.013162
    61  H    0.047556
    62  H    0.021151
    63  H    0.033940
    64  H   -0.056704
    65  H    0.033409
    66  H    0.008145
    67  H   -0.008639
    68  H   -0.093035
    69  H    0.068807
    70  H    0.006620
    71  H    0.025234
    72  H   -0.003664
    73  H    0.030248
    74  H    0.023051
    75  H   -0.002122
    76  H    0.018102
    77  H    0.027122
    78  H    0.049321
    79  H    0.069574
    80  H    0.153937
    81  H    0.194825
 Sum of Mulliken charges =  -0.00000

 Dipole moment (field-independent basis, Debye):
    X=             -3.4458    Y=              0.7747    Z=             -0.1532  Tot=              3.5351
 Quadrupole moment (field-independent basis, Debye-Ang):
   XX=           -258.7769   YY=           -231.7606   ZZ=           -256.5290
   XY=             14.8202   XZ=             14.1317   YZ=            -15.7769

 Normal termination of Gaussian 16 at Thu Jun 27 01:30:45 2019.
