 Gaussian 16, Revision A.03,
 Gaussian 16:  ES64L-G16RevA.03 25-Dec-2016

 --------------------------
 # td=(NStates=1) B3LYP/SVP
 --------------------------

 --
 TD
 --
 Symbolic Z-matrix:
 Charge =  0 Multiplicity = 1

                         Standard orientation:
 ---------------------------------------------------------------------
 Center     Atomic      Atomic             Coordinates (Angstroms)
 Number     Number       Type             X           Y           Z
 ---------------------------------------------------------------------
      1          8           0       -4.367939   -4.767434    1.767468
      2          8           0        3.055037   -4.806901    1.404826
      3          8           0        7.146599   -1.543188    1.878944
      4          8           0        3.951850   -3.097611    0.210445
      5          8           0        7.524020   -0.650226   -0.237379
      6          8           0       -3.070157    2.310376   -0.055777
      7          7           0       -0.378088   -0.480421   -0.753092
      8          7           0        1.510208    1.835223   -0.477799
      9          7           0       -3.379315   -3.137891    0.661182
     10          7           0       -0.877756    2.788787   -0.070235
     11          6           0        0.638506   -2.329971   -1.412009
     12          6           0        0.897025   -1.004886   -1.012501
     13          6           0       -0.652323   -2.653595   -1.261991
     14          6           0       -1.324626   -1.424643   -0.826966
     15          6           0        3.831439    1.543114   -0.336412
     16          6           0        2.463392    0.857295   -0.692735
     17          6           0        2.257368   -0.427497   -0.972523
     18          6           0        3.511473    2.851138   -0.061601
     19          6           0        1.732642   -3.484815   -1.821406
     20          6           0       -5.580919   -2.635735    1.328778
     21          6           0       -3.622651   -1.847246    0.079698
     22          6           0        2.096013    3.024293   -0.057126
     23          6           0       -5.098136   -1.590674    0.370229
     24          6           0        5.138670    0.789654   -0.357108
     25          6           0       -2.675475   -1.090694   -0.546876
     26          6           0       -1.458643   -3.791959   -1.819325
     27          6           0       -4.396448   -3.665489    1.336936
     28          6           0        2.195075   -4.418134   -0.862504
     29          6           0        5.475935    0.039371    0.929586
     30          6           0        4.488014    3.927818    0.320184
     31          6           0        1.205387    4.171623    0.164252
     32          6           0       -6.904387   -3.369495    1.142944
     33          6           0       -5.790333   -0.648551   -0.324860
     34          6           0       -0.161515    3.980617    0.031891
     35          6           0       -1.056087    5.159375    0.461027
     36          6           0       -2.389711    4.655981    0.455437
     37          6           0        3.136120   -3.991130    0.275465
     38          6           0       -5.443292    0.298960   -1.323499
     39          6           0        6.848985   -0.669633    0.758662
     40          6           0       -3.712228    5.134393    0.613545
     41          6           0       -2.172788    3.153126    0.184929
     42          6           0       -0.621385    6.597589    0.797860
     43          6           0       -4.290686    5.631346   -0.728178
     44          1           0       -0.572247    0.505746   -0.536463
     45          1           0        2.953001   -1.248813   -1.041939
     46          1           0        2.563764   -2.863029   -2.233600
     47          1           0        1.507868   -3.969260   -2.644558
     48          1           0       -5.494713   -2.225134    2.539059
     49          1           0        5.142621   -0.216889   -1.098665
     50          1           0        6.035612    1.424271   -0.501091
     51          1           0       -2.554425    0.052671   -0.724439
     52          1           0        0.647852    1.712741   -0.456449
     53          1           0       -1.503415   -4.423492   -0.876117
     54          1           0       -2.533590   -3.738801   -1.962106
     55          1           0       -0.991851   -4.366887   -2.729057
     56          1           0       -2.591380   -3.722301    0.574123
     57          1           0        1.474789   -4.861332   -0.163086
     58          1           0        2.580637   -5.362259   -1.438433
     59          1           0        4.676696   -0.703420    1.222886
     60          1           0        5.267776    0.744402    1.790427
     61          1           0        4.224284    4.821159   -0.060180
     62          1           0        5.648701    3.622685   -0.183920
     63          1           0        4.407498    3.941416    1.397531
     64          1           0        1.404081    5.215767    0.353357
     65          1           0       -7.743109   -2.576833    1.308373
     66          1           0       -7.241684   -3.962749    1.926380
     67          1           0       -7.044266   -3.935276    0.139783
     68          1           0       -6.833375   -0.790130   -0.015519
     69          1           0       -5.067166    1.188645   -1.033064
     70          1           0       -6.206460    0.440795   -1.959829
     71          1           0       -4.681070    0.092380   -2.042874
     72          1           0       -3.808535    5.916832    1.600797
     73          1           0       -4.234346    4.343940    1.211889
     74          1           0        0.107213    6.607666    1.763824
     75          1           0       -1.468343    7.291678    1.029464
     76          1           0       -0.260252    7.017087   -0.047504
     77          1           0       -3.474110    6.505634   -0.872138
     78          1           0       -5.269974    5.835152   -0.665652
     79          1           0       -3.892066    4.826793   -1.530145
     80          1           0        3.576938   -4.201958    2.104327
     81          1           0        7.819970   -2.168198    1.583189
 ---------------------------------------------------------------------

 SCF Done:  E(RB3LYP) =  -1949.01553280     A.U. after   25 cycles

 Excitation energies and oscillator strengths:

 Excited State   1:      Singlet-A      1.8300 eV  677.51 nm  f=0.3408  <S**2>=0.000
     156 ->157         0.70878
     156 <-157        -0.11598
 This state for optimization and/or second-order correction.
 Total Energy, E(TD-HF/TD-DFT) =  -1948.94828175
 Copying the excited state density for this state as the 1-particle RhoCI density.

 The electronic state is 1-A.
 Alpha  occ. eigenvalues --  -19.19777 -19.17133 -19.14984 -19.14836 -19.10141
 Alpha  occ. eigenvalues --  -19.08827 -14.38255 -14.36603 -14.36444 -14.28744
 Alpha  occ. eigenvalues --  -10.33809 -10.33597 -10.27945 -10.25843 -10.25376
 Alpha  occ. eigenvalues --  -10.25114 -10.24065 -10.23308 -10.23263 -10.22830
 Alpha  occ. eigenvalues --  -10.22315 -10.22274 -10.22226 -10.22095 -10.21941
 Alpha  occ. eigenvalues --  -10.21728 -10.20962 -10.20947 -10.20774 -10.20773
 Alpha  occ. eigenvalues --  -10.20386 -10.20311 -10.20248 -10.19730 -10.19596
 Alpha  occ. eigenvalues --  -10.19521 -10.19520 -10.19510 -10.19488 -10.19276
 Alpha  occ. eigenvalues --  -10.19061 -10.19028 -10.15458  -1.09675  -1.08095
 Alpha  occ. eigenvalues --   -1.05062  -1.01031  -1.00343  -0.99704  -0.98885
 Alpha  occ. eigenvalues --   -0.98581  -0.94932  -0.89295  -0.83275  -0.83086
 Alpha  occ. eigenvalues --   -0.81754  -0.81581  -0.79629  -0.79380  -0.79092
 Alpha  occ. eigenvalues --   -0.77906  -0.76782  -0.76099  -0.74273  -0.72630
 Alpha  occ. eigenvalues --   -0.71871  -0.70370  -0.68967  -0.68746  -0.68229
 Alpha  occ. eigenvalues --   -0.67848  -0.65858  -0.65406  -0.62556  -0.61658
 Alpha  occ. eigenvalues --   -0.59919  -0.59526  -0.57855  -0.57830  -0.57390
 Alpha  occ. eigenvalues --   -0.56469  -0.55532  -0.55219  -0.54172  -0.53124
 Alpha  occ. eigenvalues --   -0.51902  -0.51590  -0.51309  -0.50559  -0.50000
 Alpha  occ. eigenvalues --   -0.49622  -0.48896  -0.48585  -0.48054  -0.47747
 Alpha  occ. eigenvalues --   -0.47442  -0.46994  -0.46499  -0.46041  -0.45496
 Alpha  occ. eigenvalues --   -0.45270  -0.44920  -0.44361  -0.44280  -0.43449
 Alpha  occ. eigenvalues --   -0.43407  -0.43156  -0.43082  -0.42883  -0.42610
 Alpha  occ. eigenvalues --   -0.42408  -0.42073  -0.41954  -0.41778  -0.41594
 Alpha  occ. eigenvalues --   -0.41486  -0.40995  -0.40764  -0.40160  -0.39827
 Alpha  occ. eigenvalues --   -0.39559  -0.39350  -0.38484  -0.38323  -0.38008
 Alpha  occ. eigenvalues --   -0.37741  -0.37339  -0.36955  -0.36730  -0.36570
 Alpha  occ. eigenvalues --   -0.36045  -0.35861  -0.35749  -0.35105  -0.34899
 Alpha  occ. eigenvalues --   -0.34230  -0.33939  -0.33527  -0.33424  -0.32747
 Alpha  occ. eigenvalues --   -0.32342  -0.31903  -0.30397  -0.29780  -0.29599
 Alpha  occ. eigenvalues --   -0.29455  -0.27091  -0.26815  -0.26202  -0.26038
 Alpha  occ. eigenvalues --   -0.25438  -0.24466  -0.23621  -0.22706  -0.21434
 Alpha  occ. eigenvalues --   -0.17874
 Alpha virt. eigenvalues --   -0.10583  -0.05479  -0.03616  -0.02806  -0.01808
 Alpha virt. eigenvalues --    0.00252   0.01947   0.02191   0.03060   0.03713
 Alpha virt. eigenvalues --    0.04008   0.04211   0.05035   0.05690   0.06207

 Mulliken charges:
               1
     1  O   -0.187226
     2  O   -0.251677
     3  O   -0.259780
     4  O   -0.221546
     5  O   -0.196295
     6  O   -0.260637
     7  N   -0.077495
     8  N    0.048698
     9  N   -0.078310
    10  N   -0.304255
    11  C   -0.144697
    12  C   -0.001913
    13  C   -0.121893
    14  C   -0.011238
    15  C   -0.043944
    16  C    0.146757
    17  C   -0.052565
    18  C   -0.156763
    19  C    0.192702
    20  C   -0.107617
    21  C    0.156624
    22  C    0.138734
    23  C   -0.029073
    24  C    0.023941
    25  C   -0.121144
    26  C    0.050355
    27  C    0.051671
    28  C    0.011903
    29  C   -0.059559
    30  C    0.111421
    31  C   -0.087931
    32  C    0.068439
    33  C   -0.116542
    34  C    0.066542
    35  C   -0.149979
    36  C   -0.151702
    37  C    0.141899
    38  C    0.233669
    39  C    0.217640
    40  C   -0.009589
    41  C    0.136169
    42  C    0.092656
    43  C    0.046116
    44  H    0.155411
    45  H    0.004422
    46  H    0.000159
    47  H   -0.057682
    48  H    0.067336
    49  H    0.059442
    50  H    0.025372
    51  H    0.060463
    52  H   -0.016665
    53  H    0.009080
    54  H    0.025115
    55  H    0.042806
    56  H    0.100097
    57  H    0.026547
    58  H    0.062009
    59  H    0.050920
    60  H    0.035127
    61  H   -0.004090
    62  H    0.049126
    63  H    0.035255
    64  H   -0.037054
    65  H    0.009859
    66  H    0.000181
    67  H    0.040553
    68  H   -0.018803
    69  H    0.015354
    70  H   -0.032630
    71  H   -0.013882
    72  H    0.000774
    73  H    0.014888
    74  H    0.053164
    75  H    0.017507
    76  H    0.004355
    77  H    0.023147
    78  H    0.007458
    79  H    0.049312
    80  H    0.225454
    81  H    0.177549
 Sum of Mulliken charges =  -0.00000

 Dipole moment (field-independent basis, Debye):
    X=              2.2307    Y=              1.0399    Z=             -0.3454  Tot=              2.4853
 Quadrupole moment (field-independent basis, Debye-Ang):
   XX=           -254.5101   YY=           -241.6325   ZZ=           -254.0190
   XY=            -10.3547   XZ=             12.7127   YZ=             14.1040

 Normal termination of Gaussian 16 at Tue Jul  2 20:05:22 2019.
