 Gaussian 16, Revision A.03,
 Gaussian 16:  ES64L-G16RevA.03 25-Dec-2016

 --------------------------
 # td=(NStates=1) B3LYP/SVP
 --------------------------

 --
 TD
 --
 Symbolic Z-matrix:
 Charge =  0 Multiplicity = 1

                         Standard orientation:
 ---------------------------------------------------------------------
 Center     Atomic      Atomic             Coordinates (Angstroms)
 Number     Number       Type             X           Y           Z
 ---------------------------------------------------------------------
      1          8           0       -4.629050   -4.677877    1.815805
      2          8           0        2.760293   -4.772853    1.517647
      3          8           0        7.049064   -1.427236    1.822804
      4          8           0        3.587434   -3.135475    0.255022
      5          8           0        7.557240   -0.831925   -0.305167
      6          8           0       -3.023684    2.462176   -0.239514
      7          7           0       -0.265114   -0.589187   -0.674891
      8          7           0        1.608556    1.716612   -0.436063
      9          7           0       -3.462643   -2.997068    0.635582
     10          7           0       -0.788560    2.884551    0.047882
     11          6           0        0.624842   -2.450769   -1.254998
     12          6           0        0.947861   -1.126020   -0.913367
     13          6           0       -0.746688   -2.754707   -1.147029
     14          6           0       -1.247970   -1.502405   -0.702900
     15          6           0        3.826798    1.413926   -0.464633
     16          6           0        2.474696    0.772601   -0.652601
     17          6           0        2.151197   -0.548585   -0.976235
     18          6           0        3.618331    2.724254    0.006282
     19          6           0        1.624831   -3.454854   -1.875276
     20          6           0       -5.681488   -2.419174    1.287383
     21          6           0       -3.673875   -1.832382    0.046794
     22          6           0        2.134383    2.975317    0.042591
     23          6           0       -5.048651   -1.432525    0.301980
     24          6           0        5.103686    0.686816   -0.538303
     25          6           0       -2.611188   -1.098321   -0.450039
     26          6           0       -1.393149   -4.050740   -1.612954
     27          6           0       -4.584254   -3.575053    1.371342
     28          6           0        2.007239   -4.626269   -0.801467
     29          6           0        5.539904   -0.155529    0.764443
     30          6           0        4.601501    3.762053    0.313186
     31          6           0        1.394683    4.120723    0.404108
     32          6           0       -7.034508   -2.990798    0.888984
     33          6           0       -5.770158   -0.513488   -0.304229
     34          6           0       -0.049623    4.063712    0.270956
     35          6           0       -0.889192    5.144138    0.396406
     36          6           0       -2.201000    4.725690    0.346860
     37          6           0        2.878649   -4.097964    0.309316
     38          6           0       -5.253337    0.432541   -1.396229
     39          6           0        6.782721   -0.812591    0.744583
     40          6           0       -3.451846    5.285688    0.545069
     41          6           0       -2.062519    3.235556    0.167997
     42          6           0       -0.455617    6.548089    0.711085
     43          6           0       -4.142043    5.644710   -0.744754
     44          1           0       -0.276764    0.422104   -0.224604
     45          1           0        2.972103   -1.143174   -1.023559
     46          1           0        2.278943   -2.917244   -2.134701
     47          1           0        1.194509   -4.008363   -2.758984
     48          1           0       -5.521548   -1.939416    2.179798
     49          1           0        5.003002    0.059023   -1.648931
     50          1           0        5.867661    1.388030   -0.499777
     51          1           0       -2.867718   -0.085935   -0.596332
     52          1           0        0.526268    1.922991   -0.582337
     53          1           0       -1.362121   -4.866528   -0.958763
     54          1           0       -2.407380   -3.844166   -1.805362
     55          1           0       -0.854426   -4.529478   -2.406594
     56          1           0       -2.626811   -3.480770    0.795770
     57          1           0        0.957103   -4.985688   -0.489324
     58          1           0        2.522777   -5.381044   -1.392494
     59          1           0        4.749189   -1.000484    0.740119
     60          1           0        5.328222    0.289376    1.789358
     61          1           0        4.436424    4.596070   -0.339419
     62          1           0        5.746779    3.677381    0.216833
     63          1           0        4.356071    4.039636    1.331236
     64          1           0        1.882825    5.058452    0.597010
     65          1           0       -7.648873   -2.135918    0.928805
     66          1           0       -7.410819   -3.548687    1.752775
     67          1           0       -6.918288   -3.552283   -0.035673
     68          1           0       -6.879479   -0.036021    0.071624
     69          1           0       -4.845168    1.260425   -0.838549
     70          1           0       -6.294606    0.896140   -1.837243
     71          1           0       -4.586186    0.213497   -2.206137
     72          1           0       -3.668303    6.085555    1.343868
     73          1           0       -4.015890    4.425358    0.878321
     74          1           0        0.519696    6.625317    1.287649
     75          1           0       -1.336351    7.271655    1.135435
     76          1           0       -0.080651    7.024556   -0.094512
     77          1           0       -3.538910    6.443276   -1.266578
     78          1           0       -4.981688    6.395798   -0.677058
     79          1           0       -4.247667    4.915066   -1.267923
     80          1           0        3.479846   -4.549826    2.200997
     81          1           0        8.006894   -1.605333    1.388787
 ---------------------------------------------------------------------

 SCF Done:  E(RB3LYP) =  -1948.99530771     A.U. after   20 cycles

 Excitation energies and oscillator strengths:

 Excited State   1:      Singlet-A      1.7012 eV  728.79 nm  f=0.3828  <S**2>=0.000
     156 ->157         0.71606
     156 <-157        -0.16105
 This state for optimization and/or second-order correction.
 Total Energy, E(TD-HF/TD-DFT) =  -1948.93278822
 Copying the excited state density for this state as the 1-particle RhoCI density.

 The electronic state is 1-A.
 Alpha  occ. eigenvalues --  -19.20484 -19.18375 -19.14520 -19.13595 -19.11622
 Alpha  occ. eigenvalues --  -19.08366 -14.37923 -14.36924 -14.36156 -14.28449
 Alpha  occ. eigenvalues --  -10.33861 -10.31877 -10.30459 -10.24706 -10.24628
 Alpha  occ. eigenvalues --  -10.24441 -10.24333 -10.23131 -10.23056 -10.22315
 Alpha  occ. eigenvalues --  -10.22142 -10.21432 -10.21022 -10.20959 -10.20525
 Alpha  occ. eigenvalues --  -10.20403 -10.20188 -10.20134 -10.19994 -10.19812
 Alpha  occ. eigenvalues --  -10.19753 -10.19731 -10.19710 -10.19668 -10.19604
 Alpha  occ. eigenvalues --  -10.19185 -10.18830 -10.18341 -10.17996 -10.17956
 Alpha  occ. eigenvalues --  -10.17913 -10.17393 -10.15811  -1.13284  -1.09767
 Alpha  occ. eigenvalues --   -1.05990  -1.00862  -1.00067  -0.97509  -0.97186
 Alpha  occ. eigenvalues --   -0.96874  -0.96627  -0.90348  -0.82546  -0.82492
 Alpha  occ. eigenvalues --   -0.81991  -0.81277  -0.80592  -0.79196  -0.77616
 Alpha  occ. eigenvalues --   -0.77539  -0.77117  -0.75889  -0.74407  -0.72892
 Alpha  occ. eigenvalues --   -0.72384  -0.70718  -0.69513  -0.69049  -0.68494
 Alpha  occ. eigenvalues --   -0.67254  -0.66449  -0.64802  -0.63937  -0.61863
 Alpha  occ. eigenvalues --   -0.60706  -0.60234  -0.58593  -0.58181  -0.57270
 Alpha  occ. eigenvalues --   -0.56626  -0.55156  -0.54029  -0.53464  -0.52916
 Alpha  occ. eigenvalues --   -0.52645  -0.52082  -0.51927  -0.51422  -0.49997
 Alpha  occ. eigenvalues --   -0.49780  -0.49230  -0.49118  -0.48882  -0.48432
 Alpha  occ. eigenvalues --   -0.47619  -0.47292  -0.46484  -0.46061  -0.45781
 Alpha  occ. eigenvalues --   -0.45689  -0.45396  -0.44941  -0.44689  -0.44047
 Alpha  occ. eigenvalues --   -0.43813  -0.43546  -0.43311  -0.42738  -0.42616
 Alpha  occ. eigenvalues --   -0.42463  -0.41683  -0.41416  -0.41142  -0.40864
 Alpha  occ. eigenvalues --   -0.40528  -0.40358  -0.40179  -0.39883  -0.39358
 Alpha  occ. eigenvalues --   -0.39148  -0.39073  -0.38947  -0.38803  -0.38472
 Alpha  occ. eigenvalues --   -0.37967  -0.37638  -0.37437  -0.37384  -0.37277
 Alpha  occ. eigenvalues --   -0.37161  -0.36497  -0.36121  -0.35008  -0.34855
 Alpha  occ. eigenvalues --   -0.34392  -0.33718  -0.33436  -0.33392  -0.32938
 Alpha  occ. eigenvalues --   -0.32140  -0.30749  -0.30555  -0.29854  -0.29692
 Alpha  occ. eigenvalues --   -0.27461  -0.27446  -0.26891  -0.26325  -0.25672
 Alpha  occ. eigenvalues --   -0.25561  -0.24165  -0.23272  -0.21962  -0.21338
 Alpha  occ. eigenvalues --   -0.17120
 Alpha virt. eigenvalues --   -0.10821  -0.06132  -0.03665  -0.01844  -0.00716
 Alpha virt. eigenvalues --   -0.00250   0.02733   0.03153   0.03593   0.03846
 Alpha virt. eigenvalues --    0.04339   0.04570   0.04745   0.04956   0.05511

 Mulliken charges:
               1
     1  O   -0.158652
     2  O   -0.250086
     3  O   -0.142157
     4  O   -0.195156
     5  O   -0.350730
     6  O   -0.307619
     7  N   -0.058037
     8  N   -0.143589
     9  N   -0.110604
    10  N   -0.294450
    11  C   -0.170179
    12  C    0.124465
    13  C   -0.148896
    14  C    0.062282
    15  C   -0.105368
    16  C    0.039903
    17  C   -0.050719
    18  C   -0.101831
    19  C    0.240645
    20  C   -0.036839
    21  C    0.091881
    22  C    0.073089
    23  C   -0.012958
    24  C    0.098971
    25  C   -0.090357
    26  C    0.181255
    27  C    0.103265
    28  C   -0.010040
    29  C   -0.033514
    30  C    0.071450
    31  C   -0.073744
    32  C    0.153311
    33  C   -0.221794
    34  C    0.091952
    35  C   -0.106869
    36  C   -0.142073
    37  C    0.160820
    38  C    0.014552
    39  C    0.157846
    40  C    0.068655
    41  C    0.142268
    42  C    0.126966
    43  C    0.115035
    44  H    0.182779
    45  H   -0.043508
    46  H   -0.115015
    47  H    0.011864
    48  H    0.007658
    49  H    0.063243
    50  H   -0.018491
    51  H   -0.019480
    52  H    0.188535
    53  H    0.001604
    54  H    0.016373
    55  H   -0.009714
    56  H    0.110098
    57  H    0.050837
    58  H    0.049560
    59  H    0.074398
    60  H    0.044301
    61  H    0.019315
    62  H    0.031314
    63  H    0.021583
    64  H   -0.028463
    65  H   -0.003089
    66  H    0.016595
    67  H    0.032197
    68  H    0.051644
    69  H    0.068647
    70  H    0.005519
    71  H    0.035012
    72  H    0.008080
    73  H   -0.003192
    74  H    0.004725
    75  H    0.038855
    76  H   -0.027986
    77  H   -0.018406
    78  H   -0.002700
    79  H   -0.058623
    80  H    0.213007
    81  H    0.198578
 Sum of Mulliken charges =  -0.00000

 Dipole moment (field-independent basis, Debye):
    X=              1.5938    Y=             -0.9083    Z=              1.3089  Tot=              2.2536
 Quadrupole moment (field-independent basis, Debye-Ang):
   XX=           -255.2014   YY=           -234.3143   ZZ=           -253.2758
   XY=             -5.3014   XZ=             14.6667   YZ=             10.9268

 Normal termination of Gaussian 16 at Thu Jun 27 23:30:29 2019.
