 Gaussian 16, Revision A.03,
 Gaussian 16:  ES64L-G16RevA.03 25-Dec-2016

 --------------------------
 # td=(NStates=1) B3LYP/SVP
 --------------------------

 --
 TD
 --
 Symbolic Z-matrix:
 Charge =  0 Multiplicity = 1

                         Standard orientation:
 ---------------------------------------------------------------------
 Center     Atomic      Atomic             Coordinates (Angstroms)
 Number     Number       Type             X           Y           Z
 ---------------------------------------------------------------------
      1          8           0        4.576251   -4.688030   -2.085646
      2          8           0       -2.918819   -5.050214   -1.012911
      3          8           0       -7.077319   -1.766150   -1.841637
      4          8           0       -3.837320   -3.148619   -0.128764
      5          8           0       -7.678791   -0.388101   -0.075088
      6          8           0        2.924572    2.339524    0.393031
      7          7           0        0.357626   -0.534636    0.772519
      8          7           0       -1.528145    1.891461    0.229187
      9          7           0        3.467141   -3.141461   -0.849119
     10          7           0        0.690864    2.887677    0.074439
     11          6           0       -0.691406   -2.448542    1.413366
     12          6           0       -0.921280   -1.070247    1.088741
     13          6           0        0.734878   -2.693254    1.327367
     14          6           0        1.334369   -1.456121    0.874507
     15          6           0       -3.729175    1.446200    0.276641
     16          6           0       -2.512450    0.889536    0.539296
     17          6           0       -2.156995   -0.463269    0.881444
     18          6           0       -3.614257    2.721618   -0.086559
     19          6           0       -1.707728   -3.382809    2.052988
     20          6           0        5.650920   -2.524115   -1.376432
     21          6           0        3.668066   -1.883465   -0.172424
     22          6           0       -2.214506    3.047346   -0.029727
     23          6           0        5.144314   -1.548744   -0.379747
     24          6           0       -5.062480    0.723107    0.349592
     25          6           0        2.689567   -1.054179    0.452164
     26          6           0        1.497830   -3.937706    1.640700
     27          6           0        4.577934   -3.620609   -1.407058
     28          6           0       -2.060615   -4.441367    1.143015
     29          6           0       -5.394073   -0.220227   -0.878132
     30          6           0       -4.625952    3.853399   -0.535501
     31          6           0       -1.342104    4.150608   -0.274803
     32          6           0        7.121775   -2.920687   -1.249062
     33          6           0        5.734869   -0.520893    0.222265
     34          6           0        0.048174    4.070073   -0.210857
     35          6           0        1.057710    5.137808   -0.507803
     36          6           0        2.287450    4.623636   -0.274325
     37          6           0       -3.072318   -4.057630    0.037595
     38          6           0        5.387959    0.479140    1.311278
     39          6           0       -6.811399   -0.794710   -0.900953
     40          6           0        3.594451    5.256592   -0.418372
     41          6           0        1.979986    3.149929    0.085618
     42          6           0        0.461464    6.445479   -0.913000
     43          6           0        4.241782    5.525560    1.029736
     44          1           0        0.418421    0.429840    0.539175
     45          1           0       -2.973735   -1.085962    0.763520
     46          1           0       -2.534061   -2.485238    2.315826
     47          1           0       -1.428482   -3.626728    3.054436
     48          1           0        5.620127   -2.008611   -2.348256
     49          1           0       -5.096112    0.153129    1.218434
     50          1           0       -5.978691    1.306395    0.501511
     51          1           0        2.923110    0.043202    0.488392
     52          1           0       -0.513912    2.058611    0.543397
     53          1           0        1.403076   -4.858010    1.161525
     54          1           0        2.592488   -3.832337    1.636570
     55          1           0        1.037367   -4.111105    2.541355
     56          1           0        2.547909   -3.883202   -0.868432
     57          1           0       -1.243134   -5.073389    0.650957
     58          1           0       -2.635370   -5.071823    1.669416
     59          1           0       -4.666514   -1.050813   -1.034221
     60          1           0       -5.092655    0.483213   -1.731020
     61          1           0       -4.753503    4.632452    0.340719
     62          1           0       -5.582801    3.402567   -0.700731
     63          1           0       -4.082725    4.305750   -1.339691
     64          1           0       -1.822363    5.184138   -0.605127
     65          1           0        7.549306   -2.065858   -1.501657
     66          1           0        7.284620   -3.799981   -1.804431
     67          1           0        7.314430   -3.419702   -0.192482
     68          1           0        6.739096   -0.525485   -0.203207
     69          1           0        4.977474    1.449723    0.740947
     70          1           0        6.267406    0.782048    1.784249
     71          1           0        4.413569    0.165326    1.855318
     72          1           0        3.696326    6.225652   -1.174038
     73          1           0        4.305671    4.633701   -0.911669
     74          1           0       -0.104327    6.482021   -1.779175
     75          1           0        1.379949    7.185428   -0.713993
     76          1           0        0.018652    7.128728   -0.266010
     77          1           0        3.284384    6.016844    1.629278
     78          1           0        5.356470    6.044528    1.012028
     79          1           0        4.237983    4.496791    1.560547
     80          1           0       -3.497210   -4.560745   -1.601554
     81          1           0       -7.963808   -2.148396   -1.482305
 ---------------------------------------------------------------------

 SCF Done:  E(RB3LYP) =  -1949.05935858     A.U. after   19 cycles

 Excitation energies and oscillator strengths:

 Excited State   1:      Singlet-A      1.8941 eV  654.56 nm  f=0.3903  <S**2>=0.000
     156 ->157         0.70655
     156 <-157        -0.11663
 This state for optimization and/or second-order correction.
 Total Energy, E(TD-HF/TD-DFT) =  -1948.98974990
 Copying the excited state density for this state as the 1-particle RhoCI density.

 The electronic state is 1-A.
 Alpha  occ. eigenvalues --  -19.19662 -19.18344 -19.17152 -19.13196 -19.10302
 Alpha  occ. eigenvalues --  -19.09032 -14.39168 -14.38214 -14.34428 -14.29138
 Alpha  occ. eigenvalues --  -10.34999 -10.33329 -10.28989 -10.26219 -10.26080
 Alpha  occ. eigenvalues --  -10.25132 -10.24002 -10.23540 -10.23106 -10.22641
 Alpha  occ. eigenvalues --  -10.22549 -10.22531 -10.22002 -10.21566 -10.21380
 Alpha  occ. eigenvalues --  -10.21163 -10.20849 -10.20624 -10.20566 -10.20376
 Alpha  occ. eigenvalues --  -10.20126 -10.19903 -10.19899 -10.19892 -10.19858
 Alpha  occ. eigenvalues --  -10.19774 -10.19710 -10.19659 -10.19505 -10.19183
 Alpha  occ. eigenvalues --  -10.19124 -10.18707 -10.18452  -1.11052  -1.08147
 Alpha  occ. eigenvalues --   -1.02106  -1.01825  -0.98818  -0.98781  -0.98497
 Alpha  occ. eigenvalues --   -0.97007  -0.93728  -0.91600  -0.84521  -0.82608
 Alpha  occ. eigenvalues --   -0.82474  -0.81081  -0.79753  -0.79735  -0.78008
 Alpha  occ. eigenvalues --   -0.76943  -0.76816  -0.75106  -0.74084  -0.73086
 Alpha  occ. eigenvalues --   -0.71547  -0.70169  -0.69283  -0.68864  -0.68126
 Alpha  occ. eigenvalues --   -0.67500  -0.65765  -0.65135  -0.62477  -0.60567
 Alpha  occ. eigenvalues --   -0.59802  -0.58826  -0.58469  -0.58193  -0.57018
 Alpha  occ. eigenvalues --   -0.56155  -0.55457  -0.54644  -0.53450  -0.53164
 Alpha  occ. eigenvalues --   -0.52709  -0.52110  -0.51425  -0.51007  -0.50663
 Alpha  occ. eigenvalues --   -0.50037  -0.49637  -0.49175  -0.48519  -0.48403
 Alpha  occ. eigenvalues --   -0.47699  -0.47413  -0.46312  -0.45924  -0.45604
 Alpha  occ. eigenvalues --   -0.45436  -0.45128  -0.45038  -0.44595  -0.44464
 Alpha  occ. eigenvalues --   -0.43782  -0.43497  -0.43233  -0.42976  -0.42478
 Alpha  occ. eigenvalues --   -0.42089  -0.41975  -0.41703  -0.41594  -0.40957
 Alpha  occ. eigenvalues --   -0.40805  -0.40625  -0.40425  -0.40012  -0.39880
 Alpha  occ. eigenvalues --   -0.39390  -0.39142  -0.39021  -0.38534  -0.38295
 Alpha  occ. eigenvalues --   -0.38117  -0.37602  -0.37181  -0.36937  -0.36464
 Alpha  occ. eigenvalues --   -0.36404  -0.35769  -0.35062  -0.34759  -0.34482
 Alpha  occ. eigenvalues --   -0.33994  -0.33972  -0.33808  -0.32928  -0.32120
 Alpha  occ. eigenvalues --   -0.31964  -0.31672  -0.31357  -0.30980  -0.29878
 Alpha  occ. eigenvalues --   -0.28325  -0.27059  -0.26700  -0.26105  -0.25797
 Alpha  occ. eigenvalues --   -0.25447  -0.24690  -0.23879  -0.23664  -0.22080
 Alpha  occ. eigenvalues --   -0.18416
 Alpha virt. eigenvalues --   -0.10921  -0.06104  -0.04329  -0.02954  -0.01974
 Alpha virt. eigenvalues --   -0.00679   0.01322   0.01729   0.03457   0.03832
 Alpha virt. eigenvalues --    0.04021   0.04242   0.04618   0.05484   0.05883

 Mulliken charges:
               1
     1  O   -0.276516
     2  O   -0.235636
     3  O   -0.219167
     4  O   -0.187206
     5  O   -0.281345
     6  O   -0.300523
     7  N   -0.050449
     8  N   -0.174450
     9  N   -0.166274
    10  N   -0.256704
    11  C   -0.121290
    12  C    0.091801
    13  C   -0.148144
    14  C    0.084279
    15  C   -0.087443
    16  C    0.063822
    17  C   -0.024541
    18  C   -0.134293
    19  C   -0.001599
    20  C   -0.045980
    21  C    0.112473
    22  C    0.076134
    23  C   -0.059391
    24  C    0.129215
    25  C   -0.130118
    26  C    0.106911
    27  C    0.121533
    28  C    0.153839
    29  C   -0.049576
    30  C    0.118095
    31  C   -0.139936
    32  C    0.109042
    33  C   -0.150755
    34  C    0.055649
    35  C   -0.043788
    36  C   -0.155743
    37  C    0.125832
    38  C    0.080718
    39  C    0.201838
    40  C    0.044715
    41  C    0.152643
    42  C    0.094439
    43  C   -0.106622
    44  H    0.116613
    45  H   -0.023400
    46  H    0.044821
    47  H    0.018977
    48  H    0.050398
    49  H   -0.017672
    50  H    0.014381
    51  H    0.055066
    52  H    0.181792
    53  H    0.003718
    54  H    0.028442
    55  H   -0.002682
    56  H    0.203950
    57  H    0.069284
    58  H   -0.002807
    59  H    0.046323
    60  H    0.049641
    61  H    0.042056
    62  H    0.016792
    63  H    0.028911
    64  H    0.002578
    65  H    0.002459
    66  H    0.014062
    67  H    0.017379
    68  H   -0.027951
    69  H    0.088373
    70  H    0.004976
    71  H    0.049283
    72  H    0.023596
    73  H   -0.001153
    74  H    0.019753
    75  H    0.008994
    76  H    0.003381
    77  H    0.024569
    78  H    0.052807
    79  H    0.046669
    80  H    0.158609
    81  H    0.211524
 Sum of Mulliken charges =  -0.00000

 Dipole moment (field-independent basis, Debye):
    X=             -2.1172    Y=             -0.5482    Z=              1.3647  Tot=              2.5779
 Quadrupole moment (field-independent basis, Debye-Ang):
   XX=           -257.2054   YY=           -244.5146   ZZ=           -257.9368
   XY=             17.1241   XZ=              9.0716   YZ=            -20.3967

 Normal termination of Gaussian 16 at Sun Jun 30 22:30:56 2019.
