 Gaussian 16, Revision A.03,
 Gaussian 16:  ES64L-G16RevA.03 25-Dec-2016

 --------------------------
 # td=(NStates=1) B3LYP/SVP
 --------------------------

 --
 TD
 --
 Symbolic Z-matrix:
 Charge =  0 Multiplicity = 1

                         Standard orientation:
 ---------------------------------------------------------------------
 Center     Atomic      Atomic             Coordinates (Angstroms)
 Number     Number       Type             X           Y           Z
 ---------------------------------------------------------------------
      1          8           0       -4.725971   -4.429555    1.981954
      2          8           0        2.723279   -4.842499    1.153482
      3          8           0        6.811004   -1.750965    2.013920
      4          8           0        3.642034   -3.329296   -0.074983
      5          8           0        7.604298   -0.803843    0.160780
      6          8           0       -2.851196    2.505960   -0.095855
      7          7           0       -0.362156   -0.529612   -0.704570
      8          7           0        1.656615    1.806826   -0.479463
      9          7           0       -3.505589   -2.974963    0.729611
     10          7           0       -0.534519    2.795436   -0.050422
     11          6           0        0.491905   -2.492656   -1.377469
     12          6           0        0.886344   -1.155102   -0.955954
     13          6           0       -0.917176   -2.591671   -1.184607
     14          6           0       -1.347598   -1.474406   -0.807498
     15          6           0        3.866488    1.285125   -0.484258
     16          6           0        2.562706    0.785505   -0.672126
     17          6           0        2.244797   -0.571077   -0.974379
     18          6           0        3.694612    2.636383   -0.095601
     19          6           0        1.460298   -3.530046   -1.958665
     20          6           0       -5.669919   -2.345398    1.404313
     21          6           0       -3.678963   -1.751727    0.092987
     22          6           0        2.324344    2.910176   -0.073176
     23          6           0       -5.137570   -1.344333    0.377159
     24          6           0        5.132882    0.409258   -0.431887
     25          6           0       -2.649781   -0.984506   -0.490181
     26          6           0       -1.698628   -3.800212   -1.660729
     27          6           0       -4.620149   -3.388116    1.379068
     28          6           0        1.723369   -4.625127   -0.953296
     29          6           0        5.387660   -0.214218    0.885255
     30          6           0        4.721103    3.649280    0.335015
     31          6           0        1.606470    4.062253    0.174934
     32          6           0       -7.207818   -2.798827    1.095429
     33          6           0       -5.807386   -0.434237   -0.205437
     34          6           0        0.123155    3.934391    0.172402
     35          6           0       -0.758508    5.101862    0.486459
     36          6           0       -1.992198    4.705710    0.286848
     37          6           0        2.821793   -4.178424    0.100014
     38          6           0       -5.245594    0.572740   -1.214843
     39          6           0        6.741417   -0.956223    0.917404
     40          6           0       -3.352734    5.320320    0.487610
     41          6           0       -1.958270    3.192961   -0.071572
     42          6           0       -0.234221    6.538842    0.845175
     43          6           0       -4.081538    5.743697   -0.778932
     44          1           0       -0.652388    0.242927   -0.291948
     45          1           0        3.062279   -1.291090   -1.145217
     46          1           0        2.563640   -3.192616   -2.347092
     47          1           0        0.866065   -3.944184   -2.792070
     48          1           0       -5.727879   -1.837768    2.382516
     49          1           0        5.088825   -0.328348   -1.165513
     50          1           0        6.100112    0.806316   -0.882535
     51          1           0       -3.026807    0.006362   -0.538387
     52          1           0        0.511713    1.929917   -0.497153
     53          1           0       -1.738070   -4.670028   -1.123827
     54          1           0       -2.654164   -3.296078   -1.688063
     55          1           0       -1.399898   -4.141426   -2.840234
     56          1           0       -2.534975   -3.378355    1.112122
     57          1           0        0.855448   -5.000403   -0.096185
     58          1           0        2.109297   -5.543474   -1.438416
     59          1           0        4.749743   -1.000019    1.274729
     60          1           0        5.494220    0.353789    1.859536
     61          1           0        4.621151    4.534778   -0.442600
     62          1           0        5.787076    3.337046    0.315573
     63          1           0        4.383136    4.466342    1.233029
     64          1           0        2.096149    4.878392    0.426361
     65          1           0       -7.882681   -2.118998    1.541017
     66          1           0       -7.404347   -3.802168    1.540939
     67          1           0       -7.442413   -2.570678   -0.213349
     68          1           0       -6.816691   -0.229753   -0.101264
     69          1           0       -4.691680    1.260767   -0.776919
     70          1           0       -6.013301    1.055092   -1.648766
     71          1           0       -4.568720    0.120022   -1.937324
     72          1           0       -3.070841    6.305110    1.037705
     73          1           0       -3.974031    4.625161    1.163489
     74          1           0        0.547135    6.692931    1.725696
     75          1           0       -0.896679    7.309044    1.059330
     76          1           0        0.220610    7.093758   -0.117449
     77          1           0       -3.255620    6.324247   -1.717648
     78          1           0       -4.758765    6.499984   -0.559987
     79          1           0       -4.714466    4.967498   -1.480798
     80          1           0        3.417417   -4.211394    1.771310
     81          1           0        7.754614   -2.008119    1.922148
 ---------------------------------------------------------------------

 SCF Done:  E(RB3LYP) =  -1948.99758321     A.U. after   16 cycles

 Excitation energies and oscillator strengths:

 Excited State   1:      Singlet-A      1.9831 eV  625.19 nm  f=0.4291  <S**2>=0.000
     156 ->157         0.70675
     156 <-157        -0.11926
 This state for optimization and/or second-order correction.
 Total Energy, E(TD-HF/TD-DFT) =  -1948.92470425
 Copying the excited state density for this state as the 1-particle RhoCI density.

 The electronic state is 1-A.
 Alpha  occ. eigenvalues --  -19.21032 -19.18195 -19.13327 -19.13209 -19.13095
 Alpha  occ. eigenvalues --  -19.10241 -14.37784 -14.35714 -14.32605 -14.30305
 Alpha  occ. eigenvalues --  -10.32257 -10.31256 -10.28375 -10.27958 -10.24774
 Alpha  occ. eigenvalues --  -10.23843 -10.23453 -10.22599 -10.22238 -10.21747
 Alpha  occ. eigenvalues --  -10.21587 -10.21541 -10.21384 -10.21296 -10.21262
 Alpha  occ. eigenvalues --  -10.21211 -10.21068 -10.21001 -10.20778 -10.20773
 Alpha  occ. eigenvalues --  -10.19956 -10.19936 -10.19843 -10.19726 -10.19488
 Alpha  occ. eigenvalues --  -10.19456 -10.19255 -10.19095 -10.18725 -10.18208
 Alpha  occ. eigenvalues --  -10.17794 -10.17421 -10.15552  -1.14340  -1.11470
 Alpha  occ. eigenvalues --   -1.08685  -1.03866  -1.02616  -1.02406  -0.98348
 Alpha  occ. eigenvalues --   -0.96707  -0.95290  -0.92073  -0.82214  -0.81895
 Alpha  occ. eigenvalues --   -0.81455  -0.80363  -0.80156  -0.78538  -0.77287
 Alpha  occ. eigenvalues --   -0.76788  -0.75740  -0.74821  -0.73768  -0.71415
 Alpha  occ. eigenvalues --   -0.70027  -0.69155  -0.69049  -0.68205  -0.66963
 Alpha  occ. eigenvalues --   -0.66628  -0.65843  -0.64537  -0.62357  -0.61102
 Alpha  occ. eigenvalues --   -0.59901  -0.58833  -0.57753  -0.57653  -0.56157
 Alpha  occ. eigenvalues --   -0.55744  -0.55159  -0.54884  -0.54180  -0.53620
 Alpha  occ. eigenvalues --   -0.52576  -0.51248  -0.51054  -0.50226  -0.49638
 Alpha  occ. eigenvalues --   -0.49372  -0.49006  -0.48789  -0.48352  -0.48099
 Alpha  occ. eigenvalues --   -0.47221  -0.47083  -0.46563  -0.46068  -0.45413
 Alpha  occ. eigenvalues --   -0.45144  -0.44912  -0.44331  -0.43944  -0.43820
 Alpha  occ. eigenvalues --   -0.43481  -0.43049  -0.42835  -0.42702  -0.41863
 Alpha  occ. eigenvalues --   -0.41779  -0.41528  -0.41425  -0.41168  -0.40980
 Alpha  occ. eigenvalues --   -0.40710  -0.40584  -0.40282  -0.40261  -0.39940
 Alpha  occ. eigenvalues --   -0.39422  -0.39070  -0.38885  -0.38429  -0.38368
 Alpha  occ. eigenvalues --   -0.37903  -0.37520  -0.37260  -0.37052  -0.36423
 Alpha  occ. eigenvalues --   -0.36080  -0.36002  -0.35126  -0.34855  -0.34625
 Alpha  occ. eigenvalues --   -0.33987  -0.33843  -0.33725  -0.33557  -0.33266
 Alpha  occ. eigenvalues --   -0.32538  -0.32234  -0.32111  -0.29990  -0.29860
 Alpha  occ. eigenvalues --   -0.29015  -0.28559  -0.26961  -0.26493  -0.25355
 Alpha  occ. eigenvalues --   -0.25133  -0.24898  -0.24582  -0.23291  -0.21454
 Alpha  occ. eigenvalues --   -0.17448
 Alpha virt. eigenvalues --   -0.09754  -0.05369  -0.03284  -0.00903  -0.00701
 Alpha virt. eigenvalues --    0.01648   0.02238   0.02757   0.03156   0.03435
 Alpha virt. eigenvalues --    0.04533   0.05143   0.05255   0.05425   0.05687

 Mulliken charges:
               1
     1  O   -0.209070
     2  O   -0.150333
     3  O   -0.194794
     4  O   -0.237682
     5  O   -0.176971
     6  O   -0.081654
     7  N   -0.023527
     8  N   -0.159240
     9  N   -0.132806
    10  N   -0.345423
    11  C   -0.133878
    12  C    0.060978
    13  C   -0.181509
    14  C    0.131581
    15  C   -0.080280
    16  C    0.105761
    17  C   -0.059483
    18  C   -0.093160
    19  C    0.119275
    20  C   -0.027447
    21  C    0.024263
    22  C    0.116424
    23  C    0.047992
    24  C    0.141921
    25  C   -0.078228
    26  C    0.081616
    27  C    0.092746
    28  C   -0.087068
    29  C    0.025722
    30  C    0.013389
    31  C   -0.050776
    32  C   -0.007688
    33  C   -0.205883
    34  C    0.071302
    35  C   -0.033161
    36  C   -0.205449
    37  C    0.093481
    38  C    0.172590
    39  C    0.077186
    40  C    0.070068
    41  C    0.168539
    42  C    0.037272
    43  C   -0.076106
    44  H    0.074635
    45  H    0.017459
    46  H    0.058638
    47  H    0.002342
    48  H    0.052698
    49  H   -0.023486
    50  H    0.021965
    51  H   -0.028220
    52  H    0.191104
    53  H    0.004027
    54  H    0.018902
    55  H    0.034448
    56  H    0.186623
    57  H    0.064381
    58  H    0.043508
    59  H    0.008820
    60  H    0.032037
    61  H    0.021612
    62  H    0.033978
    63  H    0.036425
    64  H   -0.114059
    65  H    0.008689
    66  H    0.050874
    67  H    0.041293
    68  H   -0.040372
    69  H   -0.000141
    70  H   -0.039913
    71  H    0.017879
    72  H    0.012381
    73  H    0.044097
    74  H    0.041983
    75  H   -0.014358
    76  H    0.036553
    77  H    0.019406
    78  H    0.011220
    79  H    0.050168
    80  H    0.234669
    81  H    0.167243
 Sum of Mulliken charges =  -0.00000

 Dipole moment (field-independent basis, Debye):
    X=              0.9955    Y=              1.8124    Z=              1.2792  Tot=              2.4314
 Quadrupole moment (field-independent basis, Debye-Ang):
   XX=           -251.1610   YY=           -240.0754   ZZ=           -254.1651
   XY=            -22.7548   XZ=             13.0381   YZ=             10.3854

 Normal termination of Gaussian 16 at Thu Jul  4 17:42:00 2019.
