 Gaussian 16, Revision A.03,
 Gaussian 16:  ES64L-G16RevA.03 25-Dec-2016

 --------------------------
 # td=(NStates=1) B3LYP/SVP
 --------------------------

 --
 TD
 --
 Symbolic Z-matrix:
 Charge =  0 Multiplicity = 1

                         Standard orientation:
 ---------------------------------------------------------------------
 Center     Atomic      Atomic             Coordinates (Angstroms)
 Number     Number       Type             X           Y           Z
 ---------------------------------------------------------------------
      1          8           0        4.344375   -4.754228   -1.860629
      2          8           0       -2.850682   -4.883510   -1.309952
      3          8           0       -7.272624   -1.462323   -1.739489
      4          8           0       -3.781198   -3.291553   -0.122065
      5          8           0       -7.676432   -0.444287    0.220455
      6          8           0        2.944062    2.471794    0.230484
      7          7           0        0.351300   -0.560438    0.638339
      8          7           0       -1.548777    1.855668    0.346554
      9          7           0        3.397871   -3.173722   -0.670892
     10          7           0        0.675037    2.994112    0.127296
     11          6           0       -0.618644   -2.413930    1.281781
     12          6           0       -0.885350   -1.135157    0.940807
     13          6           0        0.752341   -2.641265    1.344276
     14          6           0        1.404317   -1.505122    0.784815
     15          6           0       -3.776812    1.424433    0.263479
     16          6           0       -2.526284    0.828574    0.516091
     17          6           0       -2.240628   -0.562514    0.855328
     18          6           0       -3.571387    2.704386   -0.112839
     19          6           0       -1.684010   -3.330272    1.938180
     20          6           0        5.515472   -2.678973   -1.351647
     21          6           0        3.583474   -1.897785   -0.131276
     22          6           0       -2.118728    2.978141   -0.074786
     23          6           0        5.032583   -1.540084   -0.415173
     24          6           0       -5.081460    0.711010    0.431635
     25          6           0        2.736689   -1.064621    0.416691
     26          6           0        1.501300   -3.925832    1.722235
     27          6           0        4.371323   -3.585527   -1.488102
     28          6           0       -1.981972   -4.481389    0.914459
     29          6           0       -5.461435   -0.271211   -0.735796
     30          6           0       -4.509873    3.876032   -0.378790
     31          6           0       -1.414836    4.240920   -0.271577
     32          6           0        6.911837   -3.248894   -0.976469
     33          6           0        5.915229   -0.602098    0.121797
     34          6           0        0.044893    4.157786   -0.211701
     35          6           0        1.018362    5.214100   -0.519487
     36          6           0        2.262415    4.717710   -0.333372
     37          6           0       -2.964808   -4.136308   -0.208402
     38          6           0        5.502568    0.306652    1.259087
     39          6           0       -6.892525   -0.698999   -0.696338
     40          6           0        3.602347    5.360796   -0.365345
     41          6           0        2.023634    3.318346    0.142752
     42          6           0        0.785708    6.643128   -0.883039
     43          6           0        4.249269    5.667928    0.856631
     44          1           0        0.339433    0.240232    0.173607
     45          1           0       -3.077715   -1.198290    0.830117
     46          1           0       -2.446729   -2.706442    2.223259
     47          1           0       -1.435887   -3.533539    2.811891
     48          1           0        5.837626   -2.221158   -2.317607
     49          1           0       -4.938829   -0.099797    1.294977
     50          1           0       -5.909510    1.369329    0.722437
     51          1           0        3.131630   -0.071877    0.822640
     52          1           0       -0.443657    1.901398    0.494192
     53          1           0        1.352158   -4.677430    0.837976
     54          1           0        2.595149   -3.696105    1.571110
     55          1           0        1.147091   -4.402733    2.665971
     56          1           0        2.537327   -3.753266   -0.401662
     57          1           0       -1.015770   -4.904087    0.600637
     58          1           0       -2.536884   -5.368064    1.316220
     59          1           0       -4.921002   -1.272393   -0.543593
     60          1           0       -5.114972    0.088271   -1.876049
     61          1           0       -4.462289    4.791626    0.209554
     62          1           0       -5.437368    3.470389   -0.374762
     63          1           0       -4.283943    4.063666   -1.218712
     64          1           0       -1.723328    5.200995   -0.821279
     65          1           0        7.735127   -2.566532   -1.090578
     66          1           0        7.183756   -4.005168   -1.813514
     67          1           0        7.040345   -3.704157   -0.066099
     68          1           0        6.780688   -0.856155   -0.105102
     69          1           0        5.186190    1.349846    0.951901
     70          1           0        6.195884    0.395720    1.887567
     71          1           0        4.521080   -0.073453    1.865411
     72          1           0        3.660084    6.314927   -1.124110
     73          1           0        4.175458    4.423740   -0.901521
     74          1           0       -0.140491    6.771189   -1.685776
     75          1           0        1.731197    7.105465   -1.394213
     76          1           0        0.485055    7.078826   -0.074279
     77          1           0        3.402986    6.332575    1.346042
     78          1           0        5.250397    6.342771    0.761721
     79          1           0        4.673816    4.740904    1.573946
     80          1           0       -3.595269   -4.736344   -1.970315
     81          1           0       -8.176916   -1.611135   -1.436945
 ---------------------------------------------------------------------

 SCF Done:  E(RB3LYP) =  -1948.99971428     A.U. after   17 cycles

 Excitation energies and oscillator strengths:

 Excited State   1:      Singlet-A      2.0170 eV  614.68 nm  f=0.3639  <S**2>=0.000
     156 ->157         0.70439
     156 <-157        -0.10746
 This state for optimization and/or second-order correction.
 Total Energy, E(TD-HF/TD-DFT) =  -1948.92558952
 Copying the excited state density for this state as the 1-particle RhoCI density.

 The electronic state is 1-A.
 Alpha  occ. eigenvalues --  -19.19361 -19.18683 -19.13982 -19.12674 -19.09952
 Alpha  occ. eigenvalues --  -19.09559 -14.37212 -14.36642 -14.35868 -14.29480
 Alpha  occ. eigenvalues --  -10.33434 -10.32222 -10.28399 -10.26352 -10.24568
 Alpha  occ. eigenvalues --  -10.23982 -10.23908 -10.23672 -10.23592 -10.22814
 Alpha  occ. eigenvalues --  -10.22759 -10.22484 -10.22334 -10.21791 -10.21266
 Alpha  occ. eigenvalues --  -10.20700 -10.20508 -10.20465 -10.20399 -10.20385
 Alpha  occ. eigenvalues --  -10.20040 -10.19985 -10.19924 -10.19844 -10.19749
 Alpha  occ. eigenvalues --  -10.19046 -10.18881 -10.18854 -10.18851 -10.18777
 Alpha  occ. eigenvalues --  -10.18636 -10.17723 -10.16776  -1.11782  -1.10640
 Alpha  occ. eigenvalues --   -1.03374  -1.02611  -0.99880  -0.99810  -0.98073
 Alpha  occ. eigenvalues --   -0.97385  -0.94673  -0.91620  -0.82899  -0.82337
 Alpha  occ. eigenvalues --   -0.81355  -0.80869  -0.80721  -0.79060  -0.77876
 Alpha  occ. eigenvalues --   -0.77177  -0.76352  -0.75913  -0.74814  -0.72947
 Alpha  occ. eigenvalues --   -0.72342  -0.70270  -0.69640  -0.69392  -0.68436
 Alpha  occ. eigenvalues --   -0.67646  -0.66200  -0.65213  -0.62322  -0.61838
 Alpha  occ. eigenvalues --   -0.60496  -0.59329  -0.58734  -0.57987  -0.57654
 Alpha  occ. eigenvalues --   -0.56123  -0.55377  -0.54681  -0.54410  -0.53366
 Alpha  occ. eigenvalues --   -0.52330  -0.51725  -0.51312  -0.50092  -0.49784
 Alpha  occ. eigenvalues --   -0.49423  -0.49225  -0.49088  -0.48224  -0.48163
 Alpha  occ. eigenvalues --   -0.47382  -0.47118  -0.46375  -0.45650  -0.45441
 Alpha  occ. eigenvalues --   -0.44941  -0.44798  -0.44496  -0.44201  -0.44097
 Alpha  occ. eigenvalues --   -0.43858  -0.43161  -0.42737  -0.42591  -0.42376
 Alpha  occ. eigenvalues --   -0.41994  -0.41766  -0.41677  -0.41412  -0.41305
 Alpha  occ. eigenvalues --   -0.40918  -0.40746  -0.40070  -0.39892  -0.39741
 Alpha  occ. eigenvalues --   -0.39599  -0.39463  -0.39272  -0.38996  -0.38931
 Alpha  occ. eigenvalues --   -0.38426  -0.38295  -0.37951  -0.37458  -0.36757
 Alpha  occ. eigenvalues --   -0.36423  -0.36013  -0.35873  -0.35481  -0.34586
 Alpha  occ. eigenvalues --   -0.34227  -0.34126  -0.33686  -0.32483  -0.32328
 Alpha  occ. eigenvalues --   -0.32260  -0.31926  -0.30858  -0.29754  -0.29381
 Alpha  occ. eigenvalues --   -0.28392  -0.28162  -0.26314  -0.25699  -0.25315
 Alpha  occ. eigenvalues --   -0.25292  -0.24493  -0.24132  -0.23446  -0.22018
 Alpha  occ. eigenvalues --   -0.18677
 Alpha virt. eigenvalues --   -0.10671  -0.06215  -0.03864  -0.00794  -0.00450
 Alpha virt. eigenvalues --    0.00335   0.02211   0.02631   0.03225   0.03727
 Alpha virt. eigenvalues --    0.04287   0.04752   0.05355   0.05566   0.06369

 Mulliken charges:
               1
     1  O   -0.236709
     2  O   -0.195347
     3  O   -0.163312
     4  O   -0.190201
     5  O   -0.262283
     6  O   -0.245373
     7  N   -0.046182
     8  N   -0.142291
     9  N   -0.117250
    10  N   -0.311430
    11  C   -0.161028
    12  C    0.073660
    13  C   -0.163716
    14  C    0.071548
    15  C   -0.039776
    16  C    0.073459
    17  C   -0.017284
    18  C   -0.212272
    19  C    0.291329
    20  C   -0.076232
    21  C    0.097788
    22  C    0.070296
    23  C   -0.071507
    24  C    0.052510
    25  C   -0.102609
    26  C    0.029660
    27  C    0.142577
    28  C    0.015934
    29  C   -0.082324
    30  C    0.346141
    31  C   -0.101689
    32  C    0.052770
    33  C    0.054985
    34  C    0.042516
    35  C   -0.104309
    36  C   -0.146914
    37  C    0.105679
    38  C    0.079826
    39  C    0.137916
    40  C    0.009966
    41  C    0.160779
    42  C    0.110185
    43  C   -0.072184
    44  H    0.070983
    45  H   -0.009298
    46  H   -0.041335
    47  H   -0.088415
    48  H    0.040583
    49  H    0.027956
    50  H    0.034696
    51  H    0.067430
    52  H    0.189557
    53  H    0.043239
    54  H    0.038514
    55  H    0.043006
    56  H    0.147079
    57  H    0.028072
    58  H    0.040198
    59  H    0.085537
    60  H    0.064916
    61  H    0.027994
    62  H   -0.038588
    63  H   -0.090722
    64  H    0.009494
    65  H    0.011810
    66  H    0.024723
    67  H    0.000673
    68  H   -0.129785
    69  H    0.065614
    70  H   -0.052132
    71  H    0.035604
    72  H    0.027628
    73  H    0.033320
    74  H    0.023570
    75  H    0.040700
    76  H   -0.013740
    77  H    0.019896
    78  H    0.032050
    79  H    0.058923
    80  H    0.208199
    81  H    0.164750
 Sum of Mulliken charges =  -0.00000

 Dipole moment (field-independent basis, Debye):
    X=             -1.8706    Y=              0.3542    Z=              0.0461  Tot=              1.9044
 Quadrupole moment (field-independent basis, Debye-Ang):
   XX=           -250.2989   YY=           -238.9740   ZZ=           -254.4177
   XY=             18.1790   XZ=             17.0366   YZ=            -15.2469

 Normal termination of Gaussian 16 at Sat Jun 29 20:59:23 2019.
