 Gaussian 16, Revision A.03,
 Gaussian 16:  ES64L-G16RevA.03 25-Dec-2016

 --------------------------
 # td=(NStates=1) B3LYP/SVP
 --------------------------

 --
 TD
 --
 Symbolic Z-matrix:
 Charge =  0 Multiplicity = 1

                         Standard orientation:
 ---------------------------------------------------------------------
 Center     Atomic      Atomic             Coordinates (Angstroms)
 Number     Number       Type             X           Y           Z
 ---------------------------------------------------------------------
      1          8           0       -4.680557   -4.702710    1.868663
      2          8           0        2.819238   -4.733679    1.420483
      3          8           0        7.094088   -1.312867    1.957402
      4          8           0        3.741666   -3.141613    0.097343
      5          8           0        7.622751   -0.671279   -0.157735
      6          8           0       -3.041094    2.556161   -0.123189
      7          7           0       -0.271585   -0.608930   -0.506254
      8          7           0        1.561733    1.738484   -0.544347
      9          7           0       -3.393423   -3.197612    0.662960
     10          7           0       -0.715848    2.877696   -0.044142
     11          6           0        0.712252   -2.491780   -1.470109
     12          6           0        0.905078   -1.172209   -0.931485
     13          6           0       -0.702646   -2.693954   -1.342802
     14          6           0       -1.290533   -1.494455   -0.734801
     15          6           0        3.735614    1.388337   -0.322214
     16          6           0        2.500611    0.721321   -0.644701
     17          6           0        2.201564   -0.615077   -0.901770
     18          6           0        3.491643    2.740509   -0.063419
     19          6           0        1.675645   -3.516003   -1.844417
     20          6           0       -5.600299   -2.450417    1.384386
     21          6           0       -3.585809   -1.829067    0.147460
     22          6           0        2.069513    2.970413   -0.129869
     23          6           0       -5.030077   -1.520797    0.341388
     24          6           0        5.131437    0.720737   -0.485861
     25          6           0       -2.560023   -0.999552   -0.425098
     26          6           0       -1.434916   -3.941000   -1.757950
     27          6           0       -4.518857   -3.596407    1.397496
     28          6           0        2.104909   -4.510159   -0.832360
     29          6           0        5.447823   -0.080290    0.701485
     30          6           0        4.455223    3.815091    0.374345
     31          6           0        1.360881    4.051239    0.188265
     32          6           0       -6.992112   -3.003347    1.179469
     33          6           0       -5.763941   -0.587639   -0.375416
     34          6           0       -0.022696    3.912714    0.242921
     35          6           0       -0.883394    5.188025    0.492101
     36          6           0       -2.179670    4.784751    0.285114
     37          6           0        2.988787   -4.090200    0.322400
     38          6           0       -5.308879    0.358638   -1.478591
     39          6           0        6.768985   -0.713666    0.779262
     40          6           0       -3.597246    5.368056    0.485726
     41          6           0       -2.092672    3.277844    0.075952
     42          6           0       -0.413197    6.535316    0.922815
     43          6           0       -4.371779    5.541271   -0.856529
     44          1           0       -0.460994    0.285851   -0.080785
     45          1           0        2.975183   -1.390048   -0.931787
     46          1           0        2.602857   -2.915053   -2.217433
     47          1           0        1.256533   -4.125859   -2.651752
     48          1           0       -5.656690   -1.971788    2.383351
     49          1           0        5.065767    0.255848   -1.439703
     50          1           0        5.913310    1.524767   -0.645129
     51          1           0       -2.771778    0.111433   -0.218356
     52          1           0        0.565290    1.862909   -0.649890
     53          1           0       -1.713142   -4.653252   -0.895850
     54          1           0       -2.336545   -3.538852   -1.929751
     55          1           0       -0.965712   -4.599813   -2.719829
     56          1           0       -2.696600   -3.896264    0.532027
     57          1           0        1.147552   -5.172648   -0.604190
     58          1           0        2.537004   -5.511035   -1.450091
     59          1           0        4.583470   -0.937685    0.838265
     60          1           0        5.594085    0.346372    1.705778
     61          1           0        4.351630    4.812466   -0.236676
     62          1           0        5.522008    3.528307    0.374111
     63          1           0        4.327350    4.008479    1.393051
     64          1           0        1.798408    4.986089    0.525187
     65          1           0       -7.651047   -2.235359    1.313241
     66          1           0       -7.263919   -3.865355    1.843193
     67          1           0       -7.141010   -3.278975    0.136539
     68          1           0       -6.840019   -0.599245    0.146088
     69          1           0       -4.841296    1.320592   -0.951860
     70          1           0       -6.246110    0.642684   -2.026674
     71          1           0       -4.368620    0.099743   -2.282036
     72          1           0       -3.629236    6.300572    1.092503
     73          1           0       -4.208461    4.732489    1.058859
     74          1           0       -0.068260    6.837819    1.848821
     75          1           0       -1.328080    7.352167    0.633287
     76          1           0        0.264971    6.984295    0.234863
     77          1           0       -3.865287    6.278646   -1.743304
     78          1           0       -5.316040    5.993742   -0.758473
     79          1           0       -4.671893    4.392825   -1.218908
     80          1           0        3.531742   -4.424966    2.055989
     81          1           0        8.081387   -1.570913    1.716892
 ---------------------------------------------------------------------

 SCF Done:  E(RB3LYP) =  -1949.12048718     A.U. after   17 cycles

 Excitation energies and oscillator strengths:

 Excited State   1:      Singlet-A      1.8579 eV  667.35 nm  f=0.4141  <S**2>=0.000
     156 ->157         0.70976
     156 <-157        -0.12406
 This state for optimization and/or second-order correction.
 Total Energy, E(TD-HF/TD-DFT) =  -1949.05221229
 Copying the excited state density for this state as the 1-particle RhoCI density.

 The electronic state is 1-A.
 Alpha  occ. eigenvalues --  -19.22455 -19.18838 -19.14303 -19.11613 -19.11612
 Alpha  occ. eigenvalues --  -19.11001 -14.37861 -14.37014 -14.34782 -14.29680
 Alpha  occ. eigenvalues --  -10.34468 -10.31613 -10.29012 -10.27442 -10.25559
 Alpha  occ. eigenvalues --  -10.23551 -10.23268 -10.23172 -10.22989 -10.22754
 Alpha  occ. eigenvalues --  -10.22728 -10.21559 -10.21155 -10.21062 -10.20966
 Alpha  occ. eigenvalues --  -10.20912 -10.20809 -10.20609 -10.20541 -10.20434
 Alpha  occ. eigenvalues --  -10.20304 -10.20087 -10.20069 -10.20017 -10.19964
 Alpha  occ. eigenvalues --  -10.19726 -10.19716 -10.19577 -10.19574 -10.19450
 Alpha  occ. eigenvalues --  -10.19433 -10.17773 -10.17739  -1.14068  -1.08165
 Alpha  occ. eigenvalues --   -1.03142  -1.02978  -1.02748  -0.98634  -0.97193
 Alpha  occ. eigenvalues --   -0.96994  -0.93214  -0.92917  -0.83226  -0.81909
 Alpha  occ. eigenvalues --   -0.81497  -0.81058  -0.79427  -0.78931  -0.77943
 Alpha  occ. eigenvalues --   -0.77557  -0.76182  -0.74855  -0.74020  -0.72505
 Alpha  occ. eigenvalues --   -0.71297  -0.69885  -0.69566  -0.69231  -0.67929
 Alpha  occ. eigenvalues --   -0.67306  -0.65135  -0.63932  -0.63126  -0.61851
 Alpha  occ. eigenvalues --   -0.60753  -0.58687  -0.57492  -0.57125  -0.56757
 Alpha  occ. eigenvalues --   -0.55887  -0.55322  -0.55000  -0.53466  -0.52949
 Alpha  occ. eigenvalues --   -0.52868  -0.52008  -0.51529  -0.51078  -0.49504
 Alpha  occ. eigenvalues --   -0.49156  -0.49040  -0.48402  -0.48235  -0.48060
 Alpha  occ. eigenvalues --   -0.47336  -0.46401  -0.46151  -0.45682  -0.45206
 Alpha  occ. eigenvalues --   -0.44646  -0.44546  -0.44128  -0.43819  -0.43475
 Alpha  occ. eigenvalues --   -0.43168  -0.43011  -0.42663  -0.42429  -0.42229
 Alpha  occ. eigenvalues --   -0.42039  -0.41876  -0.41589  -0.41300  -0.40806
 Alpha  occ. eigenvalues --   -0.40496  -0.40340  -0.40103  -0.39836  -0.39776
 Alpha  occ. eigenvalues --   -0.39717  -0.39452  -0.39182  -0.38412  -0.38023
 Alpha  occ. eigenvalues --   -0.37920  -0.37740  -0.37337  -0.36770  -0.35933
 Alpha  occ. eigenvalues --   -0.35556  -0.35459  -0.34963  -0.34757  -0.34512
 Alpha  occ. eigenvalues --   -0.34363  -0.34207  -0.33536  -0.33295  -0.32885
 Alpha  occ. eigenvalues --   -0.32573  -0.32470  -0.30936  -0.29949  -0.29838
 Alpha  occ. eigenvalues --   -0.28542  -0.26933  -0.26429  -0.26183  -0.25137
 Alpha  occ. eigenvalues --   -0.25068  -0.24910  -0.24618  -0.24052  -0.21730
 Alpha  occ. eigenvalues --   -0.17246
 Alpha virt. eigenvalues --   -0.10043  -0.06107  -0.04161  -0.02548  -0.00244
 Alpha virt. eigenvalues --    0.00027   0.01787   0.02452   0.02905   0.03666
 Alpha virt. eigenvalues --    0.03860   0.04162   0.04899   0.05218   0.05421

 Mulliken charges:
               1
     1  O   -0.213579
     2  O   -0.109658
     3  O   -0.230541
     4  O   -0.255361
     5  O   -0.298837
     6  O   -0.192466
     7  N   -0.046366
     8  N   -0.112199
     9  N   -0.165210
    10  N   -0.279789
    11  C   -0.102071
    12  C    0.064031
    13  C   -0.150044
    14  C    0.110593
    15  C   -0.138867
    16  C    0.141018
    17  C   -0.100134
    18  C   -0.120439
    19  C    0.122349
    20  C   -0.065798
    21  C    0.087813
    22  C    0.137224
    23  C   -0.071996
    24  C    0.160391
    25  C   -0.159204
    26  C    0.056159
    27  C    0.122022
    28  C   -0.076298
    29  C   -0.027186
    30  C    0.101313
    31  C   -0.156141
    32  C    0.087444
    33  C   -0.104512
    34  C    0.071706
    35  C   -0.107627
    36  C   -0.122994
    37  C    0.168848
    38  C   -0.048656
    39  C    0.152993
    40  C    0.110466
    41  C    0.156566
    42  C    0.070447
    43  C   -0.087761
    44  H    0.131306
    45  H    0.023280
    46  H    0.031541
    47  H   -0.009360
    48  H    0.041999
    49  H    0.017514
    50  H    0.012896
    51  H    0.064178
    52  H    0.113109
    53  H    0.026924
    54  H   -0.007239
    55  H    0.053219
    56  H    0.115414
    57  H    0.025542
    58  H    0.055958
    59  H    0.086477
    60  H    0.028890
    61  H    0.036780
    62  H    0.000123
    63  H    0.005392
    64  H   -0.029530
    65  H   -0.016290
    66  H    0.042028
    67  H    0.000641
    68  H    0.021059
    69  H    0.101201
    70  H    0.027889
    71  H    0.070500
    72  H   -0.003186
    73  H   -0.000497
    74  H    0.023163
    75  H    0.019365
    76  H    0.005139
    77  H    0.031777
    78  H   -0.000634
    79  H    0.054129
    80  H    0.208383
    81  H    0.213269
 Sum of Mulliken charges =  -0.00000

 Dipole moment (field-independent basis, Debye):
    X=              1.7331    Y=              0.3929    Z=              1.6953  Tot=              2.4561
 Quadrupole moment (field-independent basis, Debye-Ang):
   XX=           -261.4101   YY=           -233.6819   ZZ=           -254.5361
   XY=            -18.1312   XZ=             18.5119   YZ=             12.5247

 Normal termination of Gaussian 16 at Tue Jul  2 15:48:14 2019.
