 Gaussian 16, Revision A.03,
 Gaussian 16:  ES64L-G16RevA.03 25-Dec-2016

 --------------------------
 # td=(NStates=1) B3LYP/SVP
 --------------------------

 --
 TD
 --
 Symbolic Z-matrix:
 Charge =  0 Multiplicity = 1

                         Standard orientation:
 ---------------------------------------------------------------------
 Center     Atomic      Atomic             Coordinates (Angstroms)
 Number     Number       Type             X           Y           Z
 ---------------------------------------------------------------------
      1          8           0        4.621100   -4.688634   -1.758940
      2          8           0       -2.762645   -4.773030   -1.453992
      3          8           0       -7.102546   -1.648484   -1.750601
      4          8           0       -3.614711   -3.104760   -0.184302
      5          8           0       -7.631150   -0.597017    0.206094
      6          8           0        2.936744    2.526310    0.192223
      7          7           0        0.290693   -0.601565    0.534732
      8          7           0       -1.540545    1.772416    0.271764
      9          7           0        3.468954   -2.997120   -0.664130
     10          7           0        0.726304    2.989046    0.158518
     11          6           0       -0.662005   -2.408392    1.400388
     12          6           0       -0.907675   -1.176465    0.918563
     13          6           0        0.767885   -2.691872    1.256083
     14          6           0        1.403570   -1.457791    0.777822
     15          6           0       -3.738049    1.384849    0.349980
     16          6           0       -2.509994    0.787670    0.523605
     17          6           0       -2.182531   -0.528231    0.917736
     18          6           0       -3.629370    2.764523    0.070617
     19          6           0       -1.525655   -3.571634    1.837802
     20          6           0        5.567734   -2.512876   -1.388031
     21          6           0        3.720149   -1.787594   -0.125560
     22          6           0       -2.211626    2.937106   -0.021260
     23          6           0        5.098293   -1.433800   -0.381017
     24          6           0       -5.131294    0.645888    0.466678
     25          6           0        2.751669   -1.053671    0.526041
     26          6           0        1.582956   -3.886850    1.717864
     27          6           0        4.479332   -3.580333   -1.283079
     28          6           0       -1.988965   -4.640104    0.830244
     29          6           0       -5.518712   -0.119579   -0.816693
     30          6           0       -4.727204    3.687228   -0.146141
     31          6           0       -1.422410    4.072975   -0.214180
     32          6           0        6.943638   -2.968792   -1.072024
     33          6           0        5.882779   -0.492925    0.330418
     34          6           0       -0.042092    4.093867   -0.240676
     35          6           0        0.845574    5.124085   -0.521952
     36          6           0        2.195633    4.671023   -0.510579
     37          6           0       -2.894192   -4.098434   -0.319977
     38          6           0        5.445992    0.540314    1.277148
     39          6           0       -6.798657   -0.872597   -0.686040
     40          6           0        3.520286    5.385903   -0.478716
     41          6           0        2.022489    3.284771   -0.036572
     42          6           0        0.413672    6.409814   -0.962970
     43          6           0        4.080199    5.639663    0.929967
     44          1           0        0.415265    0.267400    0.113380
     45          1           0       -3.055480   -1.107024    1.276399
     46          1           0       -2.506351   -3.194937    2.208352
     47          1           0       -1.040772   -4.217200    2.811244
     48          1           0        5.564151   -2.135739   -2.378124
     49          1           0       -5.134001   -0.203415    1.326292
     50          1           0       -5.884268    1.343790    0.600840
     51          1           0        2.844740    0.004893    0.485822
     52          1           0       -0.400896    1.867785    0.566730
     53          1           0        1.630545   -4.656849    0.908818
     54          1           0        2.528971   -3.751136    2.046332
     55          1           0        1.025479   -4.390791    2.576887
     56          1           0        2.654094   -3.695629   -0.497070
     57          1           0       -1.274195   -5.376756    0.423648
     58          1           0       -2.589211   -5.274023    1.375841
     59          1           0       -4.666432   -0.856086   -0.874739
     60          1           0       -5.469545    0.526621   -1.829103
     61          1           0       -4.815552    4.573441    0.316339
     62          1           0       -5.740155    3.177369    0.035462
     63          1           0       -4.712439    3.960402   -1.104774
     64          1           0       -1.814436    5.170347   -0.453026
     65          1           0        7.713508   -2.249277   -1.172328
     66          1           0        7.126888   -3.759433   -1.740226
     67          1           0        7.085945   -3.315895    0.018252
     68          1           0        6.775323   -0.315472    0.013388
     69          1           0        4.803755    1.256225    0.639278
     70          1           0        6.328105    1.232652    1.558981
     71          1           0        4.862015    0.113723    2.059199
     72          1           0        3.677080    6.234550   -1.180197
     73          1           0        4.113932    4.565647   -0.851074
     74          1           0       -0.033715    6.505046   -2.148002
     75          1           0        1.339485    7.003206   -0.978665
     76          1           0       -0.327012    6.798693   -0.318899
     77          1           0        3.571530    6.579032    1.345175
     78          1           0        5.187811    6.140173    1.073424
     79          1           0        4.259425    4.819923    1.636630
     80          1           0       -3.349661   -4.268724   -2.085145
     81          1           0       -7.874619   -2.113482   -1.468333
 ---------------------------------------------------------------------

 SCF Done:  E(RB3LYP) =  -1949.13163577     A.U. after   23 cycles

 Excitation energies and oscillator strengths:

 Excited State   1:      Singlet-A      1.8142 eV  683.40 nm  f=0.3493  <S**2>=0.000
     154 ->157         0.10232
     156 ->157         0.70186
     156 <-157        -0.12233
 This state for optimization and/or second-order correction.
 Total Energy, E(TD-HF/TD-DFT) =  -1949.06496385
 Copying the excited state density for this state as the 1-particle RhoCI density.

 The electronic state is 1-A.
 Alpha  occ. eigenvalues --  -19.21269 -19.18918 -19.14527 -19.12652 -19.11231
 Alpha  occ. eigenvalues --  -19.08610 -14.38708 -14.37377 -14.34732 -14.27483
 Alpha  occ. eigenvalues --  -10.34219 -10.32447 -10.28855 -10.25108 -10.24439
 Alpha  occ. eigenvalues --  -10.24354 -10.23686 -10.23683 -10.23208 -10.22794
 Alpha  occ. eigenvalues --  -10.22434 -10.21848 -10.21261 -10.21130 -10.20663
 Alpha  occ. eigenvalues --  -10.20592 -10.20538 -10.20451 -10.20413 -10.20369
 Alpha  occ. eigenvalues --  -10.20230 -10.19797 -10.19582 -10.19370 -10.19054
 Alpha  occ. eigenvalues --  -10.19015 -10.18960 -10.18788 -10.18464 -10.18429
 Alpha  occ. eigenvalues --  -10.18321 -10.18285 -10.17609  -1.12176  -1.10074
 Alpha  occ. eigenvalues --   -1.04705  -1.01793  -1.00932  -0.99471  -0.98094
 Alpha  occ. eigenvalues --   -0.97611  -0.96467  -0.90951  -0.82470  -0.81928
 Alpha  occ. eigenvalues --   -0.81438  -0.81149  -0.79507  -0.78951  -0.78158
 Alpha  occ. eigenvalues --   -0.77509  -0.77134  -0.76015  -0.75169  -0.72916
 Alpha  occ. eigenvalues --   -0.72186  -0.70716  -0.68831  -0.68617  -0.67740
 Alpha  occ. eigenvalues --   -0.67139  -0.66091  -0.64281  -0.63382  -0.62277
 Alpha  occ. eigenvalues --   -0.61365  -0.59317  -0.59096  -0.58316  -0.57198
 Alpha  occ. eigenvalues --   -0.56027  -0.55994  -0.54947  -0.54489  -0.53256
 Alpha  occ. eigenvalues --   -0.51820  -0.51441  -0.51222  -0.50687  -0.49885
 Alpha  occ. eigenvalues --   -0.49637  -0.49226  -0.49076  -0.48788  -0.48211
 Alpha  occ. eigenvalues --   -0.47512  -0.47111  -0.46163  -0.45803  -0.45257
 Alpha  occ. eigenvalues --   -0.45177  -0.44779  -0.44455  -0.44297  -0.43933
 Alpha  occ. eigenvalues --   -0.43873  -0.43375  -0.43184  -0.42630  -0.42465
 Alpha  occ. eigenvalues --   -0.42369  -0.41711  -0.41453  -0.41144  -0.41082
 Alpha  occ. eigenvalues --   -0.40496  -0.40391  -0.40289  -0.40062  -0.39778
 Alpha  occ. eigenvalues --   -0.39702  -0.39588  -0.39134  -0.38844  -0.38767
 Alpha  occ. eigenvalues --   -0.38468  -0.37832  -0.37535  -0.36798  -0.36607
 Alpha  occ. eigenvalues --   -0.36549  -0.36439  -0.35474  -0.35061  -0.34796
 Alpha  occ. eigenvalues --   -0.34541  -0.34411  -0.34264  -0.33991  -0.32971
 Alpha  occ. eigenvalues --   -0.32649  -0.32076  -0.30291  -0.30089  -0.29587
 Alpha  occ. eigenvalues --   -0.27979  -0.26772  -0.26475  -0.26262  -0.25366
 Alpha  occ. eigenvalues --   -0.24982  -0.24563  -0.23342  -0.21887  -0.20994
 Alpha  occ. eigenvalues --   -0.18159
 Alpha virt. eigenvalues --   -0.11008  -0.06610  -0.05021  -0.02004  -0.01535
 Alpha virt. eigenvalues --    0.00300   0.01963   0.02699   0.03175   0.03680
 Alpha virt. eigenvalues --    0.04422   0.04686   0.05204   0.05962   0.06133

 Mulliken charges:
               1
     1  O   -0.213573
     2  O   -0.151493
     3  O   -0.155616
     4  O   -0.253618
     5  O   -0.270010
     6  O   -0.215796
     7  N   -0.075268
     8  N   -0.211736
     9  N   -0.058367
    10  N   -0.318597
    11  C   -0.064803
    12  C    0.105481
    13  C   -0.181670
    14  C    0.065948
    15  C   -0.087567
    16  C    0.083134
    17  C   -0.044222
    18  C   -0.104664
    19  C    0.010052
    20  C   -0.040540
    21  C    0.086747
    22  C    0.129417
    23  C   -0.049818
    24  C    0.093030
    25  C   -0.087831
    26  C    0.103225
    27  C    0.074809
    28  C    0.092960
    29  C   -0.060912
    30  C    0.205553
    31  C   -0.159463
    32  C    0.082000
    33  C   -0.052835
    34  C    0.103547
    35  C   -0.105067
    36  C   -0.160366
    37  C    0.113830
    38  C    0.050015
    39  C    0.166108
    40  C    0.114059
    41  C    0.103161
    42  C    0.056583
    43  C   -0.052212
    44  H    0.105027
    45  H    0.002714
    46  H    0.015856
    47  H    0.041373
    48  H    0.026589
    49  H    0.043398
    50  H   -0.012914
    51  H    0.005694
    52  H    0.217036
    53  H    0.020755
    54  H    0.005136
    55  H    0.011736
    56  H    0.161468
    57  H    0.017630
    58  H    0.008848
    59  H    0.049677
    60  H    0.064456
    61  H   -0.017205
    62  H    0.011806
    63  H   -0.020510
    64  H   -0.004422
    65  H   -0.000014
    66  H    0.009019
    67  H    0.009190
    68  H   -0.068607
    69  H    0.095764
    70  H    0.018203
    71  H    0.030783
    72  H    0.011298
    73  H    0.003206
    74  H    0.041769
    75  H    0.006884
    76  H    0.011317
    77  H    0.011057
    78  H   -0.000342
    79  H    0.040499
    80  H    0.197597
    81  H    0.164611
 Sum of Mulliken charges =  -0.00000

 Dipole moment (field-independent basis, Debye):
    X=             -2.3071    Y=             -1.2772    Z=             -0.6616  Tot=              2.7187
 Quadrupole moment (field-independent basis, Debye-Ang):
   XX=           -255.0889   YY=           -239.6914   ZZ=           -254.0655
   XY=             18.1431   XZ=             15.6706   YZ=            -13.4206

 Normal termination of Gaussian 16 at Sat Jun 29 21:34:20 2019.
