 Gaussian 16, Revision A.03,
 Gaussian 16:  ES64L-G16RevA.03 25-Dec-2016

 --------------------------
 # td=(NStates=1) B3LYP/SVP
 --------------------------

 --
 TD
 --
 Symbolic Z-matrix:
 Charge =  0 Multiplicity = 1

                         Standard orientation:
 ---------------------------------------------------------------------
 Center     Atomic      Atomic             Coordinates (Angstroms)
 Number     Number       Type             X           Y           Z
 ---------------------------------------------------------------------
      1          8           0       -4.534356   -4.791460    1.695938
      2          8           0        2.971595   -4.658865    1.437509
      3          8           0        7.186687   -1.415977    1.777141
      4          8           0        3.966433   -3.264320   -0.036040
      5          8           0        7.811201   -0.609436   -0.327837
      6          8           0       -3.023389    2.427266   -0.483764
      7          7           0       -0.332114   -0.600564   -0.700815
      8          7           0        1.551237    1.770418   -0.270709
      9          7           0       -3.401432   -3.072027    0.568117
     10          7           0       -0.815227    2.830949   -0.182230
     11          6           0        0.585670   -2.446259   -1.282067
     12          6           0        0.887312   -1.066307   -0.939409
     13          6           0       -0.771401   -2.634812   -1.189848
     14          6           0       -1.353858   -1.439385   -0.734534
     15          6           0        3.701133    1.428048   -0.380162
     16          6           0        2.464322    0.796171   -0.489860
     17          6           0        2.128000   -0.457455   -0.819506
     18          6           0        3.564561    2.690367    0.016784
     19          6           0        1.604949   -3.560037   -1.745379
     20          6           0       -5.637937   -2.631667    1.311457
     21          6           0       -3.634631   -1.802238    0.205827
     22          6           0        2.104988    2.947854    0.069850
     23          6           0       -5.097582   -1.445876    0.413293
     24          6           0        5.078029    0.855746   -0.487552
     25          6           0       -2.742717   -1.014706   -0.379124
     26          6           0       -1.491103   -3.883774   -1.604910
     27          6           0       -4.492299   -3.693491    1.340762
     28          6           0        1.939043   -4.499451   -0.722447
     29          6           0        5.566916    0.000035    0.736938
     30          6           0        4.564387    3.836400    0.412585
     31          6           0        1.261546    3.990949    0.404595
     32          6           0       -6.962734   -3.203438    1.033899
     33          6           0       -5.779047   -0.491134   -0.195620
     34          6           0       -0.086129    3.952676    0.244203
     35          6           0       -1.071995    5.166620    0.431173
     36          6           0       -2.226058    4.633520    0.407008
     37          6           0        3.071177   -4.103181    0.224878
     38          6           0       -5.403751    0.631004   -1.204929
     39          6           0        6.992892   -0.690176    0.648393
     40          6           0       -3.569041    5.316531    0.460208
     41          6           0       -2.175482    3.227939   -0.098095
     42          6           0       -0.450609    6.462274    0.853369
     43          6           0       -4.317548    5.581496   -0.753760
     44          1           0       -0.571911    0.359350   -0.317680
     45          1           0        3.103481   -1.069024   -1.169945
     46          1           0        2.614594   -3.134681   -2.407952
     47          1           0        1.011478   -4.207754   -2.418840
     48          1           0       -5.592872   -2.104127    2.275902
     49          1           0        5.373522    0.183369   -1.219456
     50          1           0        5.906343    1.681952   -0.543827
     51          1           0       -2.959925    0.011191   -0.387906
     52          1           0        0.496494    1.682254   -0.482305
     53          1           0       -1.582341   -4.738424   -0.910180
     54          1           0       -2.468775   -3.830875   -2.026360
     55          1           0       -0.661364   -4.228994   -2.352010
     56          1           0       -2.706234   -3.774112    0.266084
     57          1           0        1.114466   -5.147761   -0.176943
     58          1           0        2.471855   -5.348360   -1.450193
     59          1           0        5.051041   -0.956841    0.637490
     60          1           0        5.353226    0.441659    1.653529
     61          1           0        4.320637    4.664175   -0.196780
     62          1           0        5.801741    3.785178   -0.054605
     63          1           0        4.594399    4.122311    1.441821
     64          1           0        1.680846    4.992370    0.579932
     65          1           0       -7.918884   -2.646777    1.145223
     66          1           0       -6.972474   -4.248071    1.678184
     67          1           0       -7.291881   -3.456997   -0.066222
     68          1           0       -6.792785   -0.688327    0.077945
     69          1           0       -4.965821    1.583056   -0.786032
     70          1           0       -6.323004    0.972214   -1.919068
     71          1           0       -4.711716    0.285662   -1.954224
     72          1           0       -3.580574    6.227353    1.164224
     73          1           0       -4.326037    4.560393    1.029520
     74          1           0        0.189941    6.547062    1.783327
     75          1           0       -1.425705    7.064339    0.850603
     76          1           0       -0.046691    7.066520    0.010933
     77          1           0       -3.927627    6.559877   -1.320854
     78          1           0       -5.280253    5.856476   -0.340168
     79          1           0       -4.401705    4.583867   -1.191921
     80          1           0        3.699302   -4.413136    1.987626
     81          1           0        8.176589   -1.960914    1.578893
 ---------------------------------------------------------------------

 SCF Done:  E(RB3LYP) =  -1949.05382333     A.U. after   16 cycles

 Excitation energies and oscillator strengths:

 Excited State   1:      Singlet-A      2.0568 eV  602.79 nm  f=0.3950  <S**2>=0.000
     156 ->157         0.70518
     156 <-157        -0.10646
 This state for optimization and/or second-order correction.
 Total Energy, E(TD-HF/TD-DFT) =  -1948.97823562
 Copying the excited state density for this state as the 1-particle RhoCI density.

 The electronic state is 1-A.
 Alpha  occ. eigenvalues --  -19.19967 -19.19833 -19.13887 -19.13617 -19.12559
 Alpha  occ. eigenvalues --  -19.10183 -14.38152 -14.36497 -14.35437 -14.28503
 Alpha  occ. eigenvalues --  -10.33828 -10.32753 -10.30493 -10.26359 -10.23749
 Alpha  occ. eigenvalues --  -10.23668 -10.23441 -10.23216 -10.22908 -10.22677
 Alpha  occ. eigenvalues --  -10.21914 -10.21871 -10.21682 -10.21387 -10.21269
 Alpha  occ. eigenvalues --  -10.20597 -10.20547 -10.20539 -10.20346 -10.20303
 Alpha  occ. eigenvalues --  -10.19969 -10.19930 -10.19831 -10.19721 -10.19468
 Alpha  occ. eigenvalues --  -10.19416 -10.19372 -10.19211 -10.18680 -10.18466
 Alpha  occ. eigenvalues --  -10.17899 -10.17857 -10.17570  -1.11043  -1.08193
 Alpha  occ. eigenvalues --   -1.06933  -1.01034  -1.00880  -1.00148  -0.99164
 Alpha  occ. eigenvalues --   -0.97346  -0.95404  -0.89750  -0.83120  -0.82563
 Alpha  occ. eigenvalues --   -0.81786  -0.81336  -0.80292  -0.79086  -0.78477
 Alpha  occ. eigenvalues --   -0.76807  -0.76468  -0.75976  -0.74376  -0.72620
 Alpha  occ. eigenvalues --   -0.71201  -0.69828  -0.69436  -0.69155  -0.68053
 Alpha  occ. eigenvalues --   -0.66703  -0.65108  -0.64855  -0.62270  -0.61685
 Alpha  occ. eigenvalues --   -0.60227  -0.59336  -0.57636  -0.57275  -0.57183
 Alpha  occ. eigenvalues --   -0.56499  -0.55663  -0.54965  -0.54527  -0.53846
 Alpha  occ. eigenvalues --   -0.52580  -0.51238  -0.50733  -0.50013  -0.49540
 Alpha  occ. eigenvalues --   -0.48951  -0.48461  -0.48096  -0.47683  -0.47523
 Alpha  occ. eigenvalues --   -0.46728  -0.46477  -0.46240  -0.45875  -0.45592
 Alpha  occ. eigenvalues --   -0.45377  -0.44972  -0.44871  -0.44390  -0.43896
 Alpha  occ. eigenvalues --   -0.43671  -0.43565  -0.42765  -0.42645  -0.42520
 Alpha  occ. eigenvalues --   -0.42285  -0.41929  -0.41559  -0.41465  -0.41168
 Alpha  occ. eigenvalues --   -0.40870  -0.40696  -0.40439  -0.40040  -0.39662
 Alpha  occ. eigenvalues --   -0.39231  -0.39037  -0.38727  -0.38469  -0.38148
 Alpha  occ. eigenvalues --   -0.37774  -0.37235  -0.37066  -0.36813  -0.36559
 Alpha  occ. eigenvalues --   -0.35865  -0.35334  -0.34818  -0.34650  -0.33631
 Alpha  occ. eigenvalues --   -0.33407  -0.33282  -0.32981  -0.32429  -0.32359
 Alpha  occ. eigenvalues --   -0.31316  -0.31232  -0.31033  -0.30245  -0.29000
 Alpha  occ. eigenvalues --   -0.28072  -0.27290  -0.26861  -0.26671  -0.26304
 Alpha  occ. eigenvalues --   -0.25822  -0.25524  -0.24511  -0.23921  -0.21581
 Alpha  occ. eigenvalues --   -0.17873
 Alpha virt. eigenvalues --   -0.09707  -0.04805  -0.02640  -0.02314  -0.00294
 Alpha virt. eigenvalues --    0.00132   0.00202   0.02209   0.03197   0.03563
 Alpha virt. eigenvalues --    0.04089   0.04481   0.04732   0.05194   0.05562

 Mulliken charges:
               1
     1  O   -0.124287
     2  O   -0.142723
     3  O   -0.260642
     4  O   -0.263844
     5  O   -0.289825
     6  O   -0.218389
     7  N   -0.003541
     8  N   -0.097303
     9  N   -0.175460
    10  N   -0.357353
    11  C   -0.104013
    12  C    0.038512
    13  C   -0.142211
    14  C    0.026901
    15  C   -0.025130
    16  C    0.029862
    17  C   -0.083791
    18  C   -0.081776
    19  C    0.072888
    20  C   -0.001100
    21  C    0.110701
    22  C    0.085216
    23  C   -0.053511
    24  C    0.096671
    25  C   -0.081137
    26  C    0.043054
    27  C    0.132588
    28  C   -0.052668
    29  C   -0.015801
    30  C    0.045639
    31  C   -0.126073
    32  C   -0.042883
    33  C   -0.104048
    34  C    0.068500
    35  C   -0.062370
    36  C   -0.141351
    37  C    0.142049
    38  C    0.032449
    39  C    0.187022
    40  C   -0.045990
    41  C    0.176069
    42  C    0.087895
    43  C    0.046315
    44  H    0.149857
    45  H    0.052280
    46  H    0.070044
    47  H   -0.005326
    48  H    0.046163
    49  H   -0.016212
    50  H    0.022519
    51  H   -0.020197
    52  H    0.165699
    53  H    0.027024
    54  H    0.024058
    55  H    0.020913
    56  H    0.130837
    57  H    0.062539
    58  H    0.060072
    59  H    0.041774
    60  H    0.014979
    61  H    0.017216
    62  H    0.035477
    63  H    0.036531
    64  H   -0.032056
    65  H    0.025681
    66  H    0.057243
    67  H    0.020615
    68  H   -0.029847
    69  H    0.083985
    70  H    0.011734
    71  H    0.020701
    72  H    0.003323
    73  H    0.008161
    74  H    0.066427
    75  H    0.002191
    76  H    0.017705
    77  H    0.021250
    78  H    0.002082
    79  H    0.034709
    80  H    0.176236
    81  H    0.248502
 Sum of Mulliken charges =  -0.00000

 Dipole moment (field-independent basis, Debye):
    X=              1.2290    Y=             -0.8008    Z=              1.6513  Tot=              2.2087
 Quadrupole moment (field-independent basis, Debye-Ang):
   XX=           -258.7648   YY=           -227.4937   ZZ=           -255.5039
   XY=            -11.2575   XZ=             16.4071   YZ=             10.0209

 Normal termination of Gaussian 16 at Thu Jul  4 00:16:00 2019.
