 Gaussian 16, Revision A.03,
 Gaussian 16:  ES64L-G16RevA.03 25-Dec-2016

 --------------------------
 # td=(NStates=1) B3LYP/SVP
 --------------------------

 --
 TD
 --
 Symbolic Z-matrix:
 Charge =  0 Multiplicity = 1

                         Standard orientation:
 ---------------------------------------------------------------------
 Center     Atomic      Atomic             Coordinates (Angstroms)
 Number     Number       Type             X           Y           Z
 ---------------------------------------------------------------------
      1          8           0        4.583208   -4.781829   -1.646627
      2          8           0       -2.849182   -5.072236   -1.231769
      3          8           0       -7.180879   -1.492711   -1.757463
      4          8           0       -3.634303   -3.176111   -0.254334
      5          8           0       -7.685288   -0.562705    0.209467
      6          8           0        2.968423    2.480064    0.411173
      7          7           0        0.331323   -0.512086    0.559992
      8          7           0       -1.588206    1.772117    0.417129
      9          7           0        3.450725   -2.947341   -0.706715
     10          7           0        0.679295    2.911683    0.198437
     11          6           0       -0.632353   -2.417284    1.350970
     12          6           0       -0.910337   -1.150392    1.074650
     13          6           0        0.687023   -2.677965    1.202802
     14          6           0        1.311862   -1.515181    0.593751
     15          6           0       -3.818481    1.369377    0.263026
     16          6           0       -2.619161    0.693276    0.524302
     17          6           0       -2.219055   -0.549697    0.877348
     18          6           0       -3.579310    2.727272    0.029295
     19          6           0       -1.629626   -3.483186    1.863768
     20          6           0        5.622533   -2.481827   -1.369581
     21          6           0        3.647948   -1.785073   -0.112363
     22          6           0       -2.201449    2.921478    0.033375
     23          6           0        5.135601   -1.525715   -0.284217
     24          6           0       -5.172563    0.746087    0.445838
     25          6           0        2.757641   -0.970299    0.411555
     26          6           0        1.468261   -3.906930    1.563213
     27          6           0        4.591574   -3.555436   -1.251749
     28          6           0       -1.964677   -4.522767    0.820778
     29          6           0       -5.559286   -0.193526   -0.760572
     30          6           0       -4.494046    3.843863   -0.418979
     31          6           0       -1.456327    4.117998   -0.296927
     32          6           0        7.113893   -2.903773   -1.286598
     33          6           0        5.880812   -0.555351    0.353750
     34          6           0       -0.034483    4.001156   -0.181708
     35          6           0        0.939654    5.169636   -0.491830
     36          6           0        2.163323    4.722328   -0.268476
     37          6           0       -2.890504   -4.180163   -0.267624
     38          6           0        5.497158    0.488972    1.335691
     39          6           0       -6.887113   -0.840128   -0.683958
     40          6           0        3.592862    5.274303   -0.569102
     41          6           0        2.047841    3.309767    0.039834
     42          6           0        0.503406    6.437235   -1.039307
     43          6           0        4.108634    5.650876    0.899429
     44          1           0        0.578146    0.414026    0.219554
     45          1           0       -2.828387   -1.338901    1.167840
     46          1           0       -2.476186   -2.801957    2.246547
     47          1           0       -1.475804   -3.933460    2.827724
     48          1           0        5.343216   -2.177079   -2.496856
     49          1           0       -5.192352    0.229444    1.374344
     50          1           0       -5.921837    1.600830    0.685279
     51          1           0        2.878292   -0.039476    0.527352
     52          1           0       -0.522485    1.785487    0.627547
     53          1           0        1.436891   -4.736224    0.870428
     54          1           0        2.376504   -3.645388    1.887757
     55          1           0        1.133923   -4.280177    2.477579
     56          1           0        2.705574   -3.363219   -0.510551
     57          1           0       -1.001777   -5.105659    0.475422
     58          1           0       -2.378753   -5.340877    1.480577
     59          1           0       -4.651995   -0.928912   -0.916681
     60          1           0       -5.154599    0.478406   -1.752037
     61          1           0       -4.326389    4.835778   -0.089262
     62          1           0       -5.508532    3.609293   -0.020901
     63          1           0       -4.342957    3.683220   -1.606156
     64          1           0       -1.948087    4.975164   -0.599485
     65          1           0        7.880877   -2.311568   -1.557112
     66          1           0        7.337465   -3.852975   -1.881471
     67          1           0        7.426718   -3.183646   -0.296113
     68          1           0        6.950149   -0.495262    0.071975
     69          1           0        5.060400    1.456214    0.911726
     70          1           0        6.445296    0.951300    1.762170
     71          1           0        4.641031    0.156720    2.087496
     72          1           0        3.527923    6.176642   -1.223298
     73          1           0        4.294216    4.412386   -1.033400
     74          1           0       -0.022312    6.601071   -2.152641
     75          1           0        1.401205    7.174336   -1.076086
     76          1           0       -0.231508    6.948342   -0.468467
     77          1           0        3.414154    6.196635    1.601424
     78          1           0        5.032596    6.361397    0.877677
     79          1           0        4.107380    4.830682    1.516170
     80          1           0       -3.455123   -4.985224   -1.849017
     81          1           0       -8.268199   -1.637350   -1.694842
 ---------------------------------------------------------------------

 SCF Done:  E(RB3LYP) =  -1949.04218653     A.U. after   17 cycles

 Excitation energies and oscillator strengths:

 Excited State   1:      Singlet-A      2.0199 eV  613.82 nm  f=0.3249  <S**2>=0.000
     156 ->157         0.70344
 This state for optimization and/or second-order correction.
 Total Energy, E(TD-HF/TD-DFT) =  -1948.96795712
 Copying the excited state density for this state as the 1-particle RhoCI density.

 The electronic state is 1-A.
 Alpha  occ. eigenvalues --  -19.20105 -19.19824 -19.13926 -19.11819 -19.11128
 Alpha  occ. eigenvalues --  -19.09788 -14.36911 -14.36134 -14.34572 -14.29198
 Alpha  occ. eigenvalues --  -10.34227 -10.31794 -10.30139 -10.26420 -10.23837
 Alpha  occ. eigenvalues --  -10.23210 -10.22976 -10.22956 -10.22892 -10.22831
 Alpha  occ. eigenvalues --  -10.22735 -10.22688 -10.21776 -10.21598 -10.21116
 Alpha  occ. eigenvalues --  -10.20890 -10.20502 -10.20426 -10.20394 -10.20347
 Alpha  occ. eigenvalues --  -10.20196 -10.19989 -10.19800 -10.19439 -10.19176
 Alpha  occ. eigenvalues --  -10.19098 -10.18945 -10.18775 -10.18440 -10.18321
 Alpha  occ. eigenvalues --  -10.18155 -10.17839 -10.17454  -1.13563  -1.10654
 Alpha  occ. eigenvalues --   -1.02292  -1.01465  -0.99517  -0.97753  -0.96058
 Alpha  occ. eigenvalues --   -0.95737  -0.95049  -0.90094  -0.83359  -0.81943
 Alpha  occ. eigenvalues --   -0.81438  -0.80549  -0.79486  -0.79241  -0.78573
 Alpha  occ. eigenvalues --   -0.76771  -0.75665  -0.74669  -0.74255  -0.73138
 Alpha  occ. eigenvalues --   -0.71406  -0.71175  -0.70739  -0.68971  -0.67903
 Alpha  occ. eigenvalues --   -0.67163  -0.65870  -0.64025  -0.63565  -0.62273
 Alpha  occ. eigenvalues --   -0.61305  -0.59838  -0.59457  -0.58596  -0.57606
 Alpha  occ. eigenvalues --   -0.56043  -0.55416  -0.54233  -0.53579  -0.53284
 Alpha  occ. eigenvalues --   -0.52352  -0.52223  -0.50676  -0.50130  -0.49950
 Alpha  occ. eigenvalues --   -0.49664  -0.49009  -0.48480  -0.48213  -0.47915
 Alpha  occ. eigenvalues --   -0.47105  -0.46787  -0.46384  -0.46057  -0.45687
 Alpha  occ. eigenvalues --   -0.45116  -0.44607  -0.44229  -0.43667  -0.43648
 Alpha  occ. eigenvalues --   -0.43076  -0.42882  -0.42266  -0.42250  -0.41607
 Alpha  occ. eigenvalues --   -0.41372  -0.41119  -0.40887  -0.40612  -0.40242
 Alpha  occ. eigenvalues --   -0.40012  -0.39936  -0.39730  -0.39567  -0.39121
 Alpha  occ. eigenvalues --   -0.38806  -0.38645  -0.38370  -0.38108  -0.37925
 Alpha  occ. eigenvalues --   -0.37770  -0.37527  -0.37033  -0.36738  -0.36547
 Alpha  occ. eigenvalues --   -0.36449  -0.36051  -0.35617  -0.35370  -0.33998
 Alpha  occ. eigenvalues --   -0.33813  -0.33744  -0.33311  -0.32450  -0.32120
 Alpha  occ. eigenvalues --   -0.31749  -0.31712  -0.31319  -0.29696  -0.29306
 Alpha  occ. eigenvalues --   -0.27886  -0.27128  -0.26454  -0.26392  -0.25269
 Alpha  occ. eigenvalues --   -0.24744  -0.24353  -0.23709  -0.23498  -0.21371
 Alpha  occ. eigenvalues --   -0.18269
 Alpha virt. eigenvalues --   -0.09985  -0.05931  -0.03532  -0.02533  -0.01831
 Alpha virt. eigenvalues --   -0.01220   0.01571   0.01647   0.03076   0.03867
 Alpha virt. eigenvalues --    0.04545   0.04992   0.05796   0.06096   0.06522

 Mulliken charges:
               1
     1  O   -0.274526
     2  O   -0.072730
     3  O   -0.186336
     4  O   -0.253128
     5  O   -0.261100
     6  O   -0.282101
     7  N   -0.179039
     8  N   -0.196967
     9  N    0.061812
    10  N   -0.327477
    11  C   -0.042480
    12  C    0.033477
    13  C   -0.195139
    14  C    0.007412
    15  C   -0.106759
    16  C    0.217254
    17  C   -0.020836
    18  C   -0.163138
    19  C    0.071708
    20  C   -0.050913
    21  C    0.101660
    22  C    0.109994
    23  C   -0.039518
    24  C    0.131116
    25  C    0.006407
    26  C    0.201843
    27  C    0.137930
    28  C   -0.009084
    29  C   -0.140083
    30  C    0.085056
    31  C   -0.088574
    32  C    0.093427
    33  C   -0.127137
    34  C    0.113505
    35  C   -0.056195
    36  C   -0.155920
    37  C    0.147081
    38  C    0.007960
    39  C    0.195742
    40  C    0.064707
    41  C    0.185594
    42  C    0.015248
    43  C   -0.002930
    44  H    0.145799
    45  H   -0.043400
    46  H    0.011689
    47  H    0.003093
    48  H    0.081544
    49  H    0.001502
    50  H    0.018539
    51  H   -0.109215
    52  H    0.175326
    53  H    0.039290
    54  H   -0.021041
    55  H   -0.028777
    56  H    0.021162
    57  H    0.053967
    58  H    0.049216
    59  H    0.073339
    60  H    0.058447
    61  H    0.018973
    62  H    0.018280
    63  H    0.059942
    64  H   -0.062639
    65  H   -0.014184
    66  H    0.026082
    67  H   -0.001220
    68  H   -0.002957
    69  H    0.076449
    70  H    0.010081
    71  H    0.053884
    72  H    0.008953
    73  H    0.057019
    74  H    0.045644
    75  H    0.021388
    76  H    0.009842
    77  H   -0.000672
    78  H    0.024193
    79  H   -0.000428
    80  H    0.130996
    81  H    0.233069
 Sum of Mulliken charges =  -0.00000

 Dipole moment (field-independent basis, Debye):
    X=             -2.9770    Y=             -0.4239    Z=             -1.1906  Tot=              3.2341
 Quadrupole moment (field-independent basis, Debye-Ang):
   XX=           -247.2263   YY=           -233.6921   ZZ=           -250.5136
   XY=             20.5082   XZ=             15.9156   YZ=            -13.3463

 Normal termination of Gaussian 16 at Wed Jul  3 18:21:34 2019.
