 Gaussian 16, Revision A.03,
 Gaussian 16:  ES64L-G16RevA.03 25-Dec-2016

 --------------------------
 # td=(NStates=1) B3LYP/SVP
 --------------------------

 --
 TD
 --
 Symbolic Z-matrix:
 Charge =  0 Multiplicity = 1

                         Standard orientation:
 ---------------------------------------------------------------------
 Center     Atomic      Atomic             Coordinates (Angstroms)
 Number     Number       Type             X           Y           Z
 ---------------------------------------------------------------------
      1          8           0       -4.768116   -4.772689    1.620149
      2          8           0        2.859154   -4.930446    1.280015
      3          8           0        6.926220   -1.542508    2.007346
      4          8           0        3.619708   -3.207774   -0.040739
      5          8           0        7.585042   -0.891715   -0.047749
      6          8           0       -2.889507    2.654439   -0.360349
      7          7           0       -0.316580   -0.603588   -0.459096
      8          7           0        1.627661    1.767921   -0.317640
      9          7           0       -3.552331   -2.995369    0.657818
     10          7           0       -0.614783    2.913069   -0.216751
     11          6           0        0.507524   -2.404234   -1.388005
     12          6           0        0.971308   -1.148647   -0.947061
     13          6           0       -0.857494   -2.575766   -1.150207
     14          6           0       -1.323337   -1.408523   -0.639013
     15          6           0        3.842404    1.272242   -0.334700
     16          6           0        2.463591    0.669459   -0.586391
     17          6           0        2.237351   -0.533147   -0.979210
     18          6           0        3.669818    2.617440    0.067450
     19          6           0        1.534285   -3.477622   -1.919035
     20          6           0       -5.705008   -2.463487    1.325009
     21          6           0       -3.675729   -1.676282    0.179021
     22          6           0        2.298268    2.930708    0.046815
     23          6           0       -5.067447   -1.357439    0.408259
     24          6           0        5.161042    0.489946   -0.483821
     25          6           0       -2.629479   -1.006190   -0.340544
     26          6           0       -1.673837   -3.744522   -1.735012
     27          6           0       -4.713769   -3.620984    1.235511
     28          6           0        1.950692   -4.683735   -0.933575
     29          6           0        5.333608   -0.428504    0.666380
     30          6           0        4.684975    3.741817    0.297495
     31          6           0        1.491988    4.078263    0.240953
     32          6           0       -7.235930   -2.948693    1.242388
     33          6           0       -5.900172   -0.345139   -0.129777
     34          6           0        0.135837    3.999120    0.128362
     35          6           0       -0.744357    5.207346    0.524018
     36          6           0       -1.982277    4.720210    0.349206
     37          6           0        2.854464   -4.195546    0.191933
     38          6           0       -5.470090    0.619740   -1.245133
     39          6           0        6.775135   -0.958645    0.797126
     40          6           0       -3.377060    5.441290    0.460097
     41          6           0       -1.911415    3.358897   -0.132947
     42          6           0       -0.248107    6.582350    0.938199
     43          6           0       -3.974503    5.760200   -0.908871
     44          1           0       -0.698951    0.276000    0.035025
     45          1           0        3.097192   -1.050013   -0.905214
     46          1           0        2.379013   -3.002376   -2.354557
     47          1           0        1.048030   -3.861824   -2.791180
     48          1           0       -5.578097   -2.033235    2.344056
     49          1           0        5.099917    0.016997   -1.550176
     50          1           0        5.951667    1.190927   -0.466408
     51          1           0       -2.858286    0.084162   -0.691526
     52          1           0        0.626434    1.963054   -0.740375
     53          1           0       -1.663205   -4.680908   -0.943788
     54          1           0       -2.651107   -3.231417   -1.926652
     55          1           0       -1.131039   -4.136025   -2.681339
     56          1           0       -2.754966   -3.626241    0.495782
     57          1           0        1.009869   -5.204933   -0.513786
     58          1           0        2.620837   -5.314985   -1.624335
     59          1           0        4.680331   -1.418573    0.629888
     60          1           0        5.044721    0.077315    1.575734
     61          1           0        4.239900    4.826412   -0.257712
     62          1           0        5.520560    3.227310   -0.184596
     63          1           0        4.710334    3.893158    1.507402
     64          1           0        2.105314    4.946274    0.483478
     65          1           0       -7.805076   -2.000707    1.358456
     66          1           0       -7.059590   -3.733733    2.081779
     67          1           0       -7.413999   -3.612538    0.144609
     68          1           0       -6.926332   -0.185467    0.091625
     69          1           0       -5.131038    1.624505   -0.809229
     70          1           0       -6.413117    0.874426   -1.811620
     71          1           0       -4.679135    0.433864   -1.873080
     72          1           0       -3.330024    6.392626    1.168452
     73          1           0       -3.827552    4.555160    1.217796
     74          1           0        0.434062    6.519379    1.780320
     75          1           0       -1.244808    7.223441    1.142943
     76          1           0        0.312102    6.950453    0.127516
     77          1           0       -3.114253    6.031790   -1.382011
     78          1           0       -4.709332    6.555920   -0.572354
     79          1           0       -4.503007    4.571134   -1.246332
     80          1           0        3.560663   -4.516114    1.982657
     81          1           0        7.850501   -1.745446    2.369527
 ---------------------------------------------------------------------

 SCF Done:  E(RB3LYP) =  -1949.05691407     A.U. after   16 cycles

 Excitation energies and oscillator strengths:

 Excited State   1:      Singlet-A      2.0457 eV  606.06 nm  f=0.3702  <S**2>=0.000
     156 ->157         0.70644
 This state for optimization and/or second-order correction.
 Total Energy, E(TD-HF/TD-DFT) =  -1948.98173470
 Copying the excited state density for this state as the 1-particle RhoCI density.

 The electronic state is 1-A.
 Alpha  occ. eigenvalues --  -19.22200 -19.17743 -19.13755 -19.12594 -19.12017
 Alpha  occ. eigenvalues --  -19.09427 -14.36757 -14.36169 -14.34245 -14.28747
 Alpha  occ. eigenvalues --  -10.34297 -10.31589 -10.29614 -10.25364 -10.24525
 Alpha  occ. eigenvalues --  -10.23447 -10.23425 -10.22937 -10.22703 -10.22687
 Alpha  occ. eigenvalues --  -10.22393 -10.21716 -10.21641 -10.21505 -10.21417
 Alpha  occ. eigenvalues --  -10.21125 -10.20989 -10.20887 -10.20494 -10.20457
 Alpha  occ. eigenvalues --  -10.20297 -10.20087 -10.20037 -10.20022 -10.19541
 Alpha  occ. eigenvalues --  -10.19523 -10.19275 -10.19203 -10.18605 -10.18512
 Alpha  occ. eigenvalues --  -10.17761 -10.17743 -10.17687  -1.11170  -1.09227
 Alpha  occ. eigenvalues --   -1.03414  -1.01343  -1.00799  -0.99978  -0.98029
 Alpha  occ. eigenvalues --   -0.95802  -0.94142  -0.91268  -0.83000  -0.81278
 Alpha  occ. eigenvalues --   -0.80568  -0.79779  -0.79049  -0.78645  -0.77024
 Alpha  occ. eigenvalues --   -0.76871  -0.76661  -0.74679  -0.74112  -0.72372
 Alpha  occ. eigenvalues --   -0.69964  -0.69243  -0.69078  -0.68002  -0.67034
 Alpha  occ. eigenvalues --   -0.66656  -0.65144  -0.63727  -0.62309  -0.61267
 Alpha  occ. eigenvalues --   -0.60403  -0.59123  -0.58618  -0.56719  -0.55522
 Alpha  occ. eigenvalues --   -0.55196  -0.54578  -0.54138  -0.53691  -0.53134
 Alpha  occ. eigenvalues --   -0.51450  -0.50758  -0.50628  -0.49877  -0.49757
 Alpha  occ. eigenvalues --   -0.48909  -0.48754  -0.48586  -0.47894  -0.47416
 Alpha  occ. eigenvalues --   -0.46768  -0.46615  -0.45505  -0.45195  -0.44918
 Alpha  occ. eigenvalues --   -0.44481  -0.44221  -0.43984  -0.43620  -0.43172
 Alpha  occ. eigenvalues --   -0.43077  -0.42874  -0.42269  -0.42053  -0.41390
 Alpha  occ. eigenvalues --   -0.41187  -0.40779  -0.40761  -0.40700  -0.40466
 Alpha  occ. eigenvalues --   -0.40222  -0.39873  -0.39492  -0.39450  -0.39183
 Alpha  occ. eigenvalues --   -0.38791  -0.38651  -0.38343  -0.37986  -0.37638
 Alpha  occ. eigenvalues --   -0.37345  -0.37119  -0.36781  -0.36597  -0.36471
 Alpha  occ. eigenvalues --   -0.35726  -0.35410  -0.35286  -0.34886  -0.34815
 Alpha  occ. eigenvalues --   -0.34478  -0.34019  -0.33332  -0.33048  -0.32685
 Alpha  occ. eigenvalues --   -0.32534  -0.32173  -0.30264  -0.29660  -0.29065
 Alpha  occ. eigenvalues --   -0.28097  -0.27103  -0.26635  -0.25768  -0.24945
 Alpha  occ. eigenvalues --   -0.24706  -0.24216  -0.23737  -0.23270  -0.21739
 Alpha  occ. eigenvalues --   -0.18383
 Alpha virt. eigenvalues --   -0.10048  -0.05361  -0.03858  -0.02541  -0.00275
 Alpha virt. eigenvalues --    0.00110   0.01528   0.02510   0.02933   0.03011
 Alpha virt. eigenvalues --    0.03551   0.04130   0.04728   0.05396   0.05825

 Mulliken charges:
               1
     1  O   -0.206359
     2  O   -0.180915
     3  O   -0.241018
     4  O   -0.287257
     5  O   -0.175160
     6  O   -0.221683
     7  N   -0.113008
     8  N   -0.182234
     9  N   -0.200304
    10  N   -0.283445
    11  C   -0.131839
    12  C    0.116794
    13  C   -0.175431
    14  C    0.063736
    15  C   -0.161580
    16  C    0.120946
    17  C   -0.003537
    18  C   -0.119247
    19  C    0.144381
    20  C   -0.111886
    21  C    0.168896
    22  C    0.076137
    23  C   -0.011293
    24  C    0.164129
    25  C   -0.192225
    26  C    0.003263
    27  C    0.157833
    28  C   -0.002294
    29  C   -0.069870
    30  C   -0.005614
    31  C   -0.147876
    32  C   -0.026061
    33  C   -0.111354
    34  C    0.148317
    35  C   -0.125180
    36  C   -0.187369
    37  C    0.162977
    38  C    0.030299
    39  C    0.129373
    40  C   -0.064770
    41  C    0.134263
    42  C    0.136333
    43  C    0.006511
    44  H    0.165074
    45  H   -0.037723
    46  H   -0.004177
    47  H   -0.020794
    48  H    0.054756
    49  H    0.042124
    50  H   -0.021240
    51  H    0.058133
    52  H    0.185610
    53  H    0.043817
    54  H    0.054926
    55  H    0.034331
    56  H    0.125326
    57  H    0.050241
    58  H    0.068625
    59  H    0.088597
    60  H    0.020016
    61  H    0.063247
    62  H    0.037189
    63  H    0.060885
    64  H   -0.043533
    65  H    0.049339
    66  H    0.070048
    67  H    0.051561
    68  H   -0.011196
    69  H    0.066409
    70  H    0.009269
    71  H    0.008568
    72  H    0.009315
    73  H    0.040407
    74  H    0.021746
    75  H    0.040140
    76  H    0.010695
    77  H    0.012783
    78  H    0.036724
    79  H    0.082757
    80  H    0.245871
    81  H    0.204757
 Sum of Mulliken charges =  -0.00000

 Dipole moment (field-independent basis, Debye):
    X=              3.7426    Y=              0.2479    Z=              1.8982  Tot=              4.2038
 Quadrupole moment (field-independent basis, Debye-Ang):
   XX=           -251.3285   YY=           -242.5359   ZZ=           -249.0738
   XY=            -17.3650   XZ=             20.5816   YZ=              7.5228

 Normal termination of Gaussian 16 at Tue Jul  2 05:54:29 2019.
