 Gaussian 16, Revision A.03,
 Gaussian 16:  ES64L-G16RevA.03 25-Dec-2016

 --------------------------
 # td=(NStates=1) B3LYP/SVP
 --------------------------

 --
 TD
 --
 Symbolic Z-matrix:
 Charge =  0 Multiplicity = 1

                         Standard orientation:
 ---------------------------------------------------------------------
 Center     Atomic      Atomic             Coordinates (Angstroms)
 Number     Number       Type             X           Y           Z
 ---------------------------------------------------------------------
      1          8           0       -4.678019   -4.647497    1.949470
      2          8           0        2.888357   -4.690240    1.295868
      3          8           0        6.952987   -1.648039    1.931005
      4          8           0        3.957498   -3.391148   -0.199204
      5          8           0        7.689796   -0.436859    0.026882
      6          8           0       -2.933574    2.617928   -0.371248
      7          7           0       -0.308520   -0.568388   -0.704065
      8          7           0        1.622021    1.758234   -0.328291
      9          7           0       -3.469297   -3.145818    0.570979
     10          7           0       -0.650799    3.067466   -0.131350
     11          6           0        0.630362   -2.538587   -1.363928
     12          6           0        0.808143   -1.156326   -0.910639
     13          6           0       -0.827522   -2.662972   -1.333411
     14          6           0       -1.322120   -1.541089   -0.814248
     15          6           0        3.767349    1.355555   -0.384736
     16          6           0        2.463871    0.741593   -0.637624
     17          6           0        2.189442   -0.581913   -0.775038
     18          6           0        3.561198    2.664862    0.035295
     19          6           0        1.542317   -3.531444   -1.930073
     20          6           0       -5.575053   -2.457869    1.550232
     21          6           0       -3.685334   -1.913081    0.093034
     22          6           0        2.094033    2.937033    0.058006
     23          6           0       -5.043591   -1.470208    0.369882
     24          6           0        5.057518    0.601731   -0.394954
     25          6           0       -2.752604   -1.079298   -0.560689
     26          6           0       -1.602739   -3.812022   -1.849705
     27          6           0       -4.566094   -3.554160    1.435185
     28          6           0        2.014511   -4.641310   -0.961155
     29          6           0        5.331383   -0.281055    0.781267
     30          6           0        4.528329    3.606917    0.436262
     31          6           0        1.418192    4.114420    0.310510
     32          6           0       -6.991774   -3.059322    1.333645
     33          6           0       -5.863063   -0.540865   -0.131792
     34          6           0        0.022720    4.199613    0.242188
     35          6           0       -0.870244    5.309297    0.531093
     36          6           0       -2.142735    4.717859    0.321973
     37          6           0        2.965128   -4.128760    0.194363
     38          6           0       -5.495678    0.490345   -1.169443
     39          6           0        6.762453   -0.716998    0.778046
     40          6           0       -3.424750    5.467037    0.353882
     41          6           0       -2.074041    3.313206   -0.044477
     42          6           0       -0.349610    6.597237    0.930588
     43          6           0       -4.039114    5.627331   -1.041955
     44          1           0       -0.576203    0.188752   -0.172666
     45          1           0        2.963682   -1.368168   -0.708671
     46          1           0        2.635128   -3.121883   -2.333617
     47          1           0        1.130006   -3.985699   -2.887905
     48          1           0       -5.365393   -1.986340    2.562293
     49          1           0        5.148586   -0.186829   -1.065875
     50          1           0        5.956200    1.224971   -0.745756
     51          1           0       -2.918834    0.044015   -0.775739
     52          1           0        0.699961    1.647759   -0.589378
     53          1           0       -1.798162   -4.639064   -0.991530
     54          1           0       -2.566733   -3.461241   -2.188481
     55          1           0       -0.981696   -4.352868   -2.609163
     56          1           0       -2.493638   -3.634718    0.381805
     57          1           0        1.173652   -5.181572   -0.431535
     58          1           0        2.562819   -5.368074   -1.654182
     59          1           0        4.560185   -0.943461    0.859753
     60          1           0        4.976435    0.387816    1.691640
     61          1           0        4.755537    4.456897   -0.083837
     62          1           0        5.519257    3.189133    0.646005
     63          1           0        4.158656    4.055519    1.426343
     64          1           0        2.279192    5.067114    0.396299
     65          1           0       -7.789732   -2.304832    1.752318
     66          1           0       -7.231965   -4.008282    1.906852
     67          1           0       -7.164429   -3.099119    0.292961
     68          1           0       -6.739326   -0.391300    0.420736
     69          1           0       -5.030248    1.259119   -0.843771
     70          1           0       -6.359621    0.969401   -1.500841
     71          1           0       -4.969133   -0.139296   -2.133657
     72          1           0       -3.423009    6.528551    0.764635
     73          1           0       -4.117106    4.924814    0.891534
     74          1           0        0.068758    6.515130    1.859166
     75          1           0       -1.119555    7.452548    0.785665
     76          1           0        0.569074    7.033054    0.192350
     77          1           0       -3.434777    6.224691   -1.537142
     78          1           0       -5.043599    6.064311   -1.186646
     79          1           0       -4.055129    4.604186   -1.741308
     80          1           0        3.518630   -4.422606    1.964702
     81          1           0        7.947046   -1.916570    1.764048
 ---------------------------------------------------------------------

 SCF Done:  E(RB3LYP) =  -1949.03925872     A.U. after   16 cycles

 Excitation energies and oscillator strengths:

 Excited State   1:      Singlet-A      1.7824 eV  695.60 nm  f=0.2700  <S**2>=0.000
     154 ->157        -0.10401
     156 ->157         0.70033
 This state for optimization and/or second-order correction.
 Total Energy, E(TD-HF/TD-DFT) =  -1948.97375669
 Copying the excited state density for this state as the 1-particle RhoCI density.

 The electronic state is 1-A.
 Alpha  occ. eigenvalues --  -19.23009 -19.16979 -19.15253 -19.12629 -19.11764
 Alpha  occ. eigenvalues --  -19.11627 -14.37579 -14.37504 -14.36017 -14.27316
 Alpha  occ. eigenvalues --  -10.34311 -10.33575 -10.29751 -10.26301 -10.24337
 Alpha  occ. eigenvalues --  -10.24059 -10.23631 -10.23121 -10.22615 -10.22605
 Alpha  occ. eigenvalues --  -10.22020 -10.22015 -10.21522 -10.21485 -10.20835
 Alpha  occ. eigenvalues --  -10.20792 -10.20739 -10.20384 -10.20253 -10.20115
 Alpha  occ. eigenvalues --  -10.20073 -10.19993 -10.19715 -10.19512 -10.19501
 Alpha  occ. eigenvalues --  -10.19143 -10.19099 -10.18960 -10.18735 -10.18696
 Alpha  occ. eigenvalues --  -10.18276 -10.17241 -10.17205  -1.16009  -1.06515
 Alpha  occ. eigenvalues --   -1.05878  -1.03591  -1.00772  -0.99711  -0.98397
 Alpha  occ. eigenvalues --   -0.98062  -0.95423  -0.90674  -0.83129  -0.82364
 Alpha  occ. eigenvalues --   -0.81583  -0.80857  -0.79472  -0.79287  -0.78179
 Alpha  occ. eigenvalues --   -0.76945  -0.76552  -0.75742  -0.73868  -0.72564
 Alpha  occ. eigenvalues --   -0.72086  -0.71047  -0.69655  -0.68946  -0.67756
 Alpha  occ. eigenvalues --   -0.66988  -0.65651  -0.65220  -0.64727  -0.62376
 Alpha  occ. eigenvalues --   -0.60990  -0.59465  -0.58255  -0.57677  -0.57085
 Alpha  occ. eigenvalues --   -0.56799  -0.56453  -0.55247  -0.54541  -0.53049
 Alpha  occ. eigenvalues --   -0.52420  -0.51694  -0.50925  -0.50280  -0.49800
 Alpha  occ. eigenvalues --   -0.49489  -0.49310  -0.48424  -0.48133  -0.47937
 Alpha  occ. eigenvalues --   -0.47822  -0.46458  -0.46190  -0.45736  -0.45467
 Alpha  occ. eigenvalues --   -0.45021  -0.44751  -0.44607  -0.44329  -0.44077
 Alpha  occ. eigenvalues --   -0.43885  -0.43651  -0.43306  -0.42881  -0.42399
 Alpha  occ. eigenvalues --   -0.42134  -0.41917  -0.41727  -0.41328  -0.41116
 Alpha  occ. eigenvalues --   -0.40864  -0.40698  -0.40472  -0.40173  -0.40044
 Alpha  occ. eigenvalues --   -0.39755  -0.39286  -0.39068  -0.38531  -0.38334
 Alpha  occ. eigenvalues --   -0.38040  -0.37443  -0.37347  -0.36764  -0.36527
 Alpha  occ. eigenvalues --   -0.36261  -0.36028  -0.35723  -0.35543  -0.34367
 Alpha  occ. eigenvalues --   -0.34266  -0.33302  -0.32952  -0.32786  -0.32389
 Alpha  occ. eigenvalues --   -0.32133  -0.31815  -0.31407  -0.29865  -0.29655
 Alpha  occ. eigenvalues --   -0.28055  -0.27828  -0.26898  -0.26263  -0.25680
 Alpha  occ. eigenvalues --   -0.24922  -0.24639  -0.23238  -0.22449  -0.20716
 Alpha  occ. eigenvalues --   -0.17927
 Alpha virt. eigenvalues --   -0.10566  -0.06083  -0.03676  -0.02976  -0.02670
 Alpha virt. eigenvalues --   -0.00645   0.01958   0.02485   0.02621   0.02857
 Alpha virt. eigenvalues --    0.04704   0.04963   0.05412   0.05619   0.06189

 Mulliken charges:
               1
     1  O   -0.197930
     2  O   -0.034915
     3  O   -0.313926
     4  O   -0.334627
     5  O   -0.212374
     6  O   -0.111158
     7  N    0.041065
     8  N    0.040697
     9  N   -0.156810
    10  N   -0.377238
    11  C   -0.077081
    12  C   -0.032919
    13  C   -0.161357
    14  C   -0.011921
    15  C   -0.085797
    16  C    0.093873
    17  C   -0.075150
    18  C   -0.104771
    19  C   -0.033271
    20  C   -0.079025
    21  C    0.086806
    22  C    0.063074
    23  C   -0.040822
    24  C    0.065304
    25  C   -0.155340
    26  C    0.067429
    27  C    0.138089
    28  C    0.015215
    29  C    0.039243
    30  C    0.096961
    31  C   -0.163166
    32  C    0.040554
    33  C   -0.120948
    34  C    0.094019
    35  C   -0.035901
    36  C   -0.222923
    37  C    0.120064
    38  C    0.152809
    39  C    0.232366
    40  C    0.136459
    41  C    0.163500
    42  C    0.066557
    43  C   -0.024800
    44  H    0.115087
    45  H    0.035745
    46  H    0.049131
    47  H    0.027845
    48  H    0.060802
    49  H   -0.016473
    50  H    0.032324
    51  H    0.062162
    52  H    0.084854
    53  H    0.025313
    54  H    0.038555
    55  H    0.016372
    56  H    0.175753
    57  H    0.018312
    58  H    0.055897
    59  H   -0.011554
    60  H    0.041088
    61  H   -0.000285
    62  H    0.009472
    63  H    0.015453
    64  H    0.029064
    65  H    0.018220
    66  H    0.054281
    67  H    0.012467
    68  H   -0.027927
    69  H   -0.012209
    70  H   -0.028539
    71  H    0.049219
    72  H    0.001934
    73  H   -0.018941
    74  H    0.015460
    75  H    0.033517
    76  H    0.036142
    77  H   -0.033473
    78  H    0.010031
    79  H    0.035155
    80  H    0.198611
    81  H    0.201222
 Sum of Mulliken charges =  -0.00000

 Dipole moment (field-independent basis, Debye):
    X=              1.5527    Y=              0.3987    Z=              1.6565  Tot=              2.3052
 Quadrupole moment (field-independent basis, Debye-Ang):
   XX=           -262.2522   YY=           -234.3745   ZZ=           -254.2253
   XY=            -15.1032   XZ=             12.5328   YZ=              9.1833

 Normal termination of Gaussian 16 at Tue Jul  2 02:38:26 2019.
