 Gaussian 16, Revision A.03,
 Gaussian 16:  ES64L-G16RevA.03 25-Dec-2016

 --------------------------
 # td=(NStates=1) B3LYP/SVP
 --------------------------

 --
 TD
 --
 Symbolic Z-matrix:
 Charge =  0 Multiplicity = 1

                         Standard orientation:
 ---------------------------------------------------------------------
 Center     Atomic      Atomic             Coordinates (Angstroms)
 Number     Number       Type             X           Y           Z
 ---------------------------------------------------------------------
      1          8           0       -4.812178   -4.730802    1.686427
      2          8           0        3.115987   -4.795550    1.399119
      3          8           0        7.202266   -1.455545    1.767388
      4          8           0        3.741955   -3.022465    0.217491
      5          8           0        7.847395   -0.470618   -0.170550
      6          8           0       -3.021161    2.524148   -0.127883
      7          7           0       -0.302460   -0.539688   -0.520391
      8          7           0        1.622568    1.655289   -0.430463
      9          7           0       -3.608022   -3.060952    0.566993
     10          7           0       -0.747461    2.846642   -0.047224
     11          6           0        0.649332   -2.493767   -1.258418
     12          6           0        0.894156   -1.193969   -0.898973
     13          6           0       -0.888017   -2.608667   -1.183322
     14          6           0       -1.360464   -1.372908   -0.689056
     15          6           0        3.815513    1.279714   -0.483459
     16          6           0        2.593387    0.685261   -0.674530
     17          6           0        2.107830   -0.560013   -0.939578
     18          6           0        3.615985    2.564022   -0.095007
     19          6           0        1.562704   -3.547158   -1.762447
     20          6           0       -5.655356   -2.385939    1.339979
     21          6           0       -3.718630   -1.806033    0.003823
     22          6           0        2.148471    2.855978   -0.142274
     23          6           0       -5.093813   -1.328627    0.292624
     24          6           0        5.150192    0.514842   -0.627042
     25          6           0       -2.737106   -0.964656   -0.514907
     26          6           0       -1.640509   -3.780779   -1.729708
     27          6           0       -4.673227   -3.552390    1.253639
     28          6           0        2.008302   -4.489265   -0.677609
     29          6           0        5.541715   -0.189774    0.719163
     30          6           0        4.668922    3.643437    0.383817
     31          6           0        1.456933    3.983807    0.105137
     32          6           0       -7.108617   -2.880945    1.182505
     33          6           0       -5.889943   -0.468550   -0.304913
     34          6           0        0.007750    3.927810    0.138447
     35          6           0       -0.837766    5.108358    0.519878
     36          6           0       -2.146218    4.677303    0.416480
     37          6           0        3.033128   -4.012215    0.305255
     38          6           0       -5.593406    0.484368   -1.347254
     39          6           0        6.987517   -0.683695    0.690009
     40          6           0       -3.565750    5.412211    0.613933
     41          6           0       -2.024604    3.186962    0.045732
     42          6           0       -0.429806    6.447895    0.867120
     43          6           0       -4.180110    5.680404   -0.720543
     44          1           0       -0.241535    0.449356   -0.159637
     45          1           0        2.871415   -1.333316   -1.181300
     46          1           0        2.493135   -3.270711   -2.166623
     47          1           0        1.088700   -4.110496   -2.571985
     48          1           0       -5.587982   -1.949146    2.399215
     49          1           0        5.200412   -0.291854   -1.438228
     50          1           0        6.017168    1.264714   -0.663657
     51          1           0       -3.044794    0.159536   -0.581398
     52          1           0        0.644767    1.647675   -0.579738
     53          1           0       -1.597135   -4.502952   -0.816711
     54          1           0       -2.634346   -3.475942   -1.997216
     55          1           0       -1.268669   -4.413650   -2.566793
     56          1           0       -2.712914   -3.882560    0.494942
     57          1           0        0.898041   -4.858295   -0.137790
     58          1           0        2.360571   -5.450836   -1.063491
     59          1           0        4.835290   -0.983594    1.013643
     60          1           0        5.223490    0.486441    1.712783
     61          1           0        4.275656    4.719091    0.183596
     62          1           0        5.553956    3.596073   -0.286314
     63          1           0        4.915879    3.522796    1.577701
     64          1           0        2.122610    4.903612    0.294447
     65          1           0       -7.848426   -2.200239    1.493879
     66          1           0       -7.203301   -4.051434    1.671744
     67          1           0       -7.135262   -3.284476   -0.001957
     68          1           0       -6.937743   -0.493451    0.113648
     69          1           0       -5.400524    1.395274   -0.828188
     70          1           0       -6.481046    0.671040   -1.992606
     71          1           0       -4.721406    0.087758   -1.918644
     72          1           0       -3.423713    6.165110    1.225391
     73          1           0       -4.040247    4.622197    1.308591
     74          1           0        0.197756    6.476466    1.891877
     75          1           0       -1.268261    7.103414    0.655662
     76          1           0        0.179260    6.636616    0.034769
     77          1           0       -3.429497    6.163918   -1.384450
     78          1           0       -5.110359    6.319306   -0.453539
     79          1           0       -4.496299    4.839990   -1.309294
     80          1           0        4.034360   -4.553792    1.978116
     81          1           0        8.133552   -1.624167    1.920216
 ---------------------------------------------------------------------

 SCF Done:  E(RB3LYP) =  -1949.11684607     A.U. after   16 cycles

 Excitation energies and oscillator strengths:

 Excited State   1:      Singlet-A      2.0373 eV  608.57 nm  f=0.3756  <S**2>=0.000
     156 ->157         0.70289
 This state for optimization and/or second-order correction.
 Total Energy, E(TD-HF/TD-DFT) =  -1949.04197662
 Copying the excited state density for this state as the 1-particle RhoCI density.

 The electronic state is 1-A.
 Alpha  occ. eigenvalues --  -19.19835 -19.18486 -19.14294 -19.12976 -19.10739
 Alpha  occ. eigenvalues --  -19.09784 -14.38547 -14.37161 -14.35602 -14.28977
 Alpha  occ. eigenvalues --  -10.33838 -10.32737 -10.28958 -10.25641 -10.24841
 Alpha  occ. eigenvalues --  -10.23910 -10.23679 -10.23606 -10.23489 -10.22740
 Alpha  occ. eigenvalues --  -10.22456 -10.22129 -10.21530 -10.21423 -10.21018
 Alpha  occ. eigenvalues --  -10.20934 -10.20758 -10.20703 -10.20456 -10.20432
 Alpha  occ. eigenvalues --  -10.20421 -10.20250 -10.20184 -10.19464 -10.19456
 Alpha  occ. eigenvalues --  -10.19201 -10.19124 -10.18912 -10.18648 -10.18450
 Alpha  occ. eigenvalues --  -10.18077 -10.17945 -10.17636  -1.09888  -1.09669
 Alpha  occ. eigenvalues --   -1.01757  -1.01314  -1.00508  -1.00019  -0.99362
 Alpha  occ. eigenvalues --   -0.97081  -0.94437  -0.92828  -0.83301  -0.82421
 Alpha  occ. eigenvalues --   -0.81435  -0.81106  -0.79474  -0.78853  -0.77745
 Alpha  occ. eigenvalues --   -0.76780  -0.76386  -0.75640  -0.74759  -0.72732
 Alpha  occ. eigenvalues --   -0.70955  -0.69447  -0.68894  -0.68250  -0.67778
 Alpha  occ. eigenvalues --   -0.67220  -0.65347  -0.63676  -0.63006  -0.61723
 Alpha  occ. eigenvalues --   -0.60283  -0.60124  -0.58902  -0.57487  -0.56335
 Alpha  occ. eigenvalues --   -0.56001  -0.55038  -0.54993  -0.53456  -0.52663
 Alpha  occ. eigenvalues --   -0.51991  -0.51785  -0.50916  -0.50263  -0.49600
 Alpha  occ. eigenvalues --   -0.49239  -0.48552  -0.48299  -0.47894  -0.47424
 Alpha  occ. eigenvalues --   -0.46706  -0.46439  -0.45789  -0.45434  -0.45141
 Alpha  occ. eigenvalues --   -0.44791  -0.44549  -0.44301  -0.43879  -0.43483
 Alpha  occ. eigenvalues --   -0.43262  -0.42652  -0.42342  -0.42197  -0.41935
 Alpha  occ. eigenvalues --   -0.41681  -0.41486  -0.41411  -0.41297  -0.41095
 Alpha  occ. eigenvalues --   -0.40731  -0.40644  -0.40043  -0.39935  -0.39707
 Alpha  occ. eigenvalues --   -0.39307  -0.39029  -0.38604  -0.38461  -0.38360
 Alpha  occ. eigenvalues --   -0.37703  -0.37400  -0.37371  -0.37075  -0.36944
 Alpha  occ. eigenvalues --   -0.35853  -0.35615  -0.35357  -0.34633  -0.34075
 Alpha  occ. eigenvalues --   -0.33763  -0.33448  -0.33213  -0.33078  -0.32905
 Alpha  occ. eigenvalues --   -0.32438  -0.31551  -0.30465  -0.30243  -0.29568
 Alpha  occ. eigenvalues --   -0.28621  -0.27739  -0.26713  -0.26200  -0.25725
 Alpha  occ. eigenvalues --   -0.25362  -0.23998  -0.23324  -0.22858  -0.21678
 Alpha  occ. eigenvalues --   -0.18045
 Alpha virt. eigenvalues --   -0.09893  -0.05422  -0.03529  -0.02552  -0.01197
 Alpha virt. eigenvalues --   -0.00132   0.00233   0.00635   0.03074   0.03625
 Alpha virt. eigenvalues --    0.04303   0.04726   0.04880   0.05434   0.05681

 Mulliken charges:
               1
     1  O   -0.266773
     2  O   -0.251336
     3  O   -0.173497
     4  O   -0.226816
     5  O   -0.244436
     6  O   -0.202860
     7  N   -0.096200
     8  N   -0.076051
     9  N   -0.176877
    10  N   -0.233358
    11  C   -0.080176
    12  C    0.055525
    13  C   -0.206037
    14  C    0.122982
    15  C   -0.036250
    16  C    0.107907
    17  C   -0.064947
    18  C   -0.149778
    19  C    0.187290
    20  C   -0.078551
    21  C    0.106781
    22  C    0.072473
    23  C   -0.032729
    24  C    0.106028
    25  C   -0.153523
    26  C    0.059407
    27  C    0.137735
    28  C   -0.088099
    29  C   -0.106185
    30  C    0.016261
    31  C   -0.157442
    32  C   -0.041666
    33  C   -0.170881
    34  C    0.098771
    35  C   -0.172306
    36  C   -0.242288
    37  C    0.170706
    38  C    0.130563
    39  C    0.179834
    40  C    0.163411
    41  C    0.102557
    42  C    0.152064
    43  C    0.017534
    44  H    0.139440
    45  H   -0.009992
    46  H   -0.009213
    47  H   -0.003069
    48  H    0.054196
    49  H    0.045815
    50  H    0.026776
    51  H    0.071613
    52  H    0.104708
    53  H    0.019998
    54  H    0.035403
    55  H    0.027300
    56  H    0.203855
    57  H    0.064634
    58  H    0.044665
    59  H    0.042925
    60  H    0.053382
    61  H    0.027791
    62  H    0.036768
    63  H    0.062660
    64  H   -0.004875
    65  H    0.027097
    66  H    0.067834
    67  H    0.025409
    68  H   -0.002714
    69  H    0.048302
    70  H    0.009120
    71  H    0.033882
    72  H   -0.055548
    73  H    0.018979
    74  H    0.052262
    75  H    0.002865
    76  H   -0.005495
    77  H    0.013064
    78  H    0.020863
    79  H    0.022868
    80  H    0.252199
    81  H    0.175466
 Sum of Mulliken charges =  -0.00000

 Dipole moment (field-independent basis, Debye):
    X=              3.9090    Y=              0.0511    Z=              0.3351  Tot=              3.9237
 Quadrupole moment (field-independent basis, Debye-Ang):
   XX=           -256.2410   YY=           -241.1025   ZZ=           -251.5798
   XY=            -24.8348   XZ=             22.9844   YZ=             13.3426

 Normal termination of Gaussian 16 at Wed Jul  3 20:40:06 2019.
