 Gaussian 16, Revision A.03,
 Gaussian 16:  ES64L-G16RevA.03 25-Dec-2016

 --------------------------
 # td=(NStates=1) B3LYP/SVP
 --------------------------

 --
 TD
 --
 Symbolic Z-matrix:
 Charge =  0 Multiplicity = 1

                         Standard orientation:
 ---------------------------------------------------------------------
 Center     Atomic      Atomic             Coordinates (Angstroms)
 Number     Number       Type             X           Y           Z
 ---------------------------------------------------------------------
      1          8           0       -4.590951   -4.728948    1.701133
      2          8           0        2.978180   -4.787544    1.441271
      3          8           0        7.099871   -1.707551    1.643187
      4          8           0        3.866989   -3.193022    0.008173
      5          8           0        7.670260   -0.630762   -0.239082
      6          8           0       -3.023167    2.536161   -0.359854
      7          7           0       -0.303863   -0.540982   -0.470948
      8          7           0        1.561847    1.827431   -0.443323
      9          7           0       -3.503185   -3.085845    0.630976
     10          7           0       -0.790086    2.987561   -0.138632
     11          6           0        0.630864   -2.477602   -1.174207
     12          6           0        0.884836   -1.128503   -0.773731
     13          6           0       -0.709942   -2.645456   -1.107769
     14          6           0       -1.284426   -1.393663   -0.689419
     15          6           0        3.797231    1.371591   -0.354215
     16          6           0        2.490465    0.870127   -0.477440
     17          6           0        2.140454   -0.469563   -0.887044
     18          6           0        3.691207    2.799345   -0.012073
     19          6           0        1.603397   -3.452373   -1.751417
     20          6           0       -5.706971   -2.612513    1.270950
     21          6           0       -3.673747   -1.755095    0.143466
     22          6           0        2.225216    3.071210   -0.132490
     23          6           0       -5.107668   -1.479339    0.313610
     24          6           0        5.097380    0.653799   -0.523143
     25          6           0       -2.699492   -0.999263   -0.542297
     26          6           0       -1.471592   -3.918738   -1.513623
     27          6           0       -4.553843   -3.627731    1.186559
     28          6           0        2.055652   -4.512335   -0.811924
     29          6           0        5.443549   -0.132564    0.731924
     30          6           0        4.626755    3.900490    0.251659
     31          6           0        1.366387    4.094340    0.264587
     32          6           0       -7.106194   -3.170260    0.903435
     33          6           0       -5.814066   -0.561000   -0.229067
     34          6           0       -0.035960    4.029954    0.331307
     35          6           0       -0.977324    5.217818    0.515686
     36          6           0       -2.194447    4.716341    0.354739
     37          6           0        3.081830   -4.081888    0.318099
     38          6           0       -5.499626    0.424421   -1.322537
     39          6           0        6.871858   -0.887540    0.614763
     40          6           0       -3.552267    5.293543    0.489695
     41          6           0       -2.050888    3.274056   -0.151538
     42          6           0       -0.501454    6.407664    1.191640
     43          6           0       -4.133931    5.635660   -0.868139
     44          1           0       -0.479284    0.279674   -0.178348
     45          1           0        2.854011   -1.234610   -0.851166
     46          1           0        2.621267   -2.776607   -2.051153
     47          1           0        1.123792   -4.087888   -2.526181
     48          1           0       -5.623248   -1.953435    2.210023
     49          1           0        5.138679   -0.048515   -1.339331
     50          1           0        5.940352    1.436221   -0.575548
     51          1           0       -2.844996    0.035407   -0.550324
     52          1           0        0.534020    1.862466   -0.443454
     53          1           0       -1.729662   -4.717502   -0.690660
     54          1           0       -2.317038   -3.587046   -2.028480
     55          1           0       -1.208153   -4.499711   -2.536879
     56          1           0       -2.742634   -3.718642    0.711275
     57          1           0        1.182496   -5.010867   -0.128772
     58          1           0        2.514075   -5.294647   -1.406219
     59          1           0        4.746978   -1.175295    0.876197
     60          1           0        5.402890    0.492202    1.632646
     61          1           0        4.317241    4.801363   -0.151958
     62          1           0        5.665950    3.602428    0.096482
     63          1           0        4.383787    4.093566    1.318732
     64          1           0        1.736430    5.155540    0.519054
     65          1           0       -7.827750   -2.540860    1.391041
     66          1           0       -7.291392   -4.179957    1.575344
     67          1           0       -7.275879   -3.194178   -0.077840
     68          1           0       -6.817416   -0.508265   -0.082594
     69          1           0       -5.155348    1.128933   -0.717485
     70          1           0       -6.670329    0.867201   -1.781916
     71          1           0       -4.662353    0.156065   -2.185536
     72          1           0       -3.727802    6.187375    1.289745
     73          1           0       -4.293724    4.609298    1.006000
     74          1           0       -0.015832    6.120385    2.184952
     75          1           0       -1.355327    7.028474    1.135479
     76          1           0        0.279201    6.932735    0.543911
     77          1           0       -3.184126    6.315326   -1.494630
     78          1           0       -4.994767    6.242014   -0.717484
     79          1           0       -4.162889    4.726210   -1.333926
     80          1           0        3.578497   -4.347980    2.101573
     81          1           0        7.998370   -2.150315    1.292015
 ---------------------------------------------------------------------

 SCF Done:  E(RB3LYP) =  -1949.03957223     A.U. after   23 cycles

 Excitation energies and oscillator strengths:

 Excited State   1:      Singlet-A      1.8320 eV  676.77 nm  f=0.4295  <S**2>=0.000
     156 ->157         0.71652
     156 <-157        -0.15472
 This state for optimization and/or second-order correction.
 Total Energy, E(TD-HF/TD-DFT) =  -1948.97224718
 Copying the excited state density for this state as the 1-particle RhoCI density.

 The electronic state is 1-A.
 Alpha  occ. eigenvalues --  -19.22313 -19.19521 -19.15205 -19.13012 -19.10229
 Alpha  occ. eigenvalues --  -19.08610 -14.38432 -14.37827 -14.35456 -14.27903
 Alpha  occ. eigenvalues --  -10.34598 -10.32044 -10.28304 -10.26435 -10.24780
 Alpha  occ. eigenvalues --  -10.24619 -10.24159 -10.23674 -10.23490 -10.22503
 Alpha  occ. eigenvalues --  -10.22351 -10.22267 -10.21596 -10.21567 -10.21396
 Alpha  occ. eigenvalues --  -10.21312 -10.21223 -10.20962 -10.20398 -10.20365
 Alpha  occ. eigenvalues --  -10.20265 -10.19997 -10.19819 -10.19778 -10.19705
 Alpha  occ. eigenvalues --  -10.19372 -10.19043 -10.18683 -10.18668 -10.18633
 Alpha  occ. eigenvalues --  -10.17976 -10.17627 -10.17185  -1.12393  -1.10268
 Alpha  occ. eigenvalues --   -1.04393  -1.03346  -1.02412  -1.01090  -0.99628
 Alpha  occ. eigenvalues --   -0.97026  -0.95962  -0.91478  -0.84407  -0.82835
 Alpha  occ. eigenvalues --   -0.81683  -0.81230  -0.79524  -0.79287  -0.78570
 Alpha  occ. eigenvalues --   -0.76854  -0.76551  -0.75618  -0.74842  -0.72473
 Alpha  occ. eigenvalues --   -0.72022  -0.70613  -0.69610  -0.68502  -0.67803
 Alpha  occ. eigenvalues --   -0.66567  -0.65642  -0.65344  -0.63725  -0.62607
 Alpha  occ. eigenvalues --   -0.60087  -0.59566  -0.59372  -0.58158  -0.57755
 Alpha  occ. eigenvalues --   -0.56485  -0.55915  -0.55032  -0.54660  -0.53401
 Alpha  occ. eigenvalues --   -0.51832  -0.51730  -0.51227  -0.50714  -0.49803
 Alpha  occ. eigenvalues --   -0.49413  -0.49265  -0.49077  -0.48801  -0.48304
 Alpha  occ. eigenvalues --   -0.47235  -0.46796  -0.46629  -0.46429  -0.45901
 Alpha  occ. eigenvalues --   -0.45179  -0.44847  -0.44625  -0.44445  -0.44397
 Alpha  occ. eigenvalues --   -0.43972  -0.43348  -0.43251  -0.42971  -0.42545
 Alpha  occ. eigenvalues --   -0.42290  -0.41910  -0.41616  -0.41550  -0.41371
 Alpha  occ. eigenvalues --   -0.41256  -0.40696  -0.40568  -0.39983  -0.39715
 Alpha  occ. eigenvalues --   -0.39307  -0.39034  -0.38824  -0.38412  -0.38347
 Alpha  occ. eigenvalues --   -0.38106  -0.37831  -0.37334  -0.37186  -0.36196
 Alpha  occ. eigenvalues --   -0.35917  -0.35570  -0.35226  -0.35042  -0.34463
 Alpha  occ. eigenvalues --   -0.34198  -0.33970  -0.33671  -0.33391  -0.32918
 Alpha  occ. eigenvalues --   -0.32408  -0.32325  -0.29935  -0.29569  -0.29254
 Alpha  occ. eigenvalues --   -0.27908  -0.27422  -0.26713  -0.26071  -0.25722
 Alpha  occ. eigenvalues --   -0.25475  -0.24303  -0.23153  -0.23019  -0.22207
 Alpha  occ. eigenvalues --   -0.17758
 Alpha virt. eigenvalues --   -0.10952  -0.05652  -0.04100  -0.02241   0.00512
 Alpha virt. eigenvalues --    0.00847   0.01812   0.02163   0.02784   0.02931
 Alpha virt. eigenvalues --    0.03785   0.04424   0.04661   0.04704   0.05393

 Mulliken charges:
               1
     1  O   -0.231788
     2  O   -0.151543
     3  O   -0.207720
     4  O   -0.240529
     5  O   -0.222235
     6  O   -0.257892
     7  N    0.121329
     8  N   -0.100383
     9  N   -0.039347
    10  N   -0.238283
    11  C   -0.066275
    12  C   -0.022249
    13  C   -0.131133
    14  C   -0.024196
    15  C   -0.100580
    16  C    0.069933
    17  C    0.003077
    18  C   -0.156804
    19  C    0.092018
    20  C   -0.095388
    21  C    0.133131
    22  C    0.102036
    23  C    0.000071
    24  C    0.153631
    25  C   -0.040789
    26  C    0.002430
    27  C    0.060179
    28  C   -0.039584
    29  C   -0.125506
    30  C    0.174931
    31  C   -0.103049
    32  C    0.104188
    33  C   -0.159889
    34  C    0.030587
    35  C   -0.136860
    36  C   -0.132230
    37  C    0.145598
    38  C    0.029791
    39  C    0.146646
    40  C    0.003616
    41  C    0.102700
    42  C    0.113900
    43  C    0.022409
    44  H    0.040762
    45  H   -0.003391
    46  H    0.059362
    47  H    0.009186
    48  H    0.066012
    49  H    0.012063
    50  H    0.022899
    51  H   -0.008345
    52  H    0.120393
    53  H    0.059883
    54  H    0.009654
    55  H    0.028934
    56  H    0.115036
    57  H    0.046248
    58  H    0.040271
    59  H    0.073682
    60  H    0.036244
    61  H    0.004599
    62  H    0.023227
    63  H    0.018998
    64  H   -0.011562
    65  H    0.003467
    66  H    0.054530
    67  H   -0.005096
    68  H   -0.040879
    69  H    0.028370
    70  H    0.022699
    71  H    0.068999
    72  H   -0.004685
    73  H    0.006809
    74  H    0.046756
    75  H    0.003134
    76  H    0.015158
    77  H    0.007205
    78  H    0.014340
    79  H    0.015782
    80  H    0.203083
    81  H    0.208224
 Sum of Mulliken charges =  -0.00000

 Dipole moment (field-independent basis, Debye):
    X=              2.9614    Y=             -1.8904    Z=              1.5260  Tot=              3.8304
 Quadrupole moment (field-independent basis, Debye-Ang):
   XX=           -251.2745   YY=           -249.2125   ZZ=           -255.2839
   XY=            -14.1635   XZ=             15.1278   YZ=             13.9724

 Normal termination of Gaussian 16 at Fri Jul  5 04:02:59 2019.
