 Gaussian 16, Revision A.03,
 Gaussian 16:  ES64L-G16RevA.03 25-Dec-2016

 --------------------------
 # td=(NStates=1) B3LYP/SVP
 --------------------------

 --
 TD
 --
 Symbolic Z-matrix:
 Charge =  0 Multiplicity = 1

                         Standard orientation:
 ---------------------------------------------------------------------
 Center     Atomic      Atomic             Coordinates (Angstroms)
 Number     Number       Type             X           Y           Z
 ---------------------------------------------------------------------
      1          8           0        4.378103   -4.791540   -1.934112
      2          8           0       -3.157722   -4.691924   -1.329714
      3          8           0       -7.144210   -1.319093   -1.781365
      4          8           0       -3.925911   -3.066951   -0.024900
      5          8           0       -7.489772   -0.564390    0.232704
      6          8           0        3.137991    2.444905    0.245562
      7          7           0        0.258177   -0.579389    0.561887
      8          7           0       -1.415093    1.813232    0.179288
      9          7           0        3.371386   -3.146234   -0.667330
     10          7           0        0.911601    2.897488   -0.028846
     11          6           0       -0.701875   -2.491387    1.370159
     12          6           0       -0.990041   -1.198755    0.880281
     13          6           0        0.730489   -2.704072    1.253231
     14          6           0        1.233685   -1.474276    0.783941
     15          6           0       -3.598454    1.488817    0.329148
     16          6           0       -2.362605    0.875293    0.551892
     17          6           0       -2.234440   -0.492768    0.766027
     18          6           0       -3.412724    2.797578   -0.108931
     19          6           0       -1.732758   -3.514010    1.801643
     20          6           0        5.489019   -2.738113   -1.404347
     21          6           0        3.620148   -1.872616   -0.146655
     22          6           0       -2.037512    3.029616   -0.108218
     23          6           0        5.018814   -1.634168   -0.425724
     24          6           0       -5.001610    0.846234    0.469744
     25          6           0        2.582720   -1.206192    0.414086
     26          6           0        1.424306   -3.883647    1.764234
     27          6           0        4.392856   -3.689355   -1.358813
     28          6           0       -2.237480   -4.518201    0.961730
     29          6           0       -5.437120    0.082982   -0.710082
     30          6           0       -4.419342    3.826650   -0.415823
     31          6           0       -1.165968    4.165636   -0.300545
     32          6           0        6.902188   -3.282957   -1.150266
     33          6           0        5.757482   -0.737632    0.203423
     34          6           0        0.132855    4.051441   -0.249831
     35          6           0        1.045728    5.150102   -0.437053
     36          6           0        2.337486    4.733595   -0.372028
     37          6           0       -3.190267   -3.967623   -0.119529
     38          6           0        5.302113    0.244941    1.361583
     39          6           0       -6.822954   -0.551117   -0.685745
     40          6           0        3.715707    5.293880   -0.384695
     41          6           0        2.206874    3.199020    0.038606
     42          6           0        0.615276    6.621281   -0.732061
     43          6           0        4.278818    5.686304    0.989548
     44          1           0        0.427488    0.151541   -0.089696
     45          1           0       -3.004373   -1.049496    0.931725
     46          1           0       -2.725803   -3.220806    2.156024
     47          1           0       -1.289965   -3.865451    2.762306
     48          1           0        5.344134   -2.349109   -2.303503
     49          1           0       -5.029145    0.215534    1.473377
     50          1           0       -5.792523    1.331093    0.634441
     51          1           0        2.837984   -0.069494    0.681503
     52          1           0       -0.429235    1.750567    0.358526
     53          1           0        1.631458   -4.716929    1.108746
     54          1           0        2.541894   -3.540227    2.118088
     55          1           0        1.009604   -4.222194    2.789880
     56          1           0        2.405513   -3.668677   -0.458044
     57          1           0       -1.245695   -5.013377    0.460135
     58          1           0       -2.907121   -5.294043    1.422392
     59          1           0       -4.636214   -0.796468   -0.929856
     60          1           0       -5.526915    0.722433   -1.680234
     61          1           0       -4.223643    4.720547    0.067000
     62          1           0       -5.315125    3.469096   -0.382850
     63          1           0       -4.333422    4.130304   -1.522789
     64          1           0       -1.715808    5.024707   -0.456172
     65          1           0        7.784983   -2.707565   -1.591564
     66          1           0        6.930713   -4.373761   -1.507938
     67          1           0        6.789650   -3.499822    0.022042
     68          1           0        6.818064   -0.831997    0.081702
     69          1           0        4.730118    1.066253    0.896100
     70          1           0        6.330274    0.554021    1.800918
     71          1           0        4.557903   -0.199610    2.163612
     72          1           0        3.656469    6.111616   -1.224874
     73          1           0        4.440355    4.518709   -0.806026
     74          1           0       -0.050132    6.474548   -1.495950
     75          1           0        1.661335    7.075809   -0.852312
     76          1           0       -0.016544    7.116683   -0.016355
     77          1           0        3.627832    6.421916    1.644664
     78          1           0        5.376324    5.993386    0.875606
     79          1           0        4.222606    4.770833    1.663205
     80          1           0       -3.774465   -4.246309   -1.815212
     81          1           0       -8.027369   -1.756901   -1.532582
 ---------------------------------------------------------------------

 SCF Done:  E(RB3LYP) =  -1949.07931065     A.U. after   17 cycles

 Excitation energies and oscillator strengths:

 Excited State   1:      Singlet-A      1.9512 eV  635.44 nm  f=0.3226  <S**2>=0.000
     155 ->157         0.13771
     156 ->157         0.68947
     156 <-157        -0.10580
 This state for optimization and/or second-order correction.
 Total Energy, E(TD-HF/TD-DFT) =  -1949.00760689
 Copying the excited state density for this state as the 1-particle RhoCI density.

 The electronic state is 1-A.
 Alpha  occ. eigenvalues --  -19.18053 -19.17446 -19.16174 -19.13234 -19.09925
 Alpha  occ. eigenvalues --  -19.08670 -14.38477 -14.37780 -14.35797 -14.26888
 Alpha  occ. eigenvalues --  -10.34144 -10.31550 -10.28486 -10.24881 -10.24789
 Alpha  occ. eigenvalues --  -10.24396 -10.24366 -10.24333 -10.23655 -10.23604
 Alpha  occ. eigenvalues --  -10.22123 -10.22109 -10.21993 -10.21935 -10.21367
 Alpha  occ. eigenvalues --  -10.21331 -10.21219 -10.20903 -10.20740 -10.20045
 Alpha  occ. eigenvalues --  -10.20031 -10.19969 -10.19864 -10.19748 -10.19526
 Alpha  occ. eigenvalues --  -10.19245 -10.19181 -10.18882 -10.18849 -10.18255
 Alpha  occ. eigenvalues --  -10.18216 -10.18106 -10.17438  -1.12816  -1.11782
 Alpha  occ. eigenvalues --   -1.03703  -1.02512  -1.01424  -0.99983  -0.99605
 Alpha  occ. eigenvalues --   -0.98198  -0.95377  -0.90086  -0.84985  -0.83185
 Alpha  occ. eigenvalues --   -0.82566  -0.82083  -0.80628  -0.79759  -0.78820
 Alpha  occ. eigenvalues --   -0.77886  -0.77824  -0.75510  -0.73917  -0.72990
 Alpha  occ. eigenvalues --   -0.72710  -0.69918  -0.69296  -0.68857  -0.67993
 Alpha  occ. eigenvalues --   -0.67017  -0.66707  -0.64924  -0.62710  -0.61694
 Alpha  occ. eigenvalues --   -0.60597  -0.59781  -0.58669  -0.58127  -0.58020
 Alpha  occ. eigenvalues --   -0.57023  -0.56019  -0.55887  -0.54639  -0.53192
 Alpha  occ. eigenvalues --   -0.52802  -0.52320  -0.51622  -0.51184  -0.50727
 Alpha  occ. eigenvalues --   -0.50534  -0.49938  -0.49636  -0.49273  -0.48579
 Alpha  occ. eigenvalues --   -0.48437  -0.47773  -0.47660  -0.47195  -0.45834
 Alpha  occ. eigenvalues --   -0.45200  -0.44930  -0.44618  -0.44353  -0.44071
 Alpha  occ. eigenvalues --   -0.43800  -0.43338  -0.43159  -0.42799  -0.42519
 Alpha  occ. eigenvalues --   -0.42406  -0.42336  -0.42093  -0.41573  -0.41396
 Alpha  occ. eigenvalues --   -0.41161  -0.41138  -0.40743  -0.40337  -0.39743
 Alpha  occ. eigenvalues --   -0.39506  -0.39230  -0.38741  -0.38530  -0.38395
 Alpha  occ. eigenvalues --   -0.37830  -0.37641  -0.37538  -0.37346  -0.37185
 Alpha  occ. eigenvalues --   -0.36308  -0.36089  -0.35849  -0.34676  -0.34559
 Alpha  occ. eigenvalues --   -0.34439  -0.33956  -0.33759  -0.33399  -0.33220
 Alpha  occ. eigenvalues --   -0.32683  -0.32327  -0.31129  -0.30974  -0.30237
 Alpha  occ. eigenvalues --   -0.28610  -0.26940  -0.26649  -0.26065  -0.25757
 Alpha  occ. eigenvalues --   -0.25269  -0.25133  -0.22890  -0.21983  -0.21251
 Alpha  occ. eigenvalues --   -0.19140
 Alpha virt. eigenvalues --   -0.11343  -0.05220  -0.03891  -0.01711   0.00636
 Alpha virt. eigenvalues --    0.01224   0.01495   0.01956   0.03335   0.04060
 Alpha virt. eigenvalues --    0.04608   0.04888   0.05744   0.05819   0.06119

 Mulliken charges:
               1
     1  O   -0.252130
     2  O   -0.177109
     3  O   -0.241781
     4  O   -0.168817
     5  O   -0.150701
     6  O   -0.225067
     7  N   -0.054272
     8  N   -0.093944
     9  N   -0.146673
    10  N   -0.301056
    11  C   -0.074407
    12  C    0.046395
    13  C   -0.147508
    14  C    0.070175
    15  C   -0.086473
    16  C    0.140645
    17  C    0.046019
    18  C   -0.157523
    19  C    0.080225
    20  C    0.119632
    21  C    0.113484
    22  C    0.067374
    23  C   -0.017433
    24  C    0.186334
    25  C   -0.177176
    26  C   -0.014239
    27  C    0.056240
    28  C    0.027780
    29  C   -0.089013
    30  C    0.248265
    31  C   -0.159812
    32  C   -0.003347
    33  C   -0.157030
    34  C    0.271305
    35  C   -0.166164
    36  C   -0.205321
    37  C    0.096843
    38  C   -0.017000
    39  C    0.109422
    40  C    0.049019
    41  C    0.116970
    42  C    0.160438
    43  C   -0.030320
    44  H    0.139555
    45  H   -0.109270
    46  H   -0.000500
    47  H    0.009547
    48  H   -0.006706
    49  H    0.026049
    50  H   -0.080357
    51  H    0.062496
    52  H    0.113314
    53  H    0.038952
    54  H    0.044848
    55  H    0.044492
    56  H    0.168277
    57  H    0.046695
    58  H    0.057940
    59  H    0.072927
    60  H    0.039906
    61  H    0.007527
    62  H   -0.053189
    63  H    0.009864
    64  H   -0.074346
    65  H    0.052226
    66  H    0.044563
    67  H    0.029389
    68  H   -0.012117
    69  H    0.093485
    70  H    0.026059
    71  H    0.047026
    72  H    0.009218
    73  H    0.019004
    74  H   -0.011167
    75  H    0.040559
    76  H   -0.000235
    77  H    0.020580
    78  H    0.029978
    79  H    0.028693
    80  H    0.137583
    81  H    0.194892
 Sum of Mulliken charges =  -0.00000

 Dipole moment (field-independent basis, Debye):
    X=             -4.1747    Y=             -0.6940    Z=              1.2802  Tot=              4.4214
 Quadrupole moment (field-independent basis, Debye-Ang):
   XX=           -243.1201   YY=           -253.8762   ZZ=           -256.8453
   XY=              6.8109   XZ=             11.7052   YZ=            -18.5048

 Normal termination of Gaussian 16 at Thu Jul  4 10:15:54 2019.
