 Gaussian 16, Revision A.03,
 Gaussian 16:  ES64L-G16RevA.03 25-Dec-2016

 --------------------------
 # td=(NStates=1) B3LYP/SVP
 --------------------------

 --
 TD
 --
 Symbolic Z-matrix:
 Charge =  0 Multiplicity = 1

                         Standard orientation:
 ---------------------------------------------------------------------
 Center     Atomic      Atomic             Coordinates (Angstroms)
 Number     Number       Type             X           Y           Z
 ---------------------------------------------------------------------
      1          8           0        4.510248   -4.672169   -1.930273
      2          8           0       -2.770279   -5.005358   -1.270536
      3          8           0       -7.196396   -1.533680   -1.788255
      4          8           0       -3.547981   -3.175223   -0.210800
      5          8           0       -7.752393   -0.540910    0.069764
      6          8           0        2.945624    2.336509    0.110025
      7          7           0        0.314676   -0.537875    0.623594
      8          7           0       -1.676051    1.820400    0.416226
      9          7           0        3.511881   -3.050393   -0.669940
     10          7           0        0.697177    2.962962    0.199434
     11          6           0       -0.641072   -2.413726    1.334468
     12          6           0       -0.956132   -1.085559    0.973190
     13          6           0        0.722457   -2.655130    1.264163
     14          6           0        1.274416   -1.467991    0.687481
     15          6           0       -3.877629    1.361314    0.315214
     16          6           0       -2.608038    0.786830    0.545734
     17          6           0       -2.194440   -0.504104    0.826692
     18          6           0       -3.590387    2.829410    0.069593
     19          6           0       -1.636736   -3.436830    1.926601
     20          6           0        5.603639   -2.476408   -1.258421
     21          6           0        3.696445   -1.886228   -0.048135
     22          6           0       -2.198405    2.980645    0.126463
     23          6           0        5.107046   -1.455095   -0.420821
     24          6           0       -5.163116    0.649959    0.287151
     25          6           0        2.679232   -1.094382    0.458940
     26          6           0        1.489523   -3.874025    1.758213
     27          6           0        4.542613   -3.635371   -1.299563
     28          6           0       -2.062744   -4.559269    0.930024
     29          6           0       -5.481044   -0.397044   -0.851777
     30          6           0       -4.574765    3.907336   -0.257384
     31          6           0       -1.351665    4.111436   -0.146891
     32          6           0        7.011291   -3.054519   -1.069530
     33          6           0        5.851915   -0.539421    0.181282
     34          6           0        0.103175    4.101167   -0.090595
     35          6           0        0.975469    5.171095   -0.446749
     36          6           0        2.238220    4.653594   -0.463741
     37          6           0       -2.890951   -4.115913   -0.259905
     38          6           0        5.462689    0.500334    1.291822
     39          6           0       -6.946263   -0.720167   -0.687600
     40          6           0        3.626480    5.374528   -0.616136
     41          6           0        2.055933    3.221100    0.007695
     42          6           0        0.498230    6.540962   -0.831004
     43          6           0        4.295959    5.659034    0.716005
     44          1           0        0.391374    0.441869   -0.041831
     45          1           0       -3.126821   -1.161633    0.982115
     46          1           0       -2.474986   -2.847442    2.395142
     47          1           0       -1.166235   -3.875638    2.795320
     48          1           0        5.578782   -1.971178   -2.308789
     49          1           0       -5.091230   -0.025152    1.323747
     50          1           0       -5.954738    1.226649    0.421190
     51          1           0        2.689835    0.110694    0.494763
     52          1           0       -0.427022    1.675227    0.499449
     53          1           0        1.399533   -4.827857    1.188019
     54          1           0        2.654067   -3.701243    1.804378
     55          1           0        1.196123   -4.132536    3.006685
     56          1           0        2.664736   -3.634132   -0.515891
     57          1           0       -1.061295   -5.170667    0.732097
     58          1           0       -2.689122   -5.093254    1.638043
     59          1           0       -4.935950   -1.130897   -0.897534
     60          1           0       -5.361693    0.015124   -1.819212
     61          1           0       -4.454039    4.839378    0.301575
     62          1           0       -5.686048    3.643205   -0.275292
     63          1           0       -4.497778    4.127540   -1.320222
     64          1           0       -1.627469    5.073323   -0.481647
     65          1           0        8.107544   -2.508765   -1.148269
     66          1           0        7.157074   -3.972946   -1.660971
     67          1           0        7.240572   -3.515773   -0.069340
     68          1           0        6.836173   -0.485764   -0.135470
     69          1           0        4.534736    1.146932    1.069222
     70          1           0        6.415514    1.067108    1.896715
     71          1           0        5.119406   -0.148628    2.164734
     72          1           0        3.612014    6.258566   -1.114522
     73          1           0        4.226260    4.535445   -1.016701
     74          1           0       -0.692386    6.294309   -1.365862
     75          1           0        1.220641    7.267747   -1.341704
     76          1           0        0.302435    7.175099    0.208889
     77          1           0        3.549589    6.284797    1.290740
     78          1           0        5.208408    6.302348    0.698204
     79          1           0        4.502985    4.648250    1.193225
     80          1           0       -3.234469   -4.520340   -2.129839
     81          1           0       -7.938958   -1.914136   -2.000624
 ---------------------------------------------------------------------

 SCF Done:  E(RB3LYP) =  -1949.00591824     A.U. after   17 cycles

 Excitation energies and oscillator strengths:

 Excited State   1:      Singlet-A      1.8531 eV  669.07 nm  f=0.3722  <S**2>=0.000
     156 ->157         0.70943
     156 <-157        -0.12046
 This state for optimization and/or second-order correction.
 Total Energy, E(TD-HF/TD-DFT) =  -1948.93781889
 Copying the excited state density for this state as the 1-particle RhoCI density.

 The electronic state is 1-A.
 Alpha  occ. eigenvalues --  -19.20358 -19.15218 -19.13978 -19.13815 -19.12242
 Alpha  occ. eigenvalues --  -19.09779 -14.39304 -14.38728 -14.34767 -14.28882
 Alpha  occ. eigenvalues --  -10.33461 -10.31778 -10.30139 -10.26310 -10.25479
 Alpha  occ. eigenvalues --  -10.24717 -10.23577 -10.23549 -10.22838 -10.22724
 Alpha  occ. eigenvalues --  -10.22248 -10.22227 -10.21876 -10.21695 -10.21504
 Alpha  occ. eigenvalues --  -10.21341 -10.20616 -10.20586 -10.20494 -10.20239
 Alpha  occ. eigenvalues --  -10.20238 -10.20083 -10.19915 -10.19911 -10.19767
 Alpha  occ. eigenvalues --  -10.19564 -10.19456 -10.19328 -10.19087 -10.18721
 Alpha  occ. eigenvalues --  -10.18274 -10.18107 -10.17977  -1.12503  -1.12001
 Alpha  occ. eigenvalues --   -1.05289  -1.03793  -1.02446  -0.99383  -0.98762
 Alpha  occ. eigenvalues --   -0.98262  -0.97088  -0.92166  -0.83165  -0.82433
 Alpha  occ. eigenvalues --   -0.81769  -0.80900  -0.79220  -0.78450  -0.77502
 Alpha  occ. eigenvalues --   -0.77115  -0.76059  -0.75151  -0.73659  -0.72307
 Alpha  occ. eigenvalues --   -0.71354  -0.69226  -0.68619  -0.67941  -0.67481
 Alpha  occ. eigenvalues --   -0.67135  -0.65711  -0.64441  -0.62731  -0.62260
 Alpha  occ. eigenvalues --   -0.60715  -0.59781  -0.59156  -0.58482  -0.57092
 Alpha  occ. eigenvalues --   -0.56495  -0.55257  -0.54955  -0.54099  -0.52962
 Alpha  occ. eigenvalues --   -0.52438  -0.51866  -0.51399  -0.50758  -0.50571
 Alpha  occ. eigenvalues --   -0.49873  -0.49284  -0.49223  -0.48830  -0.47907
 Alpha  occ. eigenvalues --   -0.47585  -0.46851  -0.46289  -0.45680  -0.45370
 Alpha  occ. eigenvalues --   -0.44689  -0.44172  -0.44040  -0.43964  -0.43784
 Alpha  occ. eigenvalues --   -0.43307  -0.43028  -0.42933  -0.42073  -0.41992
 Alpha  occ. eigenvalues --   -0.41650  -0.41364  -0.41245  -0.40807  -0.40425
 Alpha  occ. eigenvalues --   -0.40256  -0.40152  -0.39880  -0.39611  -0.39470
 Alpha  occ. eigenvalues --   -0.39205  -0.38493  -0.38248  -0.37968  -0.37929
 Alpha  occ. eigenvalues --   -0.37136  -0.37043  -0.36805  -0.36710  -0.36398
 Alpha  occ. eigenvalues --   -0.36258  -0.35915  -0.35450  -0.35148  -0.34974
 Alpha  occ. eigenvalues --   -0.34731  -0.34488  -0.34057  -0.33721  -0.32637
 Alpha  occ. eigenvalues --   -0.32397  -0.32070  -0.31620  -0.30660  -0.30492
 Alpha  occ. eigenvalues --   -0.29227  -0.27970  -0.27408  -0.26571  -0.26365
 Alpha  occ. eigenvalues --   -0.25230  -0.23920  -0.23367  -0.22688  -0.21382
 Alpha  occ. eigenvalues --   -0.17679
 Alpha virt. eigenvalues --   -0.10383  -0.06306  -0.04296  -0.00729  -0.00656
 Alpha virt. eigenvalues --    0.00943   0.01444   0.01814   0.02211   0.02874
 Alpha virt. eigenvalues --    0.03320   0.03398   0.04820   0.05198   0.05879

 Mulliken charges:
               1
     1  O   -0.201049
     2  O   -0.238541
     3  O   -0.209618
     4  O   -0.138543
     5  O   -0.096193
     6  O   -0.263171
     7  N   -0.161183
     8  N   -0.182221
     9  N   -0.051221
    10  N   -0.284690
    11  C   -0.105184
    12  C    0.118064
    13  C   -0.099331
    14  C    0.017307
    15  C   -0.038203
    16  C    0.043981
    17  C   -0.077368
    18  C   -0.143432
    19  C    0.079161
    20  C   -0.048632
    21  C    0.069878
    22  C    0.153633
    23  C    0.001373
    24  C    0.061145
    25  C   -0.142045
    26  C   -0.057317
    27  C    0.115114
    28  C   -0.003829
    29  C    0.182399
    30  C    0.087661
    31  C   -0.095307
    32  C   -0.019835
    33  C   -0.090155
    34  C    0.022495
    35  C   -0.037302
    36  C   -0.198049
    37  C    0.133534
    38  C   -0.045006
    39  C    0.102268
    40  C    0.145174
    41  C    0.161684
    42  C   -0.043403
    43  C   -0.045921
    44  H    0.207376
    45  H    0.031170
    46  H    0.013172
    47  H   -0.006391
    48  H    0.068607
    49  H    0.029391
    50  H   -0.042040
    51  H    0.084659
    52  H    0.230937
    53  H    0.050289
    54  H    0.047276
    55  H    0.056021
    56  H    0.136078
    57  H    0.052517
    58  H    0.040960
    59  H   -0.089668
    60  H    0.009137
    61  H    0.027926
    62  H    0.009078
    63  H    0.009638
    64  H   -0.079992
    65  H    0.036186
    66  H    0.027390
    67  H    0.001190
    68  H   -0.031317
    69  H    0.109827
    70  H    0.032428
    71  H    0.022140
    72  H   -0.030401
    73  H    0.014436
    74  H    0.064889
    75  H    0.040677
    76  H    0.046550
    77  H    0.006090
    78  H    0.017269
    79  H    0.042923
    80  H    0.229841
    81  H    0.105619
 Sum of Mulliken charges =  -0.00000

 Dipole moment (field-independent basis, Debye):
    X=             -2.1095    Y=             -1.3743    Z=             -0.5822  Tot=              2.5841
 Quadrupole moment (field-independent basis, Debye-Ang):
   XX=           -253.1024   YY=           -241.0878   ZZ=           -254.1111
   XY=             14.1690   XZ=             18.8572   YZ=            -13.6472

 Normal termination of Gaussian 16 at Mon Jul  1 10:42:21 2019.
