 Gaussian 16, Revision A.03,
 Gaussian 16:  ES64L-G16RevA.03 25-Dec-2016

 --------------------------
 # td=(NStates=1) B3LYP/SVP
 --------------------------

 --
 TD
 --
 Symbolic Z-matrix:
 Charge =  0 Multiplicity = 1

                         Standard orientation:
 ---------------------------------------------------------------------
 Center     Atomic      Atomic             Coordinates (Angstroms)
 Number     Number       Type             X           Y           Z
 ---------------------------------------------------------------------
      1          8           0        4.530618   -4.764815   -1.947053
      2          8           0       -3.096639   -4.901230   -1.095741
      3          8           0       -7.100090   -1.465591   -1.746847
      4          8           0       -3.722620   -3.031887   -0.088807
      5          8           0       -7.597920   -0.505074    0.158359
      6          8           0        3.063632    2.420028    0.194913
      7          7           0        0.261191   -0.630729    0.616091
      8          7           0       -1.498436    1.898251    0.333223
      9          7           0        3.407480   -3.278616   -0.664046
     10          7           0        0.737113    2.913126    0.000413
     11          6           0       -0.725625   -2.415586    1.409726
     12          6           0       -0.942928   -1.059313    1.025742
     13          6           0        0.649361   -2.822275    1.062600
     14          6           0        1.219030   -1.599325    0.719791
     15          6           0       -3.768827    1.557827    0.356229
     16          6           0       -2.432075    0.977788    0.584110
     17          6           0       -2.191536   -0.329259    0.988803
     18          6           0       -3.612104    2.827592   -0.221785
     19          6           0       -1.810849   -3.285824    2.006913
     20          6           0        5.533352   -2.587663   -1.349593
     21          6           0        3.585294   -1.975235   -0.246600
     22          6           0       -2.073359    3.035255   -0.141985
     23          6           0        5.095728   -1.627035   -0.369988
     24          6           0       -5.113434    0.789652    0.427493
     25          6           0        2.610436   -1.114373    0.427272
     26          6           0        1.393091   -4.079884    1.558968
     27          6           0        4.501627   -3.703065   -1.403095
     28          6           0       -2.258262   -4.477383    0.992675
     29          6           0       -5.374596   -0.108155   -0.814253
     30          6           0       -4.537789    3.833314   -0.700148
     31          6           0       -1.223322    4.135304   -0.382511
     32          6           0        6.942728   -3.215816   -1.036256
     33          6           0        5.800956   -0.714498    0.292076
     34          6           0        0.132857    4.083053   -0.231402
     35          6           0        1.084837    5.210602   -0.392399
     36          6           0        2.280555    4.704220   -0.265838
     37          6           0       -3.184536   -4.093547   -0.049438
     38          6           0        5.413312    0.300851    1.221174
     39          6           0       -6.779985   -0.745148   -0.680753
     40          6           0        3.625747    5.394418   -0.318835
     41          6           0        2.206366    3.232390   -0.013167
     42          6           0        0.793173    6.658869   -0.652598
     43          6           0        4.302161    5.628663    1.146948
     44          1           0        0.750044    0.199362    0.285009
     45          1           0       -2.885354   -1.130278    1.232677
     46          1           0       -2.691510   -2.637410    2.020455
     47          1           0       -1.433123   -3.671443    2.966036
     48          1           0        5.591759   -2.321013   -2.527782
     49          1           0       -5.348347    0.321057    1.309364
     50          1           0       -6.055976    1.602567    0.242855
     51          1           0        2.896448    0.004245    0.626822
     52          1           0       -0.594045    1.940041    0.272171
     53          1           0        1.434749   -4.815477    1.051178
     54          1           0        2.337075   -3.731260    1.908304
     55          1           0        0.936618   -4.343778    2.470340
     56          1           0        2.563204   -3.730862   -1.022028
     57          1           0       -1.337066   -5.073133    0.829442
     58          1           0       -2.510059   -5.364723    1.629813
     59          1           0       -4.435384   -0.852392   -0.930530
     60          1           0       -5.504474    0.394235   -1.871087
     61          1           0       -4.245069    4.795711   -0.427031
     62          1           0       -5.605621    3.574613   -0.368603
     63          1           0       -4.614139    3.834895   -1.829400
     64          1           0       -1.745170    5.081304   -0.756006
     65          1           0        7.756487   -2.445560   -1.102122
     66          1           0        7.133113   -4.037767   -1.987626
     67          1           0        6.934993   -3.776517   -0.170225
     68          1           0        6.926341   -0.836418   -0.025169
     69          1           0        4.638616    0.992521    0.577692
     70          1           0        6.251743    0.974379    1.660998
     71          1           0        4.762804   -0.219733    2.013756
     72          1           0        3.622985    6.274357   -0.947984
     73          1           0        4.384275    4.605847   -0.923032
     74          1           0        0.106884    6.731310   -1.522217
     75          1           0        1.808624    7.260107   -0.946960
     76          1           0        0.240756    7.193565    0.002578
     77          1           0        3.712518    6.087502    1.946071
     78          1           0        5.340566    6.132510    0.799403
     79          1           0        4.811518    4.574116    1.391095
     80          1           0       -3.773754   -4.696348   -1.711709
     81          1           0       -7.978599   -1.714263   -1.664177
 ---------------------------------------------------------------------

 SCF Done:  E(RB3LYP) =  -1949.05420911     A.U. after   16 cycles

 Excitation energies and oscillator strengths:

 Excited State   1:      Singlet-A      1.9254 eV  643.93 nm  f=0.3593  <S**2>=0.000
     156 ->157         0.70522
     156 <-157        -0.10954
 This state for optimization and/or second-order correction.
 Total Energy, E(TD-HF/TD-DFT) =  -1948.98345097
 Copying the excited state density for this state as the 1-particle RhoCI density.

 The electronic state is 1-A.
 Alpha  occ. eigenvalues --  -19.19117 -19.17718 -19.13962 -19.12365 -19.11907
 Alpha  occ. eigenvalues --  -19.11430 -14.36982 -14.36286 -14.35007 -14.28094
 Alpha  occ. eigenvalues --  -10.33213 -10.31738 -10.28782 -10.27226 -10.24937
 Alpha  occ. eigenvalues --  -10.24134 -10.23596 -10.22378 -10.22280 -10.21859
 Alpha  occ. eigenvalues --  -10.21849 -10.21276 -10.21136 -10.21042 -10.21021
 Alpha  occ. eigenvalues --  -10.21016 -10.20808 -10.20741 -10.20535 -10.20339
 Alpha  occ. eigenvalues --  -10.20146 -10.20008 -10.19953 -10.19778 -10.19699
 Alpha  occ. eigenvalues --  -10.19570 -10.19513 -10.19469 -10.19387 -10.19066
 Alpha  occ. eigenvalues --  -10.18400 -10.18180 -10.16969  -1.12542  -1.11514
 Alpha  occ. eigenvalues --   -1.05150  -1.03207  -1.03172  -1.01241  -0.99589
 Alpha  occ. eigenvalues --   -0.98213  -0.95601  -0.91013  -0.82318  -0.82018
 Alpha  occ. eigenvalues --   -0.81207  -0.80489  -0.79398  -0.77939  -0.77274
 Alpha  occ. eigenvalues --   -0.76623  -0.76199  -0.74354  -0.73118  -0.72533
 Alpha  occ. eigenvalues --   -0.71932  -0.69434  -0.69262  -0.68930  -0.67836
 Alpha  occ. eigenvalues --   -0.67251  -0.65077  -0.64670  -0.62722  -0.61750
 Alpha  occ. eigenvalues --   -0.61498  -0.60054  -0.58728  -0.56973  -0.56500
 Alpha  occ. eigenvalues --   -0.55899  -0.55490  -0.54985  -0.54347  -0.53590
 Alpha  occ. eigenvalues --   -0.53078  -0.51487  -0.51033  -0.50245  -0.49567
 Alpha  occ. eigenvalues --   -0.49030  -0.48654  -0.48160  -0.47998  -0.47497
 Alpha  occ. eigenvalues --   -0.47070  -0.46512  -0.46275  -0.45330  -0.45180
 Alpha  occ. eigenvalues --   -0.44742  -0.44581  -0.44104  -0.43878  -0.43784
 Alpha  occ. eigenvalues --   -0.43414  -0.43034  -0.42715  -0.42365  -0.42272
 Alpha  occ. eigenvalues --   -0.41976  -0.41760  -0.40933  -0.40867  -0.40800
 Alpha  occ. eigenvalues --   -0.40398  -0.40204  -0.40035  -0.39592  -0.39449
 Alpha  occ. eigenvalues --   -0.39300  -0.39121  -0.38907  -0.38867  -0.38148
 Alpha  occ. eigenvalues --   -0.37655  -0.37490  -0.37367  -0.36886  -0.36395
 Alpha  occ. eigenvalues --   -0.36156  -0.35415  -0.35200  -0.35000  -0.34308
 Alpha  occ. eigenvalues --   -0.33958  -0.33499  -0.33281  -0.32887  -0.32658
 Alpha  occ. eigenvalues --   -0.32211  -0.31815  -0.31386  -0.30178  -0.29440
 Alpha  occ. eigenvalues --   -0.28549  -0.28185  -0.27208  -0.25848  -0.25251
 Alpha  occ. eigenvalues --   -0.24623  -0.24299  -0.24053  -0.23335  -0.20922
 Alpha  occ. eigenvalues --   -0.17224
 Alpha virt. eigenvalues --   -0.09571  -0.05030  -0.03491  -0.01699  -0.00480
 Alpha virt. eigenvalues --    0.00803   0.03242   0.03689   0.03854   0.04064
 Alpha virt. eigenvalues --    0.04339   0.04449   0.05436   0.05556   0.06161

 Mulliken charges:
               1
     1  O   -0.181061
     2  O   -0.137454
     3  O   -0.130559
     4  O   -0.202940
     5  O   -0.222204
     6  O   -0.170450
     7  N   -0.039840
     8  N    0.101357
     9  N   -0.090950
    10  N   -0.375301
    11  C   -0.145009
    12  C   -0.009404
    13  C   -0.203268
    14  C    0.011309
    15  C   -0.071459
    16  C    0.146432
    17  C   -0.024385
    18  C   -0.103086
    19  C    0.107384
    20  C   -0.112532
    21  C    0.050128
    22  C    0.011545
    23  C    0.009949
    24  C    0.073773
    25  C   -0.142905
    26  C    0.279096
    27  C    0.077486
    28  C   -0.035698
    29  C   -0.108601
    30  C    0.106252
    31  C   -0.145556
    32  C    0.009456
    33  C   -0.143288
    34  C    0.112305
    35  C   -0.057909
    36  C   -0.166464
    37  C    0.173371
    38  C   -0.020060
    39  C    0.131018
    40  C   -0.003520
    41  C    0.190734
    42  C    0.116033
    43  C   -0.050799
    44  H    0.145847
    45  H   -0.010339
    46  H    0.005706
    47  H    0.013168
    48  H    0.066037
    49  H    0.007477
    50  H    0.028956
    51  H    0.062364
    52  H    0.010041
    53  H   -0.076447
    54  H    0.009673
    55  H   -0.026961
    56  H    0.146435
    57  H    0.016511
    58  H    0.024900
    59  H    0.090826
    60  H    0.052797
    61  H    0.012295
    62  H    0.023691
    63  H    0.027932
    64  H   -0.022338
    65  H    0.039084
    66  H    0.039158
    67  H    0.005935
    68  H    0.001660
    69  H    0.117102
    70  H    0.036537
    71  H    0.048640
    72  H    0.003914
    73  H    0.027006
    74  H    0.007985
    75  H    0.035574
    76  H   -0.009651
    77  H    0.047786
    78  H    0.023603
    79  H    0.045887
    80  H    0.164599
    81  H    0.143683
 Sum of Mulliken charges =  -0.00000

 Dipole moment (field-independent basis, Debye):
    X=             -2.4885    Y=              0.4223    Z=             -0.8359  Tot=              2.6589
 Quadrupole moment (field-independent basis, Debye-Ang):
   XX=           -250.6525   YY=           -233.2289   ZZ=           -253.6732
   XY=             20.0103   XZ=             18.8270   YZ=            -12.8771

 Normal termination of Gaussian 16 at Fri Jun 28 21:02:16 2019.
