 Gaussian 16, Revision A.03,
 Gaussian 16:  ES64L-G16RevA.03 25-Dec-2016

 --------------------------
 # td=(NStates=1) B3LYP/SVP
 --------------------------

 --
 TD
 --
 Symbolic Z-matrix:
 Charge =  0 Multiplicity = 1

                         Standard orientation:
 ---------------------------------------------------------------------
 Center     Atomic      Atomic             Coordinates (Angstroms)
 Number     Number       Type             X           Y           Z
 ---------------------------------------------------------------------
      1          8           0       -4.362788   -4.758036    1.971237
      2          8           0        3.137329   -4.700230    1.352140
      3          8           0        7.011433   -1.208890    1.925543
      4          8           0        3.907046   -2.905805    0.206198
      5          8           0        7.640885   -0.639033   -0.156048
      6          8           0       -3.000080    2.336969   -0.126692
      7          7           0       -0.274077   -0.555764   -0.648038
      8          7           0        1.457501    1.877196   -0.385588
      9          7           0       -3.363678   -3.207166    0.602711
     10          7           0       -0.804765    2.883464   -0.047925
     11          6           0        0.795639   -2.407589   -1.435591
     12          6           0        0.995810   -1.030900   -1.090517
     13          6           0       -0.608246   -2.655426   -1.271379
     14          6           0       -1.274997   -1.441558   -0.816620
     15          6           0        3.730912    1.456576   -0.481418
     16          6           0        2.504198    0.856430   -0.782663
     17          6           0        2.147164   -0.387508   -1.034215
     18          6           0        3.517643    2.731499    0.037376
     19          6           0        1.779862   -3.403445   -1.831865
     20          6           0       -5.557302   -2.635550    1.326391
     21          6           0       -3.568988   -1.885363    0.107601
     22          6           0        2.094833    2.968572   -0.085648
     23          6           0       -5.069507   -1.644206    0.319602
     24          6           0        5.054440    0.834773   -0.550081
     25          6           0       -2.628504   -1.069023   -0.506487
     26          6           0       -1.307875   -3.907993   -1.802538
     27          6           0       -4.431410   -3.644421    1.413654
     28          6           0        2.213712   -4.444529   -0.759763
     29          6           0        5.313779   -0.062816    0.631877
     30          6           0        4.517931    3.757538    0.616325
     31          6           0        1.283686    4.152878    0.333374
     32          6           0       -6.895426   -3.320216    1.072369
     33          6           0       -5.838072   -0.774480   -0.269492
     34          6           0       -0.101444    4.009951    0.210847
     35          6           0       -1.091012    5.204627    0.446741
     36          6           0       -2.299448    4.636578    0.347240
     37          6           0        3.167941   -3.930282    0.255218
     38          6           0       -5.472928    0.338850   -1.205736
     39          6           0        6.703576   -0.651876    0.730875
     40          6           0       -3.741339    5.156034    0.469502
     41          6           0       -2.113464    3.158659   -0.001406
     42          6           0       -0.769899    6.551879    0.834660
     43          6           0       -4.485561    5.334460   -0.882368
     44          1           0       -0.619347    0.272476   -0.292893
     45          1           0        3.076235   -1.157764   -1.016300
     46          1           0        2.607371   -2.861891   -2.207201
     47          1           0        1.436003   -3.829592   -2.776796
     48          1           0       -5.636255   -2.229371    2.575155
     49          1           0        5.275637    0.101061   -1.509118
     50          1           0        5.845128    1.524627   -0.654230
     51          1           0       -2.892775    0.089101   -0.731672
     52          1           0        0.389689    1.831505   -0.227072
     53          1           0       -1.134332   -4.829220   -1.198344
     54          1           0       -2.442908   -3.731276   -1.765742
     55          1           0       -0.844978   -3.969869   -2.678605
     56          1           0       -2.442123   -3.536643    0.697549
     57          1           0        1.370072   -4.841290   -0.140566
     58          1           0        2.636626   -5.313622   -1.160394
     59          1           0        4.570129   -0.904556    0.720490
     60          1           0        5.271744    0.398877    1.482546
     61          1           0        4.211708    4.854724    0.219114
     62          1           0        5.468671    3.340155    0.139060
     63          1           0        4.403530    3.563205    1.870462
     64          1           0        1.590096    5.138645    0.661678
     65          1           0       -7.700046   -2.595246    0.911818
     66          1           0       -7.358963   -3.982678    1.810898
     67          1           0       -6.800011   -3.839306    0.078419
     68          1           0       -6.865530   -0.536183    0.105929
     69          1           0       -4.880057    1.226315   -0.821416
     70          1           0       -6.324134    0.479430   -1.719383
     71          1           0       -4.548628    0.014208   -1.903395
     72          1           0       -3.610225    6.174621    1.095313
     73          1           0       -4.292239    4.580785    0.998878
     74          1           0       -0.160439    6.449925    1.844975
     75          1           0       -1.736768    7.361971    1.240725
     76          1           0       -0.229537    7.233598    0.062332
     77          1           0       -3.896689    5.959971   -1.832439
     78          1           0       -5.483770    5.905115   -0.752504
     79          1           0       -4.905278    4.365749   -1.326134
     80          1           0        3.536947   -4.355876    2.113093
     81          1           0        7.945753   -1.448342    1.983434
 ---------------------------------------------------------------------

 SCF Done:  E(RB3LYP) =  -1949.07362024     A.U. after   17 cycles

 Excitation energies and oscillator strengths:

 Excited State   1:      Singlet-A      2.1626 eV  573.32 nm  f=0.4022  <S**2>=0.000
     156 ->157         0.70308
 This state for optimization and/or second-order correction.
 Total Energy, E(TD-HF/TD-DFT) =  -1948.99414792
 Copying the excited state density for this state as the 1-particle RhoCI density.

 The electronic state is 1-A.
 Alpha  occ. eigenvalues --  -19.20326 -19.18120 -19.15025 -19.11469 -19.11180
 Alpha  occ. eigenvalues --  -19.09369 -14.37835 -14.37380 -14.35064 -14.28516
 Alpha  occ. eigenvalues --  -10.35183 -10.32288 -10.29890 -10.25858 -10.25414
 Alpha  occ. eigenvalues --  -10.24286 -10.24100 -10.23379 -10.23066 -10.23020
 Alpha  occ. eigenvalues --  -10.22966 -10.22756 -10.22682 -10.21943 -10.21478
 Alpha  occ. eigenvalues --  -10.21095 -10.20771 -10.20691 -10.20626 -10.20550
 Alpha  occ. eigenvalues --  -10.20506 -10.20163 -10.20062 -10.19916 -10.19840
 Alpha  occ. eigenvalues --  -10.19645 -10.19495 -10.19394 -10.19350 -10.18636
 Alpha  occ. eigenvalues --  -10.18531 -10.17974 -10.17894  -1.11938  -1.08292
 Alpha  occ. eigenvalues --   -1.02271  -1.01275  -1.01115  -0.98914  -0.97091
 Alpha  occ. eigenvalues --   -0.96173  -0.94404  -0.91450  -0.84527  -0.83520
 Alpha  occ. eigenvalues --   -0.82641  -0.81935  -0.79459  -0.79239  -0.78301
 Alpha  occ. eigenvalues --   -0.77950  -0.76491  -0.75196  -0.74172  -0.73277
 Alpha  occ. eigenvalues --   -0.71874  -0.70692  -0.70099  -0.68754  -0.67656
 Alpha  occ. eigenvalues --   -0.67046  -0.66055  -0.64696  -0.64431  -0.61871
 Alpha  occ. eigenvalues --   -0.60924  -0.59874  -0.58338  -0.58131  -0.57591
 Alpha  occ. eigenvalues --   -0.56017  -0.55786  -0.55518  -0.53441  -0.53062
 Alpha  occ. eigenvalues --   -0.52383  -0.52162  -0.51268  -0.50776  -0.50686
 Alpha  occ. eigenvalues --   -0.49886  -0.49141  -0.48893  -0.47963  -0.47693
 Alpha  occ. eigenvalues --   -0.46939  -0.46734  -0.46303  -0.45812  -0.45538
 Alpha  occ. eigenvalues --   -0.45408  -0.44542  -0.44105  -0.43865  -0.43647
 Alpha  occ. eigenvalues --   -0.43271  -0.43086  -0.42714  -0.42292  -0.42159
 Alpha  occ. eigenvalues --   -0.42025  -0.41524  -0.41118  -0.40878  -0.40629
 Alpha  occ. eigenvalues --   -0.40392  -0.40211  -0.40067  -0.39900  -0.39829
 Alpha  occ. eigenvalues --   -0.39638  -0.39233  -0.38889  -0.38546  -0.38068
 Alpha  occ. eigenvalues --   -0.37909  -0.37677  -0.37357  -0.37046  -0.36851
 Alpha  occ. eigenvalues --   -0.35678  -0.35651  -0.35371  -0.34660  -0.34596
 Alpha  occ. eigenvalues --   -0.34463  -0.34234  -0.33731  -0.33254  -0.32965
 Alpha  occ. eigenvalues --   -0.32405  -0.31215  -0.30623  -0.30438  -0.30166
 Alpha  occ. eigenvalues --   -0.27166  -0.26948  -0.26814  -0.26258  -0.25588
 Alpha  occ. eigenvalues --   -0.25277  -0.24414  -0.23937  -0.23553  -0.21901
 Alpha  occ. eigenvalues --   -0.18649
 Alpha virt. eigenvalues --   -0.09843  -0.05368  -0.03756  -0.03484  -0.02110
 Alpha virt. eigenvalues --   -0.00633   0.01603   0.03010   0.03288   0.03462
 Alpha virt. eigenvalues --    0.03762   0.04496   0.04767   0.05688   0.06061

 Mulliken charges:
               1
     1  O   -0.235633
     2  O   -0.147355
     3  O   -0.185111
     4  O   -0.262267
     5  O   -0.309366
     6  O   -0.227790
     7  N   -0.048412
     8  N   -0.158714
     9  N   -0.118448
    10  N   -0.276828
    11  C   -0.118731
    12  C    0.151023
    13  C   -0.218902
    14  C    0.016429
    15  C   -0.017102
    16  C    0.144871
    17  C   -0.185908
    18  C   -0.179286
    19  C    0.159329
    20  C   -0.113471
    21  C    0.107517
    22  C    0.116672
    23  C    0.059539
    24  C    0.044723
    25  C   -0.150999
    26  C    0.122489
    27  C    0.146755
    28  C    0.070002
    29  C    0.094448
    30  C    0.012099
    31  C   -0.106236
    32  C    0.060817
    33  C   -0.187362
    34  C    0.050946
    35  C   -0.023253
    36  C   -0.194846
    37  C    0.142203
    38  C    0.026478
    39  C    0.144480
    40  C    0.192825
    41  C    0.131413
    42  C   -0.083191
    43  C   -0.097943
    44  H    0.100466
    45  H    0.071235
    46  H   -0.011133
    47  H   -0.000464
    48  H    0.073060
    49  H    0.041446
    50  H   -0.008467
    51  H    0.090843
    52  H    0.168451
    53  H    0.016020
    54  H    0.046624
    55  H   -0.008790
    56  H    0.117331
    57  H    0.047040
    58  H    0.032277
    59  H    0.062896
    60  H   -0.041767
    61  H    0.065683
    62  H    0.040396
    63  H    0.070878
    64  H   -0.035954
    65  H    0.005073
    66  H    0.031913
    67  H    0.017862
    68  H    0.013508
    69  H    0.095552
    70  H   -0.010603
    71  H    0.022068
    72  H    0.001343
    73  H   -0.051266
    74  H    0.049252
    75  H    0.041755
    76  H    0.052568
    77  H    0.032025
    78  H    0.015026
    79  H    0.039286
    80  H    0.172385
    81  H    0.186280
 Sum of Mulliken charges =  -0.00000

 Dipole moment (field-independent basis, Debye):
    X=              1.5269    Y=             -1.1075    Z=              1.2296  Tot=              2.2516
 Quadrupole moment (field-independent basis, Debye-Ang):
   XX=           -258.8731   YY=           -246.3944   ZZ=           -252.4019
   XY=            -13.7236   XZ=             18.5346   YZ=             11.1332

 Normal termination of Gaussian 16 at Thu Jun 27 16:09:17 2019.
