 Gaussian 16, Revision A.03,

 -------------------------------------------------
 #n wB97XD/Def2TZVP Opt Geom=Checkpoint Guess=Read
 -------------------------------------------------

 --------------
 lutein-charged
 --------------
 Structure from the checkpoint file:  "lutein-charged.chk"
 Charge =  1 Multiplicity = 2

 SCF Done:  E(UwB97XD) =  -1708.15825088     A.U. after   23 cycles
 SCF Done:  E(UwB97XD) =  -1708.16886510     A.U. after   22 cycles
 SCF Done:  E(UwB97XD) =  -1708.17208506     A.U. after   22 cycles
 SCF Done:  E(UwB97XD) =  -1708.17278628     A.U. after   21 cycles
 SCF Done:  E(UwB97XD) =  -1708.17307979     A.U. after   21 cycles
 SCF Done:  E(UwB97XD) =  -1708.17319849     A.U. after   17 cycles
 SCF Done:  E(UwB97XD) =  -1708.17325340     A.U. after   17 cycles
 SCF Done:  E(UwB97XD) =  -1708.17327753     A.U. after   15 cycles
 SCF Done:  E(UwB97XD) =  -1708.17328880     A.U. after   15 cycles
 SCF Done:  E(UwB97XD) =  -1708.17329671     A.U. after   13 cycles
 SCF Done:  E(UwB97XD) =  -1708.17412977     A.U. after   10 cycles
 SCF Done:  E(UwB97XD) =  -1708.17413444     A.U. after   14 cycles
 SCF Done:  E(UwB97XD) =  -1708.17413721     A.U. after   13 cycles
 SCF Done:  E(UwB97XD) =  -1708.17413799     A.U. after   12 cycles
 SCF Done:  E(UwB97XD) =  -1708.17413846     A.U. after   11 cycles
 SCF Done:  E(UwB97XD) =  -1708.17413904     A.U. after   12 cycles
 SCF Done:  E(UwB97XD) =  -1708.17413924     A.U. after   11 cycles
 SCF Done:  E(UwB97XD) =  -1708.17413935     A.U. after    7 cycles
 SCF Done:  E(UwB97XD) =  -1708.17413938     A.U. after    6 cycles
 Optimization completed.
    -- Stationary point found.
 Normal termination of Gaussian 16 at Thu Nov 28 03:28:48 2019.
 Gaussian 16:  ES64L-G16RevA.03 25-Dec-2016

 ----------------------------------
 #n wB97XD/Def2TZVP Geom=Checkpoint
 ----------------------------------

 -----------------
 lutein-charged-SP
 -----------------
 Structure from the checkpoint file:  "lutein-charged-SP.chk"
 Charge =  0 Multiplicity = 1

                         Standard orientation:
 ---------------------------------------------------------------------
 Center     Atomic      Atomic             Coordinates (Angstroms)
 Number     Number       Type             X           Y           Z
 ---------------------------------------------------------------------
      1          8           0      -13.929418   -2.165158    0.394221
      2          8           0       14.673580    0.979314    0.179479
      3          6           0      -11.660692   -0.071277    1.340527
      4          6           0      -10.914894    0.338311    0.043285
      5          6           0      -11.825241   -1.596125    1.360962
      6          6           0      -12.526794   -2.179999    0.142285
      7          6           0      -11.511119   -0.309750   -1.196617
      8          6           0       10.995510    0.900686    1.134292
      9          6           0      -10.863471    0.363515    2.571151
     10          6           0      -13.018248    0.638516    1.370118
     11          6           0       12.395906    1.475508    0.881352
     12          6           0      -12.201797   -1.441469   -1.125129
     13          6           0       13.388370    0.434957    0.402559
     14          6           0       10.590195   -0.064752    0.009928
     15          6           0       -9.455186    0.006513    0.070519
     16          6           0       12.909950   -0.123400   -0.916835
     17          6           0       11.454060   -0.494073   -0.931405
     18          6           0       10.027502    2.091920    1.217960
     19          6           0       10.960381    0.148972    2.474487
     20          6           0      -11.260129    0.404145   -2.489545
     21          6           0       -8.469375    0.889167   -0.134274
     22          6           0        9.192648   -0.483934    0.035854
     23          6           0       11.087795   -1.335865   -2.119874
     24          6           0       -7.056666    0.580529   -0.135767
     25          6           0        8.727634   -1.730702   -0.177001
     26          6           0       -6.633677   -0.835780    0.100698
     27          6           0        7.341597   -2.136758   -0.130571
     28          6           0       -6.177633    1.609223   -0.350219
     29          6           0        7.126576   -3.610459    0.035536
     30          6           0        6.317668   -1.229757   -0.247988
     31          6           0       -4.771669    1.525642   -0.383877
     32          6           0        4.944443   -1.512159   -0.164197
     33          6           0       -3.970573    2.620925   -0.603286
     34          6           0       -2.560128    2.655038   -0.654642
     35          6           0        3.970881   -0.547523   -0.298489
     36          6           0        2.586346   -0.774481   -0.220571
     37          6           0       -1.907393    3.985804   -0.904985
     38          6           0       -1.776832    1.515077   -0.482532
     39          6           0        1.743081    0.325743   -0.382396
     40          6           0        2.065199   -2.159422    0.027621
     41          6           0       -0.391454    1.492247   -0.519982
     42          6           0        0.357208    0.334427   -0.344020
     43          1           0      -11.009331    1.424137   -0.066695
     44          1           0      -12.384021   -1.896355    2.249508
     45          1           0      -10.838403   -2.060503    1.445445
     46          1           0      -12.204998   -3.223763    0.029140
     47          1           0       -9.905971   -0.156931    2.645683
     48          1           0      -10.660100    1.436955    2.546363
     49          1           0      -11.429841    0.151179    3.479855
     50          1           0      -13.613641    0.422677    0.485102
     51          1           0      -13.595466    0.313505    2.236981
     52          1           0      -12.876753    1.719729    1.442923
     53          1           0       12.343107    2.258752    0.118690
     54          1           0       12.754160    1.948716    1.800838
     55          1           0      -12.606053   -1.868335   -2.040097
     56          1           0       13.452568   -0.381176    1.134138
     57          1           0       -9.214853   -1.038413    0.240908
     58          1           0       13.503248   -0.999235   -1.193810
     59          1           0       13.100369    0.622723   -1.697392
     60          1           0        9.048328    1.811003    1.608832
     61          1           0        9.893472    2.561687    0.241392
     62          1           0       10.435984    2.842062    1.897652
     63          1           0       11.668560   -0.680572    2.490482
     64          1           0        9.966908   -0.263146    2.664337
     65          1           0       11.205160    0.824997    3.296750
     66          1           0      -10.190490    0.566266   -2.647960
     67          1           0      -11.733605    1.389892   -2.475863
     68          1           0      -11.652887   -0.152400   -3.339668
     69          1           0      -14.390016   -2.487016   -0.382767
     70          1           0        8.476909    0.276068    0.330210
     71          1           0       -8.733534    1.928326   -0.308593
     72          1           0       11.391622   -2.375598   -1.966446
     73          1           0       10.024867   -1.322246   -2.348978
     74          1           0       11.636843   -0.980777   -2.994877
     75          1           0       15.027629    1.298115    1.011218
     76          1           0        9.444804   -2.528914   -0.333311
     77          1           0       -5.556335   -0.970604    0.076390
     78          1           0       -6.992939   -1.178593    1.073181
     79          1           0       -7.071465   -1.491251   -0.654680
     80          1           0       -6.603720    2.595389   -0.509245
     81          1           0        7.556659   -3.943426    0.983123
     82          1           0        6.084202   -3.914037    0.006958
     83          1           0        7.656078   -4.146714   -0.755419
     84          1           0        6.580471   -0.194591   -0.437949
     85          1           0       -4.312380    0.557806   -0.228288
     86          1           0        4.633466   -2.533480    0.016692
     87          1           0       -4.476669    3.569399   -0.752749
     88          1           0        4.294551    0.473143   -0.478781
     89          1           0       -1.298923    3.960478   -1.811244
     90          1           0       -1.251889    4.262893   -0.076811
     91          1           0       -2.649131    4.772715   -1.021897
     92          1           0       -2.272311    0.567283   -0.305087
     93          1           0        2.228581    1.281515   -0.558358
     94          1           0        2.441929   -2.545479    0.976514
     95          1           0        0.980884   -2.201117    0.062747
     96          1           0        2.396690   -2.839155   -0.759468
     97          1           0        0.148834    2.416838   -0.694134
     98          1           0       -0.184310   -0.588751   -0.170677
 ---------------------------------------------------------------------

 SCF Done:  E(RwB97XD) =  -1708.37107454     A.U. after   16 cycles

 The electronic state is 1-A.
 Alpha  occ. eigenvalues --  -19.24619 -19.24361 -10.33303 -10.32890 -10.30237
 Alpha  occ. eigenvalues --  -10.29939 -10.29821 -10.29782 -10.29728 -10.29418
 Alpha  occ. eigenvalues --  -10.29277 -10.29180 -10.29072 -10.28829 -10.28717
 Alpha  occ. eigenvalues --  -10.28651 -10.28644 -10.28465 -10.28460 -10.28415
 Alpha  occ. eigenvalues --  -10.28396 -10.28364 -10.28329 -10.28271 -10.28241
 Alpha  occ. eigenvalues --  -10.28230 -10.28104 -10.28041 -10.27957 -10.27942
 Alpha  occ. eigenvalues --  -10.27932 -10.27826 -10.27630 -10.27590 -10.27464
 Alpha  occ. eigenvalues --  -10.27302 -10.27296 -10.27241 -10.27204 -10.26961
 Alpha  occ. eigenvalues --  -10.26336 -10.25646  -1.12706  -1.12269  -0.96054
 Alpha  occ. eigenvalues --   -0.96043  -0.94546  -0.94020  -0.93048  -0.92364
 Alpha  occ. eigenvalues --   -0.89737  -0.89449  -0.89134  -0.87965  -0.87167
 Alpha  occ. eigenvalues --   -0.85559  -0.84673  -0.83000  -0.82607  -0.81012
 Alpha  occ. eigenvalues --   -0.79284  -0.78921  -0.78595  -0.78466  -0.78391
 Alpha  occ. eigenvalues --   -0.77904  -0.77675  -0.77412  -0.75321  -0.72888
 Alpha  occ. eigenvalues --   -0.71509  -0.70369  -0.69034  -0.67662  -0.66329
 Alpha  occ. eigenvalues --   -0.65570  -0.65148  -0.64849  -0.63291  -0.62609
 Alpha  occ. eigenvalues --   -0.62170  -0.61629  -0.61274  -0.60307  -0.58985
 Alpha  occ. eigenvalues --   -0.58445  -0.57742  -0.57449  -0.56851  -0.56435
 Alpha  occ. eigenvalues --   -0.55902  -0.55569  -0.55309  -0.54696  -0.53532
 Alpha  occ. eigenvalues --   -0.52924  -0.52617  -0.52050  -0.51554  -0.51429
 Alpha  occ. eigenvalues --   -0.51306  -0.51213  -0.51114  -0.50947  -0.50841
 Alpha  occ. eigenvalues --   -0.50749  -0.50120  -0.49527  -0.49226  -0.48852
 Alpha  occ. eigenvalues --   -0.48611  -0.48329  -0.47869  -0.47837  -0.47636
 Alpha  occ. eigenvalues --   -0.47385  -0.47370  -0.46589  -0.46516  -0.46456
 Alpha  occ. eigenvalues --   -0.46319  -0.46015  -0.45444  -0.45095  -0.44940
 Alpha  occ. eigenvalues --   -0.44870  -0.44334  -0.44291  -0.43775  -0.43492
 Alpha  occ. eigenvalues --   -0.43454  -0.43061  -0.43051  -0.42894  -0.42521
 Alpha  occ. eigenvalues --   -0.42453  -0.42129  -0.42015  -0.41947  -0.41575
 Alpha  occ. eigenvalues --   -0.41224  -0.39803  -0.39632  -0.39583  -0.39094
 Alpha  occ. eigenvalues --   -0.38645  -0.37827  -0.36978  -0.35345  -0.35247
 Alpha  occ. eigenvalues --   -0.34827  -0.32657  -0.31985  -0.29709  -0.26412
 Alpha  occ. eigenvalues --   -0.21497
 Alpha virt. eigenvalues --   -0.04697   0.00571   0.04372   0.07130   0.08627
 Alpha virt. eigenvalues --    0.09997   0.10010   0.10479   0.10940   0.11182
 Alpha virt. eigenvalues --    0.11546   0.11713   0.11955   0.11990   0.12331

 Mulliken charges:
               1
     1  O   -0.468375
     2  O   -0.454297
     3  C    0.092263
     4  C    0.211785
     5  C   -0.313445
     6  C    0.261316
     7  C   -0.011347
     8  C    0.160019
     9  C   -0.337816
    10  C   -0.379322
    11  C   -0.255712
    12  C   -0.318492
    13  C    0.093466
    14  C    0.028628
    15  C   -0.364310
    16  C   -0.160495
    17  C    0.002783
    18  C   -0.409842
    19  C   -0.407893
    20  C   -0.401500
    21  C   -0.183598
    22  C   -0.213041
    23  C   -0.423443
    24  C    0.147560
    25  C   -0.279831
    26  C   -0.377337
    27  C    0.140749
    28  C   -0.172028
    29  C   -0.370655
    30  C   -0.154407
    31  C    0.003311
    32  C   -0.051457
    33  C   -0.259492
    34  C    0.156863
    35  C   -0.219785
    36  C    0.138371
    37  C   -0.402541
    38  C   -0.125870
    39  C   -0.154280
    40  C   -0.389623
    41  C   -0.161116
    42  C   -0.087925
    43  H    0.081978
    44  H    0.114166
    45  H    0.107540
    46  H    0.071078
    47  H    0.119927
    48  H    0.115453
    49  H    0.123332
    50  H    0.136083
    51  H    0.116357
    52  H    0.105555
    53  H    0.108505
    54  H    0.103066
    55  H    0.104105
    56  H    0.066088
    57  H    0.145809
    58  H    0.118152
    59  H    0.114329
    60  H    0.121906
    61  H    0.134826
    62  H    0.126487
    63  H    0.116756
    64  H    0.136838
    65  H    0.116223
    66  H    0.142028
    67  H    0.123676
    68  H    0.113892
    69  H    0.302938
    70  H    0.108066
    71  H    0.107012
    72  H    0.132504
    73  H    0.156656
    74  H    0.127070
    75  H    0.307297
    76  H    0.133340
    77  H    0.115883
    78  H    0.132752
    79  H    0.135236
    80  H    0.097890
    81  H    0.132232
    82  H    0.112201
    83  H    0.125427
    84  H    0.107762
    85  H    0.080326
    86  H    0.105300
    87  H    0.093322
    88  H    0.099152
    89  H    0.136375
    90  H    0.136392
    91  H    0.120876
    92  H    0.092248
    93  H    0.099332
    94  H    0.133899
    95  H    0.119168
    96  H    0.134230
    97  H    0.116907
    98  H    0.086212
 Sum of Mulliken charges =  -0.00000

 Dipole moment (field-independent basis, Debye):
    X=              0.4549    Y=             -0.8083    Z=              0.0452  Tot=              0.9286
 Quadrupole moment (field-independent basis, Debye-Ang):
   XX=           -271.9794   YY=           -242.5947   ZZ=           -263.7900
   XY=              1.3034   XZ=             37.0944   YZ=              2.5439

 Normal termination of Gaussian 16 at Thu Nov 28 04:21:14 2019.
