 Gaussian 16, Revision A.03,
 Gaussian 16:  ES64L-G16RevA.03 25-Dec-2016

 ----------------------------------
 #n wB97XD/Def2TZVP Geom=Checkpoint
 ----------------------------------

 ------------
 lutein-s0-sp
 ------------
 Structure from the checkpoint file:  "lutein-s0-sp.chk"
 Charge =  1 Multiplicity = 2

                         Standard orientation:
 ---------------------------------------------------------------------
 Center     Atomic      Atomic             Coordinates (Angstroms)
 Number     Number       Type             X           Y           Z
 ---------------------------------------------------------------------
      1          8           0      -13.823471   -2.402218    0.796171
      2          8           0       14.644236    0.874285    0.880696
      3          6           0      -11.745512    0.031933    1.301514
      4          6           0      -10.902037    0.133532    0.004423
      5          6           0      -11.838931   -1.441273    1.719120
      6          6           0      -12.401564   -2.372165    0.654263
      7          6           0      -11.363419   -0.851914   -1.053770
      8          6           0       11.102732   -0.202709    1.746127
      9          6           0      -11.089745    0.829250    2.429147
     10          6           0      -13.133906    0.626167    1.038943
     11          6           0       12.455445    0.507787    1.886809
     12          6           0      -12.005562   -1.970590   -0.736843
     13          6           0       13.390791    0.229003    0.727810
     14          6           0       10.567267   -0.074450    0.315290
     15          6           0       -9.427521   -0.066574    0.221027
     16          6           0       12.766420    0.748377   -0.545481
     17          6           0       11.315507    0.375431   -0.702852
     18          6           0       10.137262    0.442900    2.751515
     19          6           0       11.241947   -1.692088    2.099906
     20          6           0      -11.020311   -0.495975   -2.467629
     21          6           0       -8.490144    0.823909   -0.100016
     22          6           0        9.167190   -0.498953    0.131951
     23          6           0       10.808374    0.600375   -2.099710
     24          6           0       -7.049072    0.658224    0.072553
     25          6           0        8.754158   -1.412257   -0.748716
     26          6           0       -6.563526   -0.629793    0.668507
     27          6           0        7.365241   -1.836026   -0.958292
     28          6           0       -6.239421    1.664123   -0.310567
     29          6           0        7.198185   -3.285430   -1.318175
     30          6           0        6.351336   -0.960508   -0.839684
     31          6           0       -4.798503    1.715207   -0.234508
     32          6           0        4.938254   -1.234649   -0.962187
     33          6           0       -4.080856    2.773301   -0.639149
     34          6           0       -2.623708    2.894023   -0.612411
     35          6           0        3.998405   -0.283036   -0.843254
     36          6           0        2.561962   -0.477714   -0.945287
     37          6           0       -2.113123    4.298294   -0.447910
     38          6           0       -1.831593    1.812433   -0.744761
     39          6           0        1.757793    0.596402   -0.795695
     40          6           0        2.058954   -1.866321   -1.212418
     41          6           0       -0.392280    1.769490   -0.691495
     42          6           0        0.319707    0.640358   -0.856730
     43          1           0      -11.039989    1.143603   -0.398414
     44          1           0      -12.456278   -1.537194    2.615163
     45          1           0      -10.839835   -1.793935    1.989826
     46          1           0      -12.019292   -3.383878    0.846209
     47          1           0      -10.119536    0.416507    2.710390
     48          1           0      -10.932718    1.868776    2.130770
     49          1           0      -11.730217    0.825353    3.314013
     50          1           0      -13.632233    0.147208    0.197967
     51          1           0      -13.774588    0.497778    1.913224
     52          1           0      -13.050618    1.696505    0.832883
     53          1           0       12.301142    1.590394    1.937479
     54          1           0       12.919377    0.205020    2.831993
     55          1           0      -12.295535   -2.656187   -1.530649
     56          1           0       13.546354   -0.853544    0.632376
     57          1           0       -9.139515   -1.024810    0.642910
     58          1           0       13.328392    0.386896   -1.411462
     59          1           0       12.866277    1.840284   -0.558090
     60          1           0        9.206506   -0.117469    2.845590
     61          1           0        9.896697    1.468396    2.463210
     62          1           0       10.602349    0.470062    3.739604
     63          1           0       11.958994   -2.194994    1.449312
     64          1           0       10.284343   -2.204128    1.992361
     65          1           0       11.574856   -1.808501    3.134475
     66          1           0       -9.948031   -0.310771   -2.569574
     67          1           0      -11.532046    0.425507   -2.760133
     68          1           0      -11.305344   -1.284097   -3.164336
     69          1           0      -14.196610   -2.844795    0.032005
     70          1           0        8.429180   -0.067379    0.801737
     71          1           0       -8.805848    1.771746   -0.530210
     72          1           0       11.197784   -0.161370   -2.781738
     73          1           0        9.723393    0.587960   -2.165404
     74          1           0       11.172528    1.563338   -2.468921
     75          1           0       15.053914    0.556669    1.686855
     76          1           0        9.504177   -1.923506   -1.348254
     77          1           0       -5.481752   -0.667212    0.764310
     78          1           0       -6.993391   -0.776605    1.662561
     79          1           0       -6.876967   -1.477983    0.054745
     80          1           0       -6.712213    2.548782   -0.730233
     81          1           0        7.508846   -3.924898   -0.487473
     82          1           0        6.177112   -3.547589   -1.585186
     83          1           0        7.840492   -3.535832   -2.166686
     84          1           0        6.608623    0.075651   -0.637902
     85          1           0       -4.273565    0.864061    0.184214
     86          1           0        4.631416   -2.256788   -1.149748
     87          1           0       -4.620675    3.649562   -0.993140
     88          1           0        4.323610    0.736341   -0.649736
     89          1           0       -1.032578    4.376214   -0.539076
     90          1           0       -2.403244    4.699557    0.526699
     91          1           0       -2.559982    4.948692   -1.204514
     92          1           0       -2.315457    0.856848   -0.926319
     93          1           0        2.241105    1.551736   -0.605672
     94          1           0        2.379811   -2.549036   -0.421697
     95          1           0        0.975217   -1.914824   -1.275121
     96          1           0        2.465964   -2.246971   -2.152476
     97          1           0        0.148489    2.690856   -0.500788
     98          1           0       -0.222164   -0.281098   -1.043092
 ---------------------------------------------------------------------

 SCF Done:  E(UwB97XD) =  -1708.15825088     A.U. after   25 cycles

 Alpha virt. eigenvalues --    0.32054   0.32147   0.32289   0.32525   0.32970
 Alpha virt. eigenvalues --    0.33235   0.33344   0.33536   0.33960   0.34008
 Alpha virt. eigenvalues --    0.34407   0.34660   0.34851   0.34958   0.35204

  Beta  occ. eigenvalues --  -19.29740 -19.29296 -10.43263 -10.43013 -10.42275
  Beta  occ. eigenvalues --  -10.41958 -10.41599 -10.41230 -10.41115 -10.40723
  Beta  occ. eigenvalues --  -10.40362 -10.40229 -10.40031 -10.39290 -10.38909
  Beta  occ. eigenvalues --  -10.38649 -10.38592 -10.38485 -10.38368 -10.37727
  Beta  occ. eigenvalues --  -10.37617 -10.37208 -10.37045 -10.36993 -10.36575
  Beta  occ. eigenvalues --  -10.36504 -10.36276 -10.36257 -10.35671 -10.35366
  Beta  occ. eigenvalues --  -10.35316 -10.35152 -10.33814 -10.33687 -10.33327
  Beta  occ. eigenvalues --  -10.33322 -10.33257 -10.33186 -10.33025 -10.32789
  Beta  occ. eigenvalues --  -10.32108 -10.31001  -1.17753  -1.17140  -1.06539
  Beta  occ. eigenvalues --   -1.05300  -1.03760  -1.03061  -1.02321  -1.01677
  Beta  occ. eigenvalues --   -1.00622  -0.97795  -0.96504  -0.95819  -0.94926
  Beta  occ. eigenvalues --   -0.94358  -0.93305  -0.92082  -0.90077  -0.89740
  Beta  occ. eigenvalues --   -0.89604  -0.88668  -0.87684  -0.85612  -0.85117
  Beta  occ. eigenvalues --   -0.84658  -0.84001  -0.83742  -0.83081  -0.82485
  Beta  occ. eigenvalues --   -0.80302  -0.78418  -0.76565  -0.76266  -0.74949
  Beta  occ. eigenvalues --   -0.74357  -0.74067  -0.73304  -0.72579  -0.71170
  Beta  occ. eigenvalues --   -0.70867  -0.70731  -0.69332  -0.67755  -0.67548
  Beta  occ. eigenvalues --   -0.66982  -0.66427  -0.65522  -0.64844  -0.64637
  Beta  occ. eigenvalues --   -0.63932  -0.63306  -0.63064  -0.62415  -0.62008
  Beta  occ. eigenvalues --   -0.61441  -0.61367  -0.61112  -0.60824  -0.60756
  Beta  occ. eigenvalues --   -0.59901  -0.59774  -0.59444  -0.59100  -0.58814
  Beta  occ. eigenvalues --   -0.57813  -0.57731  -0.57549  -0.57242  -0.57116
  Beta  occ. eigenvalues --   -0.56962  -0.56356  -0.56041  -0.55742  -0.55295
  Beta  occ. eigenvalues --   -0.55203  -0.54963  -0.54894  -0.54473  -0.54433
  Beta  occ. eigenvalues --   -0.54126  -0.54048  -0.53883  -0.53552  -0.53247
  Beta  occ. eigenvalues --   -0.52948  -0.52529  -0.52213  -0.52178  -0.51824
  Beta  occ. eigenvalues --   -0.51632  -0.51138  -0.50867  -0.50841  -0.50743
  Beta  occ. eigenvalues --   -0.49757  -0.49614  -0.49098  -0.48801  -0.48317
  Beta  occ. eigenvalues --   -0.47934  -0.47585  -0.46566  -0.45803  -0.45387
  Beta  occ. eigenvalues --   -0.45330  -0.44803  -0.43962  -0.43033  -0.40686
  Beta  occ. eigenvalues --   -0.40337  -0.40052  -0.38436  -0.37456  -0.35467
  Beta virt. eigenvalues --   -0.21359  -0.12459  -0.07858  -0.04313  -0.01024
  Beta virt. eigenvalues --    0.00936   0.01269   0.02136   0.02375   0.02642
  Beta virt. eigenvalues --    0.03035   0.03515   0.03804   0.03948   0.04030

 Mulliken charges and spin densities:
               1          2
     1  O   -0.464147   0.000136
     2  O   -0.448162   0.000038
     3  C    0.087932   0.003188
     4  C    0.191726  -0.004681
     5  C   -0.315831   0.000620
     6  C    0.258812  -0.000274
     7  C   -0.020925   0.001328
     8  C    0.186557   0.002772
     9  C   -0.340726   0.000723
    10  C   -0.378133   0.000035
    11  C   -0.259279   0.000023
    12  C   -0.329405   0.002418
    13  C    0.089245   0.000174
    14  C    0.010559  -0.016668
    15  C   -0.339031   0.088893
    16  C   -0.160544  -0.001084
    17  C   -0.027720   0.023693
    18  C   -0.424135  -0.000125
    19  C   -0.411094   0.000887
    20  C   -0.394861   0.001030
    21  C   -0.161866  -0.040438
    22  C   -0.265041   0.093935
    23  C   -0.380847  -0.000629
    24  C    0.148531   0.124821
    25  C   -0.225865  -0.047215
    26  C   -0.376226  -0.005142
    27  C    0.165658   0.165968
    28  C   -0.163762  -0.064670
    29  C   -0.355264  -0.007805
    30  C   -0.211229  -0.051272
    31  C   -0.016454   0.138647
    32  C    0.016870   0.169928
    33  C   -0.217250  -0.064686
    34  C    0.137732   0.156916
    35  C   -0.219457  -0.049804
    36  C    0.151583   0.129031
    37  C   -0.356182  -0.008190
    38  C   -0.156682   0.009731
    39  C   -0.110421   0.041737
    40  C   -0.392509  -0.006174
    41  C   -0.058017   0.099593
    42  C   -0.097248   0.062465
    43  H    0.092204   0.000086
    44  H    0.127185   0.000075
    45  H    0.102731  -0.000063
    46  H    0.077736   0.000030
    47  H    0.111500  -0.000082
    48  H    0.118450   0.000044
    49  H    0.137178  -0.000010
    50  H    0.138137   0.000010
    51  H    0.128279   0.000268
    52  H    0.109761   0.000007
    53  H    0.115116   0.000003
    54  H    0.115367   0.000082
    55  H    0.120916   0.000231
    56  H    0.071665   0.000006
    57  H    0.158211  -0.002485
    58  H    0.129426   0.001274
    59  H    0.126051   0.001153
    60  H    0.119804   0.000041
    61  H    0.135523   0.000003
    62  H    0.138753  -0.000048
    63  H    0.124596  -0.000015
    64  H    0.124541  -0.000141
    65  H    0.130132  -0.000172
    66  H    0.129005  -0.000059
    67  H    0.132472  -0.000041
    68  H    0.124717  -0.000014
    69  H    0.307818  -0.000004
    70  H    0.149235  -0.002881
    71  H    0.121224   0.001252
    72  H    0.138826   0.000955
    73  H    0.133176  -0.000097
    74  H    0.141026   0.001202
    75  H    0.311972  -0.000012
    76  H    0.149778   0.004075
    77  H    0.111842   0.000129
    78  H    0.156033   0.005352
    79  H    0.155617   0.005576
    80  H    0.122120   0.001464
    81  H    0.156773   0.008453
    82  H    0.112696  -0.000079
    83  H    0.151747   0.006433
    84  H    0.145943   0.001183
    85  H    0.117561  -0.003798
    86  H    0.137276  -0.004502
    87  H    0.138767   0.003530
    88  H    0.127682   0.001289
    89  H    0.119025  -0.000552
    90  H    0.163449   0.008679
    91  H    0.155632   0.006666
    92  H    0.138262  -0.000505
    93  H    0.135164  -0.002050
    94  H    0.160907   0.006878
    95  H    0.132251   0.000132
    96  H    0.161998   0.006777
    97  H    0.123759  -0.003332
    98  H    0.116091  -0.002262
 Sum of Mulliken charges =   1.00000   1.00000

 Dipole moment (field-independent basis, Debye):
    X=              3.0858    Y=             -0.2932    Z=             -2.5743  Tot=              4.0293
 Quadrupole moment (field-independent basis, Debye-Ang):
   XX=            -50.8727   YY=           -220.4405   ZZ=           -249.0363
   XY=            -29.7611   XZ=             23.6008   YZ=              3.8303

 Normal termination of Gaussian 16 at Fri Nov 29 03:56:38 2019.
