 Gaussian 09, Revision D.01,
 Gaussian 09:  ES64L-G09RevD.01 24-Apr-2013

 ---------------------------------------
 # td(NStates=1) B3LYP/6-31G(d,p) nosymm
 ---------------------------------------

 --------------------
 AlQ3Emi Single Point
 --------------------
 Symbolic Z-matrix:
 Charge =  0 Multiplicity = 1

                          Input orientation:
 ---------------------------------------------------------------------
 Center     Atomic      Atomic             Coordinates (Angstroms)
 Number     Number       Type             X           Y           Z
 ---------------------------------------------------------------------
      1         13           0       -0.601119   -0.895373    0.208686
      2          8           0        0.737696   -2.367821    0.078176
      3          8           0       -1.856581   -2.013682   -0.442288
      4          8           0       -0.977965   -1.315074    2.018952
      5          6           0       -0.192312   -0.705171    2.934338
      6          6           0       -0.340894   -0.823997    4.313467
      7          6           0        0.500261   -0.183413    5.213475
      8          6           0        1.412639    0.746713    4.764656
      9          6           0        1.521044    1.082972    3.387562
     10          6           0        0.680309    0.353082    2.474228
     11          6           0        2.456702    1.940539    2.813643
     12          6           0        2.488731    2.062226    1.432734
     13          6           0        1.778003    1.084226    0.651465
     14          7           0        0.814058    0.357542    1.132582
     15          6           0        1.301454   -2.496394   -1.013312
     16          6           0        2.153846   -3.579578   -1.357038
     17          6           0        2.607013   -3.715337   -2.661764
     18          6           0        2.425774   -2.717176   -3.578065
     19          6           0        1.518316   -1.510776   -3.249811
     20          6           0        1.070496   -1.358696   -2.019149
     21          6           0        1.193382   -0.509504   -4.184129
     22          6           0        0.310338    0.527428   -3.785861
     23          6           0       -0.168434    0.526432   -2.437662
     24          7           0        0.193977   -0.438480   -1.517100
     25          6           0       -3.051340   -1.508724   -0.465512
     26          6           0       -4.284187   -2.180129   -0.903122
     27          6           0       -5.443457   -1.457889   -0.930568
     28          6           0       -5.641342   -0.177368   -0.749095
     29          6           0       -3.250765   -0.104279   -0.282123
     30          6           0       -4.491958    0.629965   -0.298017
     31          6           0       -4.507298    2.014187    0.026211
     32          6           0       -3.263952    2.550109    0.350970
     33          6           0       -2.026825    1.814635    0.438759
     34          7           0       -2.032555    0.430195    0.125549
     35          1           0       -4.192507   -3.291186   -1.135214
     36          1           0       -6.351657   -2.104571   -1.537266
     37          1           0       -6.625299    0.518392   -0.799191
     38          1           0       -5.423903    2.583430    0.324343
     39          1           0       -3.154566    3.667840    0.851007
     40          1           0       -1.057068    2.174318    0.674807
     41          1           0       -0.982542   -1.467962    4.700712
     42          1           0        0.547279   -0.433961    6.188220
     43          1           0        2.074489    1.161596    5.507784
     44          1           0        3.131065    2.599614    3.302728
     45          1           0        3.344293    2.762768    1.101048
     46          1           0        2.086337    1.276317   -0.346626
     47          1           0        2.196160   -4.330793   -0.714390
     48          1           0        3.133388   -4.611053   -2.922108
     49          1           0        2.862016   -2.879929   -4.575931
     50          1           0       -0.757379    1.493057   -2.179233
     51          1           0        1.601712   -0.732042   -5.188781
     52          1           0        0.011545    1.367446   -4.525849
 ---------------------------------------------------------------------

 SCF Done:  E(RB3LYP) =  -1672.17304807     A.U. after   19 cycles

 Excitation energies and oscillator strengths:

 Excited state symmetry could not be determined.
 Excited State   1:      Singlet-?Sym    1.6888 eV  734.14 nm  f=0.0037  <S**2>=0.000
     119 ->120         0.64624
     119 ->121         0.28439
 This state for optimization and/or second-order correction.
 Total Energy, E(TD-HF/TD-KS) =  -1672.11098473
 Copying the excited state density for this state as the 1-particle RhoCI density.

 Alpha  occ. eigenvalues --  -56.03700 -19.12067 -19.10357 -19.10072 -14.38551
 Alpha  occ. eigenvalues --  -14.38519 -14.37846 -10.26630 -10.26367 -10.25004
 Alpha  occ. eigenvalues --  -10.24842 -10.24094 -10.24032 -10.23896 -10.23633
 Alpha  occ. eigenvalues --  -10.23066 -10.23014 -10.22977 -10.22823 -10.22790
 Alpha  occ. eigenvalues --  -10.22178 -10.21788 -10.21653 -10.21339 -10.20603
 Alpha  occ. eigenvalues --  -10.20136 -10.19704 -10.18689 -10.18035 -10.17969
 Alpha  occ. eigenvalues --  -10.17120 -10.16978 -10.16248 -10.13768  -4.11152
 Alpha  occ. eigenvalues --   -2.66576  -2.66549  -2.66499  -1.02555  -1.01690
 Alpha  occ. eigenvalues --   -0.99577  -0.96352  -0.95950  -0.94854  -0.84953
 Alpha  occ. eigenvalues --   -0.84784  -0.83398  -0.81602  -0.81347  -0.79862
 Alpha  occ. eigenvalues --   -0.76299  -0.75882  -0.75756  -0.72196  -0.71891
 Alpha  occ. eigenvalues --   -0.68628  -0.66151  -0.65723  -0.65323  -0.64388
 Alpha  occ. eigenvalues --   -0.63559  -0.63122  -0.59680  -0.59135  -0.58007
 Alpha  occ. eigenvalues --   -0.54703  -0.53431  -0.53216  -0.52529  -0.51934
 Alpha  occ. eigenvalues --   -0.51654  -0.51235  -0.50619  -0.49504  -0.47094
 Alpha  occ. eigenvalues --   -0.46728  -0.46374  -0.46003  -0.45077  -0.44966
 Alpha  occ. eigenvalues --   -0.44373  -0.43935  -0.43764  -0.43408  -0.42858
 Alpha  occ. eigenvalues --   -0.42565  -0.42368  -0.41886  -0.41607  -0.40699
 Alpha  occ. eigenvalues --   -0.40076  -0.39656  -0.38987  -0.37696  -0.37224
 Alpha  occ. eigenvalues --   -0.36492  -0.36417  -0.35957  -0.35366  -0.34936
 Alpha  occ. eigenvalues --   -0.34882  -0.34300  -0.33412  -0.33204  -0.32746
 Alpha  occ. eigenvalues --   -0.32492  -0.31324  -0.30344  -0.28943  -0.28535
 Alpha  occ. eigenvalues --   -0.28016  -0.27021  -0.26197  -0.25819  -0.25401
 Alpha  occ. eigenvalues --   -0.24990  -0.19666  -0.19153  -0.16334
 Alpha virt. eigenvalues --   -0.08361  -0.07083  -0.06337  -0.03393  -0.02679
 Alpha virt. eigenvalues --   -0.01466   0.02392   0.02981   0.03910   0.05467
 Alpha virt. eigenvalues --    0.06384   0.06833   0.07817   0.07910   0.08149

 Mulliken charges:
               1
     1  Al   0.939815
     2  O   -0.579809
     3  O   -0.589900
     4  O   -0.625505
     5  C    0.419757
     6  C   -0.130582
     7  C   -0.050277
     8  C   -0.169492
     9  C    0.158815
    10  C    0.143558
    11  C   -0.084466
    12  C   -0.155762
    13  C    0.116750
    14  N   -0.528233
    15  C    0.417175
    16  C   -0.149527
    17  C   -0.056249
    18  C   -0.172370
    19  C    0.133869
    20  C    0.173930
    21  C   -0.085320
    22  C   -0.141373
    23  C    0.106741
    24  N   -0.551421
    25  C    0.426175
    26  C   -0.145353
    27  C   -0.077589
    28  C   -0.123235
    29  C    0.189688
    30  C    0.109668
    31  C   -0.093364
    32  C   -0.130722
    33  C    0.105462
    34  N   -0.525897
    35  H    0.106815
    36  H    0.062909
    37  H    0.079671
    38  H    0.130492
    39  H    0.093866
    40  H    0.126561
    41  H    0.080180
    42  H    0.083774
    43  H    0.074524
    44  H    0.105878
    45  H    0.100721
    46  H    0.121556
    47  H    0.072769
    48  H    0.080252
    49  H    0.063128
    50  H    0.117954
    51  H    0.113754
    52  H    0.110239
 Sum of Mulliken charges =   0.00000

 Dipole moment (field-independent basis, Debye):
    X=              0.3588    Y=              8.4352    Z=             -1.6472  Tot=              8.6020
 Quadrupole moment (field-independent basis, Debye-Ang):
   XX=           -182.3864   YY=           -193.7941   ZZ=           -179.3786
   XY=             -3.7259   XZ=              3.4979   YZ=              3.8380

 Normal termination of Gaussian 09 at Fri Mar  8 02:01:04 2019.
