 Gaussian 16, Revision A.03,
 Gaussian 16:  ES64L-G16RevA.03 25-Dec-2016

 ---------------------------------
 # td=(NStates=1) B3LYP/6-31G(d,p)
 ---------------------------------

 --
 TD
 --
 Symbolic Z-matrix:
 Charge =  0 Multiplicity = 1

                         Standard orientation:
 ---------------------------------------------------------------------
 Center     Atomic      Atomic             Coordinates (Angstroms)
 Number     Number       Type             X           Y           Z
 ---------------------------------------------------------------------
      1          6           0       12.082597    0.561307   -0.683494
      2          6           0      -12.220914   -0.018533    0.905747
      3          6           0       13.416959   -0.346535   -0.475121
      4          6           0      -12.930496    1.321092    1.201672
      5          6           0       13.220753   -1.804861   -0.575872
      6          6           0      -13.415249    2.081251    0.002973
      7          6           0       11.058609    0.081234    0.208884
      8          6           0      -11.001845    0.440638   -0.115216
      9          6           0       12.239984   -2.152263    0.461729
     10          6           0      -12.212572    2.633107   -0.643163
     11          6           0       11.126367   -1.141084    0.832574
     12          6           0      -11.128986    1.612102   -0.800093
     13          6           0       11.668139    0.498754   -2.175921
     14          6           0       12.579247    2.010470   -0.370158
     15          6           0      -13.017068   -1.166260    0.198417
     16          6           0      -11.528569   -0.599269    2.121375
     17          6           0        9.888886    0.943282    0.426959
     18          6           0       -9.918899   -0.651309   -0.334369
     19          6           0       10.173300   -1.752018    1.763692
     20          6           0       -9.977947    2.045267   -1.789670
     21          6           0        8.596931    0.497478    0.314116
     22          6           0       -8.566915   -0.407553   -0.237033
     23          6           0        7.377361    1.403237    0.431971
     24          6           0       -7.506459   -1.408354   -0.369246
     25          6           0        7.563698    2.809194    0.659895
     26          6           0       -7.825768   -2.746944   -0.769929
     27          6           0        6.146062    0.817102    0.309571
     28          6           0       -6.285083   -0.905034   -0.315835
     29          6           0        4.899946    1.384311    0.455886
     30          6           0       -5.074389   -1.627221   -0.414222
     31          6           0        3.670515    0.739024    0.248895
     32          6           0       -3.834120   -1.122049   -0.260844
     33          6           0        2.364289    1.291530    0.327295
     34          6           0       -2.500445   -1.786380   -0.305967
     35          6           0        2.268782    2.813978    0.497368
     36          6           0       -2.507665   -3.286578   -0.530347
     37          6           0        1.256341    0.479472    0.164486
     38          6           0       -1.395762   -1.066266   -0.158608
     39          6           0        1.176021   -1.027665   -0.022409
     40          6           0        0.014076   -1.723685   -0.193747
     41          1           0       13.729048    0.057965    0.524190
     42          1           0       14.126025   -0.016204   -1.320875
     43          1           0      -12.156007    1.779605    2.074021
     44          1           0      -13.919805    1.004751    1.958292
     45          1           0       14.068968   -2.451038   -0.408188
     46          1           0       12.841463   -2.028258   -1.648461
     47          1           0      -14.139070    2.847119    0.232752
     48          1           0      -13.992608    1.172560   -0.638443
     49          1           0       12.764707   -2.262846    1.512559
     50          1           0       11.811083   -3.050574    0.421248
     51          1           0      -11.514866    3.323436    0.072982
     52          1           0      -12.335471    3.186513   -1.441503
     53          1           0       11.694521   -0.512484   -2.752680
     54          1           0       12.320629    0.892770   -2.852737
     55          1           0       10.781871    1.080915   -2.310703
     56          1           0       12.593077    2.071479    0.559924
     57          1           0       11.783163    2.716956   -0.507673
     58          1           0       13.513086    2.123956   -1.090560
     59          1           0      -13.387229   -0.743237   -0.664552
     60          1           0      -13.943585   -1.423902    0.881224
     61          1           0      -12.450761   -2.080590    0.121962
     62          1           0      -10.902366    0.081678    2.707775
     63          1           0      -10.951878   -1.418397    1.890372
     64          1           0      -12.390772   -0.896697    2.863625
     65          1           0        9.871567    1.934056    0.730021
     66          1           0      -10.218390   -1.905942   -0.383476
     67          1           0        9.531871   -1.197026    2.475048
     68          1           0       10.698815   -2.254075    2.726637
     69          1           0        9.694460   -2.494597    1.269408
     70          1           0       -8.930215    1.538867   -1.636210
     71          1           0       -9.611827    3.114213   -1.550099
     72          1           0      -10.464289    2.241526   -2.615563
     73          1           0        8.625254   -0.432372   -0.069326
     74          1           0       -8.004508    0.694620    0.035309
     75          1           0        8.079900    3.083208    1.587596
     76          1           0        6.747303    3.455404    0.746651
     77          1           0        8.214834    3.287138   -0.050133
     78          1           0       -8.298104   -2.808988   -1.771029
     79          1           0       -8.435051   -3.027656    0.115565
     80          1           0       -6.900991   -3.386094   -1.052591
     81          1           0        6.146934   -0.248204    0.243608
     82          1           0       -6.026764    0.158283   -0.233320
     83          1           0        4.720521    2.431757    0.655464
     84          1           0       -5.219875   -2.760309   -0.598710
     85          1           0        3.825533   -0.386521   -0.195154
     86          1           0       -3.543815   -0.079248    0.002064
     87          1           0        2.703492    3.174749    1.507223
     88          1           0        1.276788    3.167987    0.687206
     89          1           0        2.686589    3.313942   -0.422838
     90          1           0       -3.246137   -3.405105   -1.426480
     91          1           0       -2.995700   -3.719319    0.214247
     92          1           0       -1.670818   -4.115519   -0.683155
     93          1           0        0.403612    1.106533    0.145815
     94          1           0       -1.390297    0.088516   -0.053836
     95          1           0        2.123521   -1.583071   -0.316277
     96          1           0        0.024302   -2.786059   -0.221659
 ---------------------------------------------------------------------

 SCF Done:  E(RB3LYP) =  -1557.51177494     A.U. after   15 cycles

 Excitation energies and oscillator strengths:

 Excited State   1:      Singlet-A      2.4739 eV  501.17 nm  f=2.6039  <S**2>=0.000
     148 ->149         0.69795
 This state for optimization and/or second-order correction.
 Total Energy, E(TD-HF/TD-DFT) =  -1557.42086134
 Copying the excited state density for this state as the 1-particle RhoCI density.

 The electronic state is 1-A.
 Alpha  occ. eigenvalues --  -10.21269 -10.20697 -10.20225 -10.20207 -10.20045
 Alpha  occ. eigenvalues --  -10.20012 -10.20012 -10.20004 -10.19970 -10.19551
 Alpha  occ. eigenvalues --  -10.19496 -10.19366 -10.19330 -10.19302 -10.19285
 Alpha  occ. eigenvalues --  -10.19262 -10.19210 -10.19135 -10.19070 -10.19051
 Alpha  occ. eigenvalues --  -10.18985 -10.18980 -10.18798 -10.18585 -10.18126
 Alpha  occ. eigenvalues --  -10.17916 -10.17910 -10.17806 -10.17768 -10.17628
 Alpha  occ. eigenvalues --  -10.17627 -10.17614 -10.17470 -10.17344 -10.17334
 Alpha  occ. eigenvalues --  -10.17218 -10.17145 -10.16546 -10.16331 -10.16099
 Alpha  occ. eigenvalues --   -0.85356  -0.84709  -0.84138  -0.82971  -0.82180
 Alpha  occ. eigenvalues --   -0.81246  -0.78863  -0.78576  -0.78169  -0.77517
 Alpha  occ. eigenvalues --   -0.76405  -0.75398  -0.74495  -0.72917  -0.71876
 Alpha  occ. eigenvalues --   -0.69479  -0.69153  -0.69087  -0.68941  -0.68008
 Alpha  occ. eigenvalues --   -0.67952  -0.67562  -0.67178  -0.66768  -0.66620
 Alpha  occ. eigenvalues --   -0.62404  -0.61754  -0.59448  -0.59021  -0.57336
 Alpha  occ. eigenvalues --   -0.56535  -0.55315  -0.54316  -0.53678  -0.52692
 Alpha  occ. eigenvalues --   -0.52502  -0.51142  -0.50817  -0.49148  -0.48675
 Alpha  occ. eigenvalues --   -0.48226  -0.47687  -0.47348  -0.47097  -0.46172
 Alpha  occ. eigenvalues --   -0.45993  -0.45492  -0.45243  -0.44892  -0.44845
 Alpha  occ. eigenvalues --   -0.43868  -0.43632  -0.43111  -0.42989  -0.42754
 Alpha  occ. eigenvalues --   -0.42570  -0.42390  -0.41780  -0.41391  -0.41270
 Alpha  occ. eigenvalues --   -0.41134  -0.40757  -0.40177  -0.39977  -0.39607
 Alpha  occ. eigenvalues --   -0.38992  -0.38823  -0.38510  -0.37975  -0.37715
 Alpha  occ. eigenvalues --   -0.37413  -0.37049  -0.36719  -0.36391  -0.36249
 Alpha  occ. eigenvalues --   -0.36120  -0.35783  -0.35719  -0.35325  -0.34875
 Alpha  occ. eigenvalues --   -0.34423  -0.34300  -0.33990  -0.33711  -0.33569
 Alpha  occ. eigenvalues --   -0.33196  -0.33103  -0.32610  -0.32534  -0.32405
 Alpha  occ. eigenvalues --   -0.32276  -0.31861  -0.31734  -0.31470  -0.31159
 Alpha  occ. eigenvalues --   -0.30319  -0.30311  -0.30125  -0.28968  -0.27932
 Alpha  occ. eigenvalues --   -0.27518  -0.26608  -0.25710  -0.23831  -0.22217
 Alpha  occ. eigenvalues --   -0.21147  -0.18759  -0.16897
 Alpha virt. eigenvalues --   -0.07170  -0.04943  -0.01045   0.01021   0.02566
 Alpha virt. eigenvalues --    0.04273   0.05465   0.05676   0.06788   0.07316
 Alpha virt. eigenvalues --    0.07618   0.07975   0.08258   0.08449   0.08903

 Mulliken charges:
               1
     1  C   -0.047853
     2  C    0.010414
     3  C   -0.169589
     4  C   -0.154654
     5  C   -0.169554
     6  C   -0.169250
     7  C    0.084016
     8  C    0.042101
     9  C   -0.203056
    10  C   -0.174620
    11  C    0.068741
    12  C    0.032505
    13  C   -0.297953
    14  C   -0.278052
    15  C   -0.286907
    16  C   -0.288690
    17  C   -0.132914
    18  C   -0.172379
    19  C   -0.367248
    20  C   -0.344682
    21  C   -0.082140
    22  C   -0.064503
    23  C    0.122848
    24  C    0.132654
    25  C   -0.406136
    26  C   -0.367178
    27  C   -0.115583
    28  C   -0.106258
    29  C   -0.078033
    30  C   -0.097462
    31  C   -0.106346
    32  C   -0.117645
    33  C    0.091290
    34  C    0.149945
    35  C   -0.377468
    36  C   -0.379485
    37  C   -0.107916
    38  C   -0.154624
    39  C   -0.095739
    40  C   -0.086587
    41  H    0.089450
    42  H    0.063931
    43  H    0.074828
    44  H    0.033813
    45  H    0.100181
    46  H    0.084726
    47  H    0.104501
    48  H    0.081766
    49  H    0.080720
    50  H    0.103090
    51  H    0.103685
    52  H    0.099421
    53  H    0.077129
    54  H    0.102778
    55  H    0.105721
    56  H    0.108328
    57  H    0.092518
    58  H    0.097724
    59  H    0.110372
    60  H    0.076875
    61  H    0.107800
    62  H    0.099133
    63  H    0.106559
    64  H    0.072018
    65  H    0.065906
    66  H    0.072106
    67  H    0.121224
    68  H    0.070434
    69  H    0.132723
    70  H    0.116729
    71  H    0.078863
    72  H    0.122942
    73  H    0.073457
    74  H    0.068453
    75  H    0.119891
    76  H    0.118376
    77  H    0.123493
    78  H    0.133618
    79  H    0.123437
    80  H    0.099684
    81  H    0.076404
    82  H    0.072669
    83  H    0.075074
    84  H    0.068256
    85  H    0.057364
    86  H    0.073946
    87  H    0.112812
    88  H    0.109493
    89  H    0.127580
    90  H    0.103259
    91  H    0.142095
    92  H    0.101476
    93  H    0.069668
    94  H    0.080328
    95  H    0.089535
    96  H    0.087623
 Sum of Mulliken charges =  -0.00000

 Dipole moment (field-independent basis, Debye):
    X=             -0.6607    Y=              0.4415    Z=             -0.4243  Tot=              0.9008
 Quadrupole moment (field-independent basis, Debye-Ang):
   XX=           -232.1833   YY=           -229.0361   ZZ=           -255.1251
   XY=             -4.7300   XZ=              6.5829   YZ=              2.2572

 Normal termination of Gaussian 16 at Sun Jul 28 20:09:18 2019.
