 Gaussian 16, Revision A.03,
 Gaussian 16:  ES64L-G16RevA.03 25-Dec-2016

 ---------------------------------
 # td=(NStates=1) B3LYP/6-31G(d,p)
 ---------------------------------

 --
 TD
 --
 Symbolic Z-matrix:
 Charge =  0 Multiplicity = 1

                         Standard orientation:
 ---------------------------------------------------------------------
 Center     Atomic      Atomic             Coordinates (Angstroms)
 Number     Number       Type             X           Y           Z
 ---------------------------------------------------------------------
      1          6           0      -11.981541   -0.623493   -0.861651
      2          6           0       12.069490   -0.006282    0.833825
      3          6           0      -13.457188    0.091817   -0.849770
      4          6           0       12.990355   -1.178843    1.240655
      5          6           0      -13.173327    1.604093   -0.536515
      6          6           0       13.325866   -2.188768    0.151565
      7          6           0      -11.031736   -0.069270    0.128062
      8          6           0       10.893522   -0.511930   -0.084548
      9          6           0      -12.429668    1.854429    0.794645
     10          6           0       12.025961   -2.748566   -0.466077
     11          6           0      -11.205123    1.023640    0.965518
     12          6           0       10.955331   -1.688552   -0.651193
     13          6           0      -11.327003   -0.385544   -2.236555
     14          6           0      -12.251749   -2.102522   -0.605926
     15          6           0       12.945311    0.940147   -0.061084
     16          6           0       11.309698    0.723262    1.981014
     17          6           0       -9.819633   -0.845970    0.405828
     18          6           0        9.835238    0.513835   -0.314229
     19          6           0      -10.309661    1.449345    2.072087
     20          6           0        9.954639   -2.169423   -1.629294
     21          6           0       -8.495661   -0.389879    0.310893
     22          6           0        8.490265    0.356276   -0.207787
     23          6           0       -7.331852   -1.326434    0.447857
     24          6           0        7.505989    1.275958   -0.308347
     25          6           0       -7.493882   -2.729022    0.554184
     26          6           0        8.006554    2.650606   -0.859620
     27          6           0       -6.133980   -0.641025    0.388050
     28          6           0        6.167365    0.920511   -0.341990
     29          6           0       -4.850366   -1.286400    0.410493
     30          6           0        5.037555    1.721528   -0.351358
     31          6           0       -3.723742   -0.543440    0.271620
     32          6           0        3.737843    1.290285   -0.230168
     33          6           0       -2.445578   -1.117275    0.356379
     34          6           0        2.498252    1.996727   -0.304976
     35          6           0       -2.246568   -2.615165    0.648077
     36          6           0        2.557776    3.495042   -0.584344
     37          6           0       -1.261396   -0.373788    0.254888
     38          6           0        1.373472    1.330695   -0.265175
     39          6           0       -1.104478    0.986760   -0.007916
     40          6           0        0.007352    1.778678   -0.241032
     41          1           0      -14.175271   -0.353028   -0.106677
     42          1           0      -13.880432   -0.243781   -1.775717
     43          1           0       12.621898   -1.766756    2.044917
     44          1           0       13.889910   -0.760101    1.552795
     45          1           0      -14.213615    2.064525   -0.351638
     46          1           0      -12.571685    2.039225   -1.446477
     47          1           0       13.953846   -2.839929    0.627484
     48          1           0       14.003970   -1.793406   -0.719926
     49          1           0      -13.229104    1.724683    1.628459
     50          1           0      -12.241165    3.034030    0.891351
     51          1           0       11.756415   -3.627131    0.262508
     52          1           0       12.478562   -3.163973   -1.335772
     53          1           0      -11.508189    0.762322   -2.530713
     54          1           0      -11.865172   -0.800139   -3.048846
     55          1           0      -10.193695   -0.779179   -2.321189
     56          1           0      -12.443284   -2.193244    0.532517
     57          1           0      -11.389799   -2.868702   -0.854414
     58          1           0      -13.103239   -2.470559   -1.214918
     59          1           0       13.390549    0.411311   -0.821108
     60          1           0       13.734943    1.202150    0.611218
     61          1           0       12.347657    1.883783   -0.447045
     62          1           0       10.933915   -0.033289    2.527600
     63          1           0       10.844491    1.528819    1.715332
     64          1           0       12.346912    0.896014    2.532682
     65          1           0       -9.991741   -2.015268    0.570324
     66          1           0       10.268683    1.500755   -0.470142
     67          1           0       -9.345703    0.827358    2.384826
     68          1           0      -10.793637    1.693751    3.092420
     69          1           0       -9.899452    2.592589    1.731205
     70          1           0        9.235179   -1.356241   -2.080432
     71          1           0        9.261677   -2.932038   -1.132261
     72          1           0       10.332266   -2.844073   -2.436415
     73          1           0       -8.268775    0.608476    0.167251
     74          1           0        8.053583   -0.608845    0.070142
     75          1           0       -7.870964   -2.812487    1.518654
     76          1           0       -6.534960   -3.149994    0.513009
     77          1           0       -8.022935   -3.135466   -0.286452
     78          1           0        8.738558    2.357538   -1.706439
     79          1           0        8.560565    3.315144   -0.014001
     80          1           0        7.252038    3.449902   -1.088887
     81          1           0       -6.046989    0.553072    0.326834
     82          1           0        5.957980    0.037514   -0.116292
     83          1           0       -4.861868   -2.452452    0.664716
     84          1           0        5.084740    2.723773   -0.556037
     85          1           0       -3.698735    0.493289   -0.155791
     86          1           0        3.514046    0.206364   -0.098420
     87          1           0       -2.646269   -2.987907    1.647647
     88          1           0       -1.309042   -2.963476    0.554637
     89          1           0       -2.698564   -3.215950   -0.021981
     90          1           0        3.081883    3.813452   -1.689924
     91          1           0        3.066290    4.048356    0.219611
     92          1           0        1.601719    3.786963   -0.417662
     93          1           0       -0.444154   -0.862962    0.294898
     94          1           0        1.473084    0.312964   -0.275094
     95          1           0       -2.043878    1.472164   -0.063885
     96          1           0       -0.175262    2.917832   -0.394973
 ---------------------------------------------------------------------

 SCF Done:  E(RB3LYP) =  -1557.58447291     A.U. after   16 cycles

 Excitation energies and oscillator strengths:

 Excited State   1:      Singlet-A      2.0994 eV  590.58 nm  f=3.3026  <S**2>=0.000
     148 ->149         0.71049
     148 <-149        -0.11513
 This state for optimization and/or second-order correction.
 Total Energy, E(TD-HF/TD-DFT) =  -1557.50732226
 Copying the excited state density for this state as the 1-particle RhoCI density.

 The electronic state is 1-A.
 Alpha  occ. eigenvalues --  -10.20511 -10.20435 -10.20056 -10.20027 -10.19971
 Alpha  occ. eigenvalues --  -10.19937 -10.19935 -10.19698 -10.19677 -10.19600
 Alpha  occ. eigenvalues --  -10.19512 -10.19489 -10.19267 -10.19115 -10.19020
 Alpha  occ. eigenvalues --  -10.18937 -10.18840 -10.18808 -10.18735 -10.18719
 Alpha  occ. eigenvalues --  -10.18626 -10.18471 -10.18390 -10.18328 -10.18298
 Alpha  occ. eigenvalues --  -10.18199 -10.17571 -10.17448 -10.17435 -10.17409
 Alpha  occ. eigenvalues --  -10.17406 -10.17380 -10.17356 -10.17124 -10.16864
 Alpha  occ. eigenvalues --  -10.16864 -10.16817 -10.16786 -10.16575 -10.15621
 Alpha  occ. eigenvalues --   -0.85129  -0.84716  -0.84116  -0.83741  -0.82840
 Alpha  occ. eigenvalues --   -0.82217  -0.78937  -0.78406  -0.78043  -0.77694
 Alpha  occ. eigenvalues --   -0.76666  -0.75935  -0.74664  -0.72145  -0.71405
 Alpha  occ. eigenvalues --   -0.70330  -0.69571  -0.68981  -0.68409  -0.67660
 Alpha  occ. eigenvalues --   -0.67483  -0.67011  -0.66949  -0.66488  -0.66126
 Alpha  occ. eigenvalues --   -0.63254  -0.62095  -0.59801  -0.58707  -0.57667
 Alpha  occ. eigenvalues --   -0.56447  -0.55598  -0.55233  -0.54638  -0.53098
 Alpha  occ. eigenvalues --   -0.52302  -0.52126  -0.51071  -0.49790  -0.49180
 Alpha  occ. eigenvalues --   -0.48301  -0.47323  -0.47270  -0.46650  -0.46480
 Alpha  occ. eigenvalues --   -0.46035  -0.45879  -0.45205  -0.45004  -0.44750
 Alpha  occ. eigenvalues --   -0.44292  -0.44027  -0.43612  -0.42816  -0.42140
 Alpha  occ. eigenvalues --   -0.41740  -0.41453  -0.41059  -0.40895  -0.40649
 Alpha  occ. eigenvalues --   -0.40398  -0.40179  -0.39968  -0.39524  -0.39352
 Alpha  occ. eigenvalues --   -0.39326  -0.38744  -0.38562  -0.38551  -0.38143
 Alpha  occ. eigenvalues --   -0.37656  -0.37497  -0.37317  -0.37138  -0.36711
 Alpha  occ. eigenvalues --   -0.36500  -0.36149  -0.35719  -0.35527  -0.35274
 Alpha  occ. eigenvalues --   -0.35172  -0.34788  -0.34739  -0.34028  -0.33785
 Alpha  occ. eigenvalues --   -0.33532  -0.33449  -0.32984  -0.32844  -0.32564
 Alpha  occ. eigenvalues --   -0.32370  -0.32088  -0.31583  -0.31284  -0.31282
 Alpha  occ. eigenvalues --   -0.30861  -0.30717  -0.29888  -0.29430  -0.28133
 Alpha  occ. eigenvalues --   -0.27515  -0.26894  -0.26314  -0.23908  -0.22591
 Alpha  occ. eigenvalues --   -0.21094  -0.18679  -0.16048
 Alpha virt. eigenvalues --   -0.08381  -0.05150  -0.01607   0.00927   0.02873
 Alpha virt. eigenvalues --    0.04255   0.05843   0.06539   0.07162   0.07859
 Alpha virt. eigenvalues --    0.08168   0.08338   0.08657   0.09181   0.09372

 Mulliken charges:
               1
     1  C    0.000448
     2  C   -0.041360
     3  C   -0.177078
     4  C   -0.184852
     5  C   -0.190725
     6  C   -0.195847
     7  C    0.074211
     8  C    0.088656
     9  C   -0.213083
    10  C   -0.220557
    11  C    0.117970
    12  C    0.086169
    13  C   -0.291312
    14  C   -0.302792
    15  C   -0.294712
    16  C   -0.263553
    17  C   -0.166771
    18  C   -0.170625
    19  C   -0.354301
    20  C   -0.368509
    21  C   -0.067747
    22  C   -0.077670
    23  C    0.091930
    24  C    0.133021
    25  C   -0.363539
    26  C   -0.372175
    27  C   -0.116301
    28  C   -0.082236
    29  C   -0.090107
    30  C   -0.070790
    31  C   -0.121447
    32  C   -0.123541
    33  C    0.104319
    34  C    0.144417
    35  C   -0.374871
    36  C   -0.357293
    37  C   -0.086262
    38  C   -0.108216
    39  C   -0.072570
    40  C   -0.120022
    41  H    0.089291
    42  H    0.100494
    43  H    0.093408
    44  H    0.089897
    45  H    0.081968
    46  H    0.094303
    47  H    0.098084
    48  H    0.071586
    49  H    0.093556
    50  H    0.084292
    51  H    0.088486
    52  H    0.110103
    53  H    0.078626
    54  H    0.101821
    55  H    0.099906
    56  H    0.098268
    57  H    0.082043
    58  H    0.098460
    59  H    0.118689
    60  H    0.097036
    61  H    0.081639
    62  H    0.118087
    63  H    0.114029
    64  H    0.060360
    65  H    0.076590
    66  H    0.088120
    67  H    0.112728
    68  H    0.104744
    69  H    0.073624
    70  H    0.100664
    71  H    0.095816
    72  H    0.097078
    73  H    0.085155
    74  H    0.076945
    75  H    0.141036
    76  H    0.105312
    77  H    0.131236
    78  H    0.119928
    79  H    0.084081
    80  H    0.103821
    81  H    0.074716
    82  H    0.051568
    83  H    0.087192
    84  H    0.066481
    85  H    0.091081
    86  H    0.056027
    87  H    0.106736
    88  H    0.112581
    89  H    0.124234
    90  H    0.096190
    91  H    0.114141
    92  H    0.111699
    93  H    0.048868
    94  H    0.074780
    95  H    0.064129
    96  H    0.077994
 Sum of Mulliken charges =  -0.00000

 Dipole moment (field-independent basis, Debye):
    X=             -2.6304    Y=             -1.4009    Z=              0.1711  Tot=              2.9851
 Quadrupole moment (field-independent basis, Debye-Ang):
   XX=           -211.5548   YY=           -235.3089   ZZ=           -254.9581
   XY=              0.2828   XZ=              1.2325   YZ=             -1.8127

 Normal termination of Gaussian 16 at Tue Jul 30 06:55:12 2019.
