 Gaussian 16, Revision A.03,
 Gaussian 16:  ES64L-G16RevA.03 25-Dec-2016

 ---------------------------------
 # td=(NStates=1) B3LYP/6-31G(d,p)
 ---------------------------------

 --
 TD
 --
 Symbolic Z-matrix:
 Charge =  0 Multiplicity = 1

                         Standard orientation:
 ---------------------------------------------------------------------
 Center     Atomic      Atomic             Coordinates (Angstroms)
 Number     Number       Type             X           Y           Z
 ---------------------------------------------------------------------
      1          6           0      -12.097496   -0.537446   -0.585531
      2          6           0       12.020839   -0.069239    0.938041
      3          6           0      -13.310976    0.230340   -0.478000
      4          6           0       12.937670   -1.309598    1.216635
      5          6           0      -13.143709    1.747969   -0.531025
      6          6           0       13.361502   -2.221800   -0.061264
      7          6           0      -11.024858   -0.094794    0.292420
      8          6           0       10.934271   -0.517218   -0.104721
      9          6           0      -12.197666    2.094506    0.623557
     10          6           0       11.981234   -2.612909   -0.587306
     11          6           0      -11.095000    1.140031    0.865426
     12          6           0       10.944419   -1.596616   -0.763167
     13          6           0      -11.608557   -0.530381   -2.040980
     14          6           0      -12.377205   -2.114617   -0.194901
     15          6           0       12.875869    1.084658    0.301245
     16          6           0       11.442130    0.259998    2.294716
     17          6           0       -9.866242   -0.898872    0.436637
     18          6           0        9.846034    0.555252   -0.203207
     19          6           0      -10.073062    1.704516    1.887897
     20          6           0        9.937732   -1.903803   -1.831443
     21          6           0       -8.545446   -0.535199    0.243581
     22          6           0        8.506668    0.304281   -0.246922
     23          6           0       -7.361947   -1.424886    0.420751
     24          6           0        7.484506    1.375562   -0.243941
     25          6           0       -7.531497   -2.812634    0.798836
     26          6           0        7.847958    2.810314   -0.355764
     27          6           0       -6.132422   -0.711750    0.194849
     28          6           0        6.235054    0.926123   -0.216083
     29          6           0       -4.837112   -1.253232    0.261332
     30          6           0        5.034835    1.775512   -0.325195
     31          6           0       -3.686120   -0.670197   -0.014279
     32          6           0        3.755508    1.258210   -0.395429
     33          6           0       -2.412977   -1.231615    0.076980
     34          6           0        2.502140    1.938546   -0.477468
     35          6           0       -2.306670   -2.600192    0.548166
     36          6           0        2.695057    3.365883   -0.577847
     37          6           0       -1.232946   -0.514335   -0.106811
     38          6           0        1.363281    1.326801   -0.402975
     39          6           0       -1.090147    0.978596   -0.354785
     40          6           0        0.005562    1.797320   -0.448059
     41          1           0      -13.935491   -0.125647    0.469614
     42          1           0      -13.967916   -0.108111   -1.287151
     43          1           0       12.628204   -2.021790    1.874573
     44          1           0       14.036174   -0.895965    1.746189
     45          1           0      -14.161343    2.209978   -0.320071
     46          1           0      -12.813369    1.965363   -1.539110
     47          1           0       13.944487   -3.012729    0.406560
     48          1           0       13.965560   -1.625580   -0.740637
     49          1           0      -12.858446    2.001018    1.471536
     50          1           0      -12.012205    2.886572    0.474151
     51          1           0       11.606885   -3.517427   -0.159268
     52          1           0       12.126667   -3.144686   -1.562341
     53          1           0      -11.563505    0.554378   -2.514030
     54          1           0      -12.274268   -0.934932   -2.701931
     55          1           0      -10.553706   -1.113719   -2.242492
     56          1           0      -12.695638   -2.369888    0.740359
     57          1           0      -11.587447   -2.793082   -0.628222
     58          1           0      -13.086596   -2.487410   -0.865046
     59          1           0       13.483371    0.956130   -0.746525
     60          1           0       13.618396    1.574450    1.105299
     61          1           0       12.311186    2.032164    0.010874
     62          1           0       10.898319   -0.603657    2.554245
     63          1           0       10.814389    1.033957    2.029541
     64          1           0       12.323125    0.542040    3.062510
     65          1           0      -10.049127   -1.861050    0.728312
     66          1           0       10.003296    1.721558   -0.125166
     67          1           0       -9.434034    0.904231    2.286039
     68          1           0      -10.615759    2.094899    2.796792
     69          1           0       -9.130702    2.282891    1.661328
     70          1           0        9.238373   -1.114662   -1.810624
     71          1           0        9.447409   -3.004615   -1.573594
     72          1           0       10.313695   -2.171727   -2.867822
     73          1           0       -8.282410    0.400121    0.155031
     74          1           0        8.344614   -0.718978   -0.144879
     75          1           0       -8.082883   -2.975094    1.718217
     76          1           0       -6.536039   -3.337377    0.983912
     77          1           0       -7.919817   -3.416995    0.065755
     78          1           0        8.337801    2.886748   -1.499717
     79          1           0        8.498449    3.332167    0.427223
     80          1           0        6.971673    3.578090   -0.292060
     81          1           0       -6.270756    0.367921   -0.085788
     82          1           0        5.920907   -0.163335    0.041184
     83          1           0       -4.611323   -2.355846    0.578979
     84          1           0        5.203988    2.770679   -0.332058
     85          1           0       -3.795395    0.355013   -0.277406
     86          1           0        3.529101    0.193902   -0.229951
     87          1           0       -2.722830   -2.684348    1.627099
     88          1           0       -1.432585   -2.818585    0.407570
     89          1           0       -2.651157   -3.057374   -0.300885
     90          1           0        3.251178    3.661652   -1.489471
     91          1           0        2.928222    3.802029    0.249576
     92          1           0        1.691350    4.004746   -0.487005
     93          1           0       -0.388866   -1.086885   -0.159509
     94          1           0        1.435361    0.137692   -0.342551
     95          1           0       -2.123221    1.334178   -0.827108
     96          1           0        0.003379    2.858419   -0.643842
 ---------------------------------------------------------------------

 SCF Done:  E(RB3LYP) =  -1557.44555500     A.U. after   15 cycles

 Excitation energies and oscillator strengths:

 Excited State   1:      Singlet-A      2.3494 eV  527.74 nm  f=2.8030  <S**2>=0.000
     148 ->149         0.70474
 This state for optimization and/or second-order correction.
 Total Energy, E(TD-HF/TD-DFT) =  -1557.35921782
 Copying the excited state density for this state as the 1-particle RhoCI density.

 The electronic state is 1-A.
 Alpha  occ. eigenvalues --  -10.21289 -10.20789 -10.20432 -10.20312 -10.19914
 Alpha  occ. eigenvalues --  -10.19748 -10.19604 -10.19603 -10.19178 -10.18995
 Alpha  occ. eigenvalues --  -10.18936 -10.18903 -10.18775 -10.18710 -10.18571
 Alpha  occ. eigenvalues --  -10.18522 -10.18409 -10.18210 -10.18194 -10.18133
 Alpha  occ. eigenvalues --  -10.18116 -10.18092 -10.18046 -10.17951 -10.17915
 Alpha  occ. eigenvalues --  -10.17808 -10.17796 -10.17774 -10.17741 -10.17663
 Alpha  occ. eigenvalues --  -10.17597 -10.17453 -10.17352 -10.17215 -10.17194
 Alpha  occ. eigenvalues --  -10.16989 -10.16776 -10.16701 -10.16002 -10.14929
 Alpha  occ. eigenvalues --   -0.86406  -0.85257  -0.84705  -0.84143  -0.82379
 Alpha  occ. eigenvalues --   -0.82028  -0.79108  -0.78735  -0.78503  -0.77886
 Alpha  occ. eigenvalues --   -0.76777  -0.76216  -0.74365  -0.72101  -0.71734
 Alpha  occ. eigenvalues --   -0.71028  -0.69875  -0.69056  -0.68661  -0.68115
 Alpha  occ. eigenvalues --   -0.67889  -0.67706  -0.66983  -0.66590  -0.66148
 Alpha  occ. eigenvalues --   -0.63531  -0.61952  -0.59934  -0.59412  -0.58191
 Alpha  occ. eigenvalues --   -0.56877  -0.56104  -0.55164  -0.53713  -0.53644
 Alpha  occ. eigenvalues --   -0.52925  -0.52462  -0.51583  -0.50290  -0.49770
 Alpha  occ. eigenvalues --   -0.48886  -0.48241  -0.47672  -0.46908  -0.46338
 Alpha  occ. eigenvalues --   -0.46084  -0.45417  -0.45287  -0.44934  -0.44297
 Alpha  occ. eigenvalues --   -0.44188  -0.43905  -0.43375  -0.43241  -0.43144
 Alpha  occ. eigenvalues --   -0.42784  -0.42358  -0.42205  -0.41463  -0.40893
 Alpha  occ. eigenvalues --   -0.40644  -0.40064  -0.39961  -0.39906  -0.39429
 Alpha  occ. eigenvalues --   -0.39331  -0.38890  -0.38279  -0.38037  -0.37924
 Alpha  occ. eigenvalues --   -0.37630  -0.37004  -0.36677  -0.36607  -0.36503
 Alpha  occ. eigenvalues --   -0.36080  -0.35916  -0.35797  -0.35509  -0.35350
 Alpha  occ. eigenvalues --   -0.34346  -0.34282  -0.34126  -0.33786  -0.33753
 Alpha  occ. eigenvalues --   -0.33697  -0.33459  -0.33270  -0.33097  -0.32794
 Alpha  occ. eigenvalues --   -0.32309  -0.31949  -0.31926  -0.30755  -0.30611
 Alpha  occ. eigenvalues --   -0.30194  -0.30003  -0.29753  -0.28823  -0.28106
 Alpha  occ. eigenvalues --   -0.27674  -0.27082  -0.25978  -0.24387  -0.22741
 Alpha  occ. eigenvalues --   -0.21398  -0.18912  -0.16776
 Alpha virt. eigenvalues --   -0.07694  -0.04917  -0.01276   0.01011   0.02922
 Alpha virt. eigenvalues --    0.04466   0.06305   0.07081   0.07517   0.07725
 Alpha virt. eigenvalues --    0.08033   0.08209   0.08506   0.09190   0.09729

 Mulliken charges:
               1
     1  C    0.009228
     2  C   -0.000352
     3  C   -0.177419
     4  C   -0.166778
     5  C   -0.219440
     6  C   -0.194421
     7  C    0.127446
     8  C    0.064129
     9  C   -0.125045
    10  C   -0.245587
    11  C    0.030937
    12  C    0.115749
    13  C   -0.298964
    14  C   -0.335505
    15  C   -0.294327
    16  C   -0.274033
    17  C   -0.147018
    18  C   -0.161202
    19  C   -0.382412
    20  C   -0.359154
    21  C   -0.064064
    22  C   -0.090672
    23  C    0.128902
    24  C    0.123134
    25  C   -0.393847
    26  C   -0.376993
    27  C   -0.150743
    28  C   -0.110918
    29  C   -0.083489
    30  C   -0.081255
    31  C   -0.062456
    32  C   -0.123419
    33  C    0.050211
    34  C    0.185108
    35  C   -0.320041
    36  C   -0.380205
    37  C   -0.118849
    38  C   -0.140393
    39  C   -0.100485
    40  C   -0.089876
    41  H    0.066876
    42  H    0.080828
    43  H    0.103565
    44  H    0.027577
    45  H    0.085442
    46  H    0.099672
    47  H    0.095280
    48  H    0.105404
    49  H    0.104588
    50  H    0.074677
    51  H    0.109150
    52  H    0.084564
    53  H    0.081483
    54  H    0.111443
    55  H    0.087668
    56  H    0.114886
    57  H    0.094318
    58  H    0.099621
    59  H    0.089259
    60  H    0.080399
    61  H    0.095386
    62  H    0.112011
    63  H    0.106833
    64  H    0.086535
    65  H    0.082482
    66  H    0.076728
    67  H    0.112043
    68  H    0.097884
    69  H    0.107815
    70  H    0.123693
    71  H    0.069970
    72  H    0.108891
    73  H    0.062663
    74  H    0.096030
    75  H    0.127291
    76  H    0.102720
    77  H    0.138597
    78  H    0.104531
    79  H    0.123344
    80  H    0.106001
    81  H    0.082865
    82  H    0.079341
    83  H    0.071565
    84  H    0.071216
    85  H    0.062490
    86  H    0.062259
    87  H    0.127318
    88  H    0.093248
    89  H    0.125898
    90  H    0.123153
    91  H    0.143091
    92  H    0.061708
    93  H    0.071007
    94  H    0.055668
    95  H    0.079309
    96  H    0.086234
 Sum of Mulliken charges =  -0.00000

 Dipole moment (field-independent basis, Debye):
    X=             -1.8678    Y=             -0.6387    Z=              0.1424  Tot=              1.9791
 Quadrupole moment (field-independent basis, Debye-Ang):
   XX=           -232.3725   YY=           -230.3624   ZZ=           -253.2880
   XY=              5.1604   XZ=              0.0660   YZ=             -1.2614

 Normal termination of Gaussian 16 at Sun Jul 28 15:27:15 2019.
