 Gaussian 16, Revision A.03,
 Gaussian 16:  ES64L-G16RevA.03 25-Dec-2016

 ---------------------------------
 # td=(NStates=1) B3LYP/6-31G(d,p)
 ---------------------------------

 --
 TD
 --
 Symbolic Z-matrix:
 Charge =  0 Multiplicity = 1

                         Standard orientation:
 ---------------------------------------------------------------------
 Center     Atomic      Atomic             Coordinates (Angstroms)
 Number     Number       Type             X           Y           Z
 ---------------------------------------------------------------------
      1          6           0       12.017555   -0.542316    0.957058
      2          6           0      -12.216766   -0.025300   -0.740379
      3          6           0       13.351365    0.158391    0.818932
      4          6           0      -13.010296   -1.156684   -1.233803
      5          6           0       13.226863    1.632634    0.640102
      6          6           0      -13.480844   -1.933694    0.055590
      7          6           0       11.059989   -0.025127   -0.197923
      8          6           0      -11.074288   -0.465105    0.224958
      9          6           0       12.445180    2.009945   -0.582733
     10          6           0      -12.218077   -2.703876    0.497948
     11          6           0       11.248411    1.055564   -0.949133
     12          6           0      -11.021836   -1.727452    0.757856
     13          6           0       11.471242   -0.403753    2.271653
     14          6           0       12.533396   -2.042844    0.587028
     15          6           0      -12.964531    1.120276    0.040366
     16          6           0      -11.467821    0.640608   -1.919099
     17          6           0        9.899572   -0.886685   -0.364231
     18          6           0       -9.836936    0.455023    0.412886
     19          6           0       10.369461    1.567608   -1.899034
     20          6           0      -10.030029   -2.243783    1.687127
     21          6           0        8.639753   -0.463747   -0.262629
     22          6           0       -8.520759    0.241750    0.189358
     23          6           0        7.480949   -1.311657   -0.422757
     24          6           0       -7.526863    1.281543    0.393043
     25          6           0        7.658772   -2.721366   -0.684380
     26          6           0       -8.005699    2.737023    0.751859
     27          6           0        6.219374   -0.719752   -0.232653
     28          6           0       -6.174439    0.817357    0.315912
     29          6           0        4.918862   -1.303820   -0.429073
     30          6           0       -4.997348    1.635270    0.377095
     31          6           0        3.663410   -0.606119   -0.268916
     32          6           0       -3.826171    1.173548    0.227799
     33          6           0        2.344465   -1.116558   -0.547128
     34          6           0       -2.512545    1.886431    0.336274
     35          6           0        2.233579   -2.639029   -0.959684
     36          6           0       -2.612650    3.312533    0.387162
     37          6           0        1.362860   -0.346766   -0.434051
     38          6           0       -1.351000    1.191374    0.291958
     39          6           0        1.088526    1.035662   -0.102951
     40          6           0       -0.086469    1.719166    0.053329
     41          1           0       13.871912   -0.179960   -0.073619
     42          1           0       13.999093   -0.113171    1.697482
     43          1           0      -12.509935   -1.736503   -1.985489
     44          1           0      -13.892641   -0.774059   -1.729749
     45          1           0       14.139011    2.182062    0.544662
     46          1           0       12.549262    2.103515    1.447876
     47          1           0      -14.158816   -2.652949   -0.307526
     48          1           0      -14.030033   -1.343646    0.724506
     49          1           0       12.987839    2.027812   -1.599960
     50          1           0       12.056697    3.096007   -0.532436
     51          1           0      -11.999123   -3.439240   -0.335038
     52          1           0      -12.365058   -3.183788    1.528491
     53          1           0       11.174919    0.441598    2.710751
     54          1           0       12.176620   -0.885479    2.984847
     55          1           0       10.621277   -1.191160    2.362996
     56          1           0       13.183728   -2.149491   -0.397809
     57          1           0       11.665411   -2.734165    0.784559
     58          1           0       13.177076   -2.409347    1.462449
     59          1           0      -13.609980    0.911926    0.735676
     60          1           0      -13.717406    1.483899   -0.936111
     61          1           0      -12.496448    2.024753    0.076659
     62          1           0      -10.876292   -0.102014   -2.526196
     63          1           0      -10.626571    1.535348   -1.686779
     64          1           0      -12.319827    0.897982   -2.659144
     65          1           0       10.187691   -1.947181   -0.395328
     66          1           0      -10.317298    1.433413    0.657044
     67          1           0        9.680343    0.822135   -2.319287
     68          1           0       10.894538    1.913929   -2.708088
     69          1           0        9.857103    2.468638   -1.667970
     70          1           0       -9.318633   -1.427571    1.807104
     71          1           0       -9.511765   -3.214611    1.438555
     72          1           0      -10.770228   -2.574596    2.465995
     73          1           0        8.516054    0.638952   -0.134123
     74          1           0       -8.345147   -0.780430   -0.181458
     75          1           0        8.161180   -2.743528   -1.734633
     76          1           0        6.778063   -3.395191   -0.639937
     77          1           0        8.440916   -3.280081   -0.059200
     78          1           0       -8.475741    2.686200    1.547881
     79          1           0       -8.611173    3.174764    0.081361
     80          1           0       -7.025052    3.351396    0.860386
     81          1           0        6.248156    0.374801   -0.256729
     82          1           0       -6.079280   -0.216543    0.075889
     83          1           0        4.849610   -2.488601   -0.574470
     84          1           0       -5.281326    2.876918    0.793854
     85          1           0        3.797241    0.405754    0.043624
     86          1           0       -3.877580    0.171950    0.121063
     87          1           0        2.903649   -2.852228   -1.868926
     88          1           0        1.232331   -3.015936   -1.279352
     89          1           0        2.285885   -3.398243   -0.060261
     90          1           0       -3.193543    3.588067    1.417230
     91          1           0       -3.050013    3.804626   -0.315840
     92          1           0       -1.600111    4.039281    0.673448
     93          1           0        0.316367   -0.846959   -0.806423
     94          1           0       -1.442928    0.201193    0.050097
     95          1           0        2.104219    1.731527    0.089230
     96          1           0       -0.143544    2.970577    0.319756
 ---------------------------------------------------------------------

 SCF Done:  E(RB3LYP) =  -1557.49788367     A.U. after   15 cycles

 Excitation energies and oscillator strengths:

 Excited State   1:      Singlet-A      2.3311 eV  531.88 nm  f=2.8069  <S**2>=0.000
     148 ->149         0.70513
 This state for optimization and/or second-order correction.
 Total Energy, E(TD-HF/TD-DFT) =  -1557.41221903
 Copying the excited state density for this state as the 1-particle RhoCI density.

 The electronic state is 1-A.
 Alpha  occ. eigenvalues --  -10.21229 -10.20520 -10.20357 -10.20274 -10.20113
 Alpha  occ. eigenvalues --  -10.19996 -10.19955 -10.19938 -10.19791 -10.19757
 Alpha  occ. eigenvalues --  -10.19416 -10.19401 -10.19257 -10.19175 -10.19142
 Alpha  occ. eigenvalues --  -10.19066 -10.19059 -10.19001 -10.18935 -10.18844
 Alpha  occ. eigenvalues --  -10.18748 -10.18621 -10.18609 -10.18234 -10.18121
 Alpha  occ. eigenvalues --  -10.17995 -10.17642 -10.17635 -10.17525 -10.17476
 Alpha  occ. eigenvalues --  -10.17446 -10.17402 -10.17383 -10.17320 -10.17293
 Alpha  occ. eigenvalues --  -10.17251 -10.17221 -10.16936 -10.16679 -10.15480
 Alpha  occ. eigenvalues --   -0.85412  -0.84983  -0.84373  -0.83138  -0.82209
 Alpha  occ. eigenvalues --   -0.81710  -0.79846  -0.79356  -0.78520  -0.77442
 Alpha  occ. eigenvalues --   -0.76469  -0.75593  -0.74554  -0.72672  -0.72542
 Alpha  occ. eigenvalues --   -0.70111  -0.69869  -0.68792  -0.68792  -0.68323
 Alpha  occ. eigenvalues --   -0.67509  -0.67308  -0.66589  -0.65959  -0.65779
 Alpha  occ. eigenvalues --   -0.62345  -0.61551  -0.59926  -0.58225  -0.57244
 Alpha  occ. eigenvalues --   -0.56773  -0.55511  -0.54516  -0.53598  -0.53332
 Alpha  occ. eigenvalues --   -0.52793  -0.51668  -0.50261  -0.49851  -0.48862
 Alpha  occ. eigenvalues --   -0.48650  -0.47924  -0.47137  -0.46893  -0.46554
 Alpha  occ. eigenvalues --   -0.45860  -0.45566  -0.45125  -0.44784  -0.44157
 Alpha  occ. eigenvalues --   -0.43810  -0.43413  -0.43025  -0.42745  -0.42691
 Alpha  occ. eigenvalues --   -0.42465  -0.42176  -0.41982  -0.41214  -0.40916
 Alpha  occ. eigenvalues --   -0.40824  -0.40589  -0.40317  -0.40138  -0.39775
 Alpha  occ. eigenvalues --   -0.39403  -0.39213  -0.38430  -0.38285  -0.38147
 Alpha  occ. eigenvalues --   -0.37762  -0.37333  -0.37279  -0.36449  -0.36288
 Alpha  occ. eigenvalues --   -0.35901  -0.35649  -0.35489  -0.35223  -0.35165
 Alpha  occ. eigenvalues --   -0.35094  -0.34309  -0.34187  -0.33783  -0.33457
 Alpha  occ. eigenvalues --   -0.33405  -0.33350  -0.33161  -0.32918  -0.32504
 Alpha  occ. eigenvalues --   -0.32235  -0.31809  -0.31667  -0.31288  -0.30813
 Alpha  occ. eigenvalues --   -0.30022  -0.29679  -0.29014  -0.28640  -0.28159
 Alpha  occ. eigenvalues --   -0.27691  -0.27269  -0.26419  -0.23310  -0.22367
 Alpha  occ. eigenvalues --   -0.21117  -0.18910  -0.16644
 Alpha virt. eigenvalues --   -0.07632  -0.04861  -0.01631   0.02013   0.03083
 Alpha virt. eigenvalues --    0.04338   0.05037   0.05969   0.06400   0.06899
 Alpha virt. eigenvalues --    0.07430   0.07683   0.08552   0.08734   0.08872

 Mulliken charges:
               1
     1  C   -0.001306
     2  C    0.025184
     3  C   -0.145598
     4  C   -0.188946
     5  C   -0.182976
     6  C   -0.195468
     7  C    0.045019
     8  C    0.055011
     9  C   -0.225159
    10  C   -0.213703
    11  C    0.102136
    12  C    0.054729
    13  C   -0.290389
    14  C   -0.315102
    15  C   -0.280849
    16  C   -0.298625
    17  C   -0.148631
    18  C   -0.156600
    19  C   -0.383039
    20  C   -0.349694
    21  C   -0.082794
    22  C   -0.081845
    23  C    0.147932
    24  C    0.070739
    25  C   -0.380510
    26  C   -0.344254
    27  C   -0.137325
    28  C   -0.135221
    29  C   -0.095811
    30  C   -0.026937
    31  C   -0.126968
    32  C   -0.112326
    33  C    0.152031
    34  C    0.138903
    35  C   -0.370214
    36  C   -0.364336
    37  C   -0.124009
    38  C   -0.098975
    39  C   -0.076669
    40  C   -0.089183
    41  H    0.088246
    42  H    0.077135
    43  H    0.104042
    44  H    0.089144
    45  H    0.095559
    46  H    0.082658
    47  H    0.092382
    48  H    0.107492
    49  H    0.080321
    50  H    0.085462
    51  H    0.102396
    52  H    0.074194
    53  H    0.122851
    54  H    0.092839
    55  H    0.089009
    56  H    0.108599
    57  H    0.089820
    58  H    0.090979
    59  H    0.117088
    60  H    0.034652
    61  H    0.124475
    62  H    0.098714
    63  H    0.084762
    64  H    0.080384
    65  H    0.081335
    66  H    0.072743
    67  H    0.114592
    68  H    0.106014
    69  H    0.117817
    70  H    0.115533
    71  H    0.103292
    72  H    0.101773
    73  H    0.084567
    74  H    0.095577
    75  H    0.113830
    76  H    0.111729
    77  H    0.109651
    78  H    0.141547
    79  H    0.129717
    80  H    0.090884
    81  H    0.076211
    82  H    0.081482
    83  H    0.072836
    84  H    0.039757
    85  H    0.081411
    86  H    0.075097
    87  H    0.117383
    88  H    0.105790
    89  H    0.110843
    90  H    0.097709
    91  H    0.145932
    92  H    0.075301
    93  H    0.051847
    94  H    0.075830
    95  H    0.061128
    96  H    0.059417
 Sum of Mulliken charges =  -0.00000

 Dipole moment (field-independent basis, Debye):
    X=             -1.1263    Y=             -0.2972    Z=             -0.2549  Tot=              1.1924
 Quadrupole moment (field-independent basis, Debye-Ang):
   XX=           -206.8976   YY=           -234.1244   ZZ=           -254.5979
   XY=              0.9733   XZ=              0.6770   YZ=              3.7619

 Normal termination of Gaussian 16 at Mon Jul 29 00:09:25 2019.
