 Gaussian 16, Revision A.03,
 Gaussian 16:  ES64L-G16RevA.03 25-Dec-2016

 ---------------------------------
 # td=(NStates=1) B3LYP/6-31G(d,p)
 ---------------------------------

 --
 TD
 --
 Symbolic Z-matrix:
 Charge =  0 Multiplicity = 1

                         Standard orientation:
 ---------------------------------------------------------------------
 Center     Atomic      Atomic             Coordinates (Angstroms)
 Number     Number       Type             X           Y           Z
 ---------------------------------------------------------------------
      1          6           0       12.137723    0.567766   -0.717866
      2          6           0      -12.064205   -0.095087    0.832347
      3          6           0       13.438135   -0.305025   -0.591115
      4          6           0      -12.965618    1.152436    1.292901
      5          6           0       13.186512   -1.841078   -0.534941
      6          6           0      -13.384749    2.054885    0.131137
      7          6           0       11.032952    0.032341    0.187947
      8          6           0      -10.996321    0.420619   -0.093952
      9          6           0       12.324804   -2.194418    0.613198
     10          6           0      -12.109311    2.639680   -0.643445
     11          6           0       11.090906   -1.165323    0.832081
     12          6           0      -11.011434    1.601000   -0.737908
     13          6           0       11.664483    0.530503   -2.145964
     14          6           0       12.531027    2.016019   -0.277583
     15          6           0      -12.919882   -1.031281    0.202722
     16          6           0      -11.454244   -0.649182    2.058181
     17          6           0        9.823638    0.879304    0.286890
     18          6           0       -9.826647   -0.560216   -0.290800
     19          6           0       10.073145   -1.738748    1.806728
     20          6           0       -9.965136    2.063661   -1.807131
     21          6           0        8.520500    0.455682    0.184293
     22          6           0       -8.544413   -0.377797   -0.236845
     23          6           0        7.368094    1.391027    0.331300
     24          6           0       -7.478057   -1.296641   -0.442948
     25          6           0        7.573420    2.833198    0.667952
     26          6           0       -7.766795   -2.726158   -0.615245
     27          6           0        6.078532    0.863952    0.321129
     28          6           0       -6.224707   -0.840658   -0.333210
     29          6           0        4.851569    1.468167    0.481864
     30          6           0       -4.942923   -1.678811   -0.382715
     31          6           0        3.639681    0.768007    0.280379
     32          6           0       -3.687630   -1.194256   -0.460039
     33          6           0        2.251406    1.370999    0.388348
     34          6           0       -2.415933   -1.934643   -0.461296
     35          6           0        2.097083    2.845608    0.659067
     36          6           0       -2.494205   -3.444674   -0.581962
     37          6           0        1.195982    0.491275    0.133140
     38          6           0       -1.387682   -1.181190   -0.328508
     39          6           0        1.150559   -0.934458    0.055503
     40          6           0       -0.050603   -1.619931   -0.183114
     41          1           0       13.897854   -0.089457    0.544754
     42          1           0       14.079383    0.024763   -1.259435
     43          1           0      -12.451933    1.883361    1.850035
     44          1           0      -13.839028    0.617528    1.752039
     45          1           0       14.049893   -2.404157   -0.413241
     46          1           0       12.503940   -1.972062   -1.539904
     47          1           0      -13.821074    3.041803    0.426346
     48          1           0      -14.111488    1.557774   -0.493681
     49          1           0       12.808027   -2.044263    1.456409
     50          1           0       12.038947   -3.095737    0.647712
     51          1           0      -11.557504    3.569888    0.189120
     52          1           0      -12.370805    3.103066   -1.567231
     53          1           0       11.474666   -0.396039   -2.583693
     54          1           0       12.288349    0.965715   -2.771119
     55          1           0       10.566203    1.050245   -2.335886
     56          1           0       12.722244    2.048222    0.856436
     57          1           0       11.797123    2.642721   -0.599358
     58          1           0       13.418135    2.162029   -0.905324
     59          1           0      -13.629740   -0.621746   -0.675221
     60          1           0      -13.683144   -1.550042    0.828732
     61          1           0      -12.326833   -1.823659   -0.237646
     62          1           0      -10.593306   -0.168680    2.497512
     63          1           0      -11.101214   -1.706915    1.846863
     64          1           0      -12.377826   -0.661137    2.827146
     65          1           0        9.892353    2.023586    0.277245
     66          1           0      -10.134396   -1.714791   -0.281307
     67          1           0        9.452721   -0.834923    2.182390
     68          1           0       10.673755   -2.475004    2.681026
     69          1           0        9.124562   -2.386480    1.340557
     70          1           0       -9.270650    1.265183   -1.889305
     71          1           0       -9.477187    3.008797   -1.327837
     72          1           0      -10.396242    2.301014   -2.799376
     73          1           0        8.484413   -0.709290   -0.085539
     74          1           0       -8.174382    0.615752   -0.193284
     75          1           0        8.130677    3.031602    1.591137
     76          1           0        6.677054    3.478413    0.596249
     77          1           0        8.496271    3.330476    0.020808
     78          1           0       -8.438504   -2.761986   -1.469182
     79          1           0       -8.662940   -3.203106    0.154875
     80          1           0       -6.881624   -3.449230   -0.621903
     81          1           0        5.966287   -0.298298    0.172484
     82          1           0       -5.996085    0.140156   -0.241107
     83          1           0        4.793287    2.645941    0.681949
     84          1           0       -5.080024   -2.636357   -0.290798
     85          1           0        3.567553   -0.247130   -0.013036
     86          1           0       -3.727571   -0.160529   -0.478169
     87          1           0        2.526295    3.261424    1.477874
     88          1           0        0.951168    3.164749    0.837688
     89          1           0        2.431317    3.513531   -0.144693
     90          1           0       -3.202968   -3.660276   -1.348266
     91          1           0       -2.940055   -3.695280    0.313364
     92          1           0       -1.461209   -3.940357   -0.623103
     93          1           0        0.227319    1.082211    0.236884
     94          1           0       -1.665767   -0.222305   -0.081894
     95          1           0        2.037065   -1.772207    0.117010
     96          1           0        0.258690   -2.647838   -0.417216
 ---------------------------------------------------------------------

 SCF Done:  E(RB3LYP) =  -1557.54385107     A.U. after   15 cycles

 Excitation energies and oscillator strengths:

 Excited State   1:      Singlet-A      2.3157 eV  535.40 nm  f=2.7374  <S**2>=0.000
     148 ->149         0.70134
 This state for optimization and/or second-order correction.
 Total Energy, E(TD-HF/TD-DFT) =  -1557.45874945
 Copying the excited state density for this state as the 1-particle RhoCI density.

 The electronic state is 1-A.
 Alpha  occ. eigenvalues --  -10.20847 -10.20802 -10.20750 -10.20708 -10.20694
 Alpha  occ. eigenvalues --  -10.20031 -10.19914 -10.19773 -10.19762 -10.19651
 Alpha  occ. eigenvalues --  -10.19642 -10.19554 -10.19417 -10.19320 -10.19179
 Alpha  occ. eigenvalues --  -10.19177 -10.19171 -10.19115 -10.19114 -10.19052
 Alpha  occ. eigenvalues --  -10.18899 -10.18734 -10.18627 -10.18368 -10.18303
 Alpha  occ. eigenvalues --  -10.18208 -10.18125 -10.18123 -10.18072 -10.18017
 Alpha  occ. eigenvalues --  -10.17929 -10.17912 -10.17839 -10.17759 -10.17705
 Alpha  occ. eigenvalues --  -10.17336 -10.17119 -10.17109 -10.16356 -10.15295
 Alpha  occ. eigenvalues --   -0.85773  -0.84704  -0.84493  -0.83443  -0.82280
 Alpha  occ. eigenvalues --   -0.80956  -0.79011  -0.78527  -0.78415  -0.77509
 Alpha  occ. eigenvalues --   -0.76604  -0.75186  -0.74286  -0.72529  -0.71437
 Alpha  occ. eigenvalues --   -0.71026  -0.69051  -0.68867  -0.68439  -0.68158
 Alpha  occ. eigenvalues --   -0.67894  -0.67659  -0.67012  -0.66346  -0.66079
 Alpha  occ. eigenvalues --   -0.62471  -0.61290  -0.59614  -0.59020  -0.57013
 Alpha  occ. eigenvalues --   -0.56263  -0.56074  -0.55606  -0.54714  -0.53452
 Alpha  occ. eigenvalues --   -0.52305  -0.51545  -0.50095  -0.49720  -0.49391
 Alpha  occ. eigenvalues --   -0.48765  -0.47983  -0.47396  -0.47026  -0.46170
 Alpha  occ. eigenvalues --   -0.45990  -0.45709  -0.45468  -0.44923  -0.44530
 Alpha  occ. eigenvalues --   -0.43806  -0.43222  -0.42755  -0.42342  -0.42285
 Alpha  occ. eigenvalues --   -0.41765  -0.41356  -0.41288  -0.40912  -0.40430
 Alpha  occ. eigenvalues --   -0.40364  -0.39962  -0.39631  -0.39495  -0.39209
 Alpha  occ. eigenvalues --   -0.39176  -0.38813  -0.38597  -0.38121  -0.37990
 Alpha  occ. eigenvalues --   -0.37740  -0.37435  -0.37300  -0.37214  -0.37042
 Alpha  occ. eigenvalues --   -0.36865  -0.36715  -0.36062  -0.35810  -0.35394
 Alpha  occ. eigenvalues --   -0.34930  -0.34809  -0.34550  -0.33966  -0.33752
 Alpha  occ. eigenvalues --   -0.33670  -0.33303  -0.33060  -0.32720  -0.32470
 Alpha  occ. eigenvalues --   -0.32371  -0.32174  -0.32101  -0.31421  -0.30921
 Alpha  occ. eigenvalues --   -0.30719  -0.30357  -0.29636  -0.29012  -0.28306
 Alpha  occ. eigenvalues --   -0.27811  -0.26888  -0.26743  -0.24233  -0.22889
 Alpha  occ. eigenvalues --   -0.21230  -0.19322  -0.16588
 Alpha virt. eigenvalues --   -0.07800  -0.04694  -0.01812   0.01025   0.02317
 Alpha virt. eigenvalues --    0.04454   0.06017   0.06095   0.06276   0.07076
 Alpha virt. eigenvalues --    0.07189   0.07506   0.08068   0.08260   0.08517

 Mulliken charges:
               1
     1  C   -0.028591
     2  C    0.003073
     3  C   -0.146124
     4  C   -0.163769
     5  C   -0.181163
     6  C   -0.201467
     7  C    0.094435
     8  C    0.086524
     9  C   -0.186477
    10  C   -0.196624
    11  C    0.034260
    12  C    0.053978
    13  C   -0.295462
    14  C   -0.290239
    15  C   -0.293378
    16  C   -0.277773
    17  C   -0.134155
    18  C   -0.169740
    19  C   -0.348226
    20  C   -0.350418
    21  C   -0.100317
    22  C   -0.063463
    23  C    0.111489
    24  C    0.180466
    25  C   -0.378790
    26  C   -0.381761
    27  C   -0.104154
    28  C   -0.144935
    29  C   -0.080260
    30  C   -0.076211
    31  C   -0.105173
    32  C   -0.115925
    33  C    0.108469
    34  C    0.139145
    35  C   -0.382171
    36  C   -0.371648
    37  C   -0.137504
    38  C   -0.090107
    39  C   -0.093025
    40  C   -0.110875
    41  H    0.047784
    42  H    0.088402
    43  H    0.100959
    44  H    0.082666
    45  H    0.094431
    46  H    0.069188
    47  H    0.091323
    48  H    0.097850
    49  H    0.116503
    50  H    0.102660
    51  H    0.036556
    52  H    0.111561
    53  H    0.113953
    54  H    0.105299
    55  H    0.076550
    56  H    0.102289
    57  H    0.111170
    58  H    0.094197
    59  H    0.083808
    60  H    0.097818
    61  H    0.103315
    62  H    0.116000
    63  H    0.085718
    64  H    0.072899
    65  H    0.062612
    66  H    0.056196
    67  H    0.120815
    68  H    0.066921
    69  H    0.087750
    70  H    0.117808
    71  H    0.097713
    72  H    0.108420
    73  H    0.087304
    74  H    0.076813
    75  H    0.134979
    76  H    0.114523
    77  H    0.084102
    78  H    0.132285
    79  H    0.078986
    80  H    0.111617
    81  H    0.070422
    82  H    0.067570
    83  H    0.069469
    84  H    0.045752
    85  H    0.082175
    86  H    0.069694
    87  H    0.137771
    88  H    0.081799
    89  H    0.124962
    90  H    0.127671
    91  H    0.141959
    92  H    0.108864
    93  H    0.080842
    94  H    0.079667
    95  H    0.085225
    96  H    0.072500
 Sum of Mulliken charges =  -0.00000

 Dipole moment (field-independent basis, Debye):
    X=             -0.8500    Y=             -0.0847    Z=             -0.3608  Tot=              0.9273
 Quadrupole moment (field-independent basis, Debye-Ang):
   XX=           -224.6630   YY=           -233.4527   ZZ=           -256.9220
   XY=             -0.0580   XZ=              1.5827   YZ=              1.2384

 Normal termination of Gaussian 16 at Thu Aug  1 07:49:38 2019.
