 Gaussian 16, Revision A.03,
 Gaussian 16:  ES64L-G16RevA.03 25-Dec-2016

 ---------------------------------
 # td=(NStates=1) B3LYP/6-31G(d,p)
 ---------------------------------

 --
 TD
 --
 Symbolic Z-matrix:
 Charge =  0 Multiplicity = 1

                         Standard orientation:
 ---------------------------------------------------------------------
 Center     Atomic      Atomic             Coordinates (Angstroms)
 Number     Number       Type             X           Y           Z
 ---------------------------------------------------------------------
      1          6           0       12.046596    0.580920   -0.751936
      2          6           0      -12.102912   -0.078485    0.895617
      3          6           0       13.431450   -0.199929   -0.709815
      4          6           0      -12.981439    1.108821    1.296593
      5          6           0       13.297701   -1.731327   -0.567137
      6          6           0      -13.343221    2.091874    0.251472
      7          6           0       11.097374    0.009235    0.322401
      8          6           0      -10.981048    0.419040   -0.144773
      9          6           0       12.470348   -1.935138    0.659317
     10          6           0      -12.133995    2.637516   -0.470395
     11          6           0       11.237432   -1.168555    0.942064
     12          6           0      -10.997717    1.640049   -0.710482
     13          6           0       11.549927    0.519130   -2.216410
     14          6           0       12.378871    2.117657   -0.387410
     15          6           0      -12.959620   -1.140660    0.125075
     16          6           0      -11.386312   -0.741462    2.041794
     17          6           0        9.847018    0.841169    0.452117
     18          6           0       -9.820358   -0.541221   -0.308163
     19          6           0       10.284785   -1.758097    2.032912
     20          6           0       -9.960701    2.321420   -1.618293
     21          6           0        8.604179    0.449708    0.268168
     22          6           0       -8.518825   -0.293524   -0.254712
     23          6           0        7.359613    1.248465    0.446469
     24          6           0       -7.530386   -1.255126   -0.544538
     25          6           0        7.525821    2.729658    0.731702
     26          6           0       -7.976529   -2.604408   -0.853043
     27          6           0        6.194807    0.643331    0.223455
     28          6           0       -6.212868   -0.853339   -0.274320
     29          6           0        4.871441    1.317988    0.352186
     30          6           0       -5.031707   -1.555860   -0.450188
     31          6           0        3.687196    0.523392    0.178869
     32          6           0       -3.770734   -1.184019   -0.221836
     33          6           0        2.315928    1.202379    0.297032
     34          6           0       -2.569557   -1.918241   -0.390365
     35          6           0        2.224920    2.673622    0.463431
     36          6           0       -2.665022   -3.319372   -0.870897
     37          6           0        1.181635    0.455339    0.227649
     38          6           0       -1.467110   -1.204247   -0.163242
     39          6           0        1.031660   -0.917217   -0.068524
     40          6           0       -0.114924   -1.694137   -0.090043
     41          1           0       14.033826    0.245753    0.015472
     42          1           0       13.956318    0.181318   -1.555674
     43          1           0      -12.443016    1.572345    2.084999
     44          1           0      -13.701273    0.616689    1.840379
     45          1           0       14.188635   -2.147984   -0.489624
     46          1           0       12.913948   -2.142770   -1.390756
     47          1           0      -13.866867    2.960826    0.741544
     48          1           0      -13.954545    1.702545   -0.600975
     49          1           0       13.159496   -1.857096    1.624022
     50          1           0       12.382403   -3.105180    0.647470
     51          1           0      -11.771883    3.353006    0.228262
     52          1           0      -12.343397    3.162355   -1.531019
     53          1           0       11.334664   -0.418694   -2.499931
     54          1           0       12.178365    1.113833   -2.953063
     55          1           0       10.622712    0.839291   -2.599734
     56          1           0       12.721103    2.377096    0.647507
     57          1           0       11.497920    2.981290   -0.497557
     58          1           0       13.181580    2.516570   -1.095747
     59          1           0      -13.311149   -0.640601   -0.984626
     60          1           0      -13.913069   -1.418342    0.747334
     61          1           0      -12.394583   -2.042110    0.012536
     62          1           0      -10.649405   -0.150229    2.562478
     63          1           0      -10.733157   -1.584874    1.813335
     64          1           0      -12.052347   -1.303701    2.925503
     65          1           0       10.020215    1.906735    0.621889
     66          1           0      -10.237069   -1.694039   -0.552733
     67          1           0        9.465845   -1.003770    2.214113
     68          1           0       10.792802   -2.293566    2.903866
     69          1           0        9.714529   -2.444949    1.337605
     70          1           0       -9.465141    1.354705   -2.037335
     71          1           0       -9.303006    3.142583   -1.201242
     72          1           0      -10.386161    2.886518   -2.410635
     73          1           0        8.426169   -0.583440   -0.059411
     74          1           0       -8.307825    0.830456    0.066404
     75          1           0        7.999872    3.000789    1.528999
     76          1           0        6.521342    3.296173    0.863416
     77          1           0        8.161076    3.259227    0.180248
     78          1           0       -8.969879   -2.487683   -1.654377
     79          1           0       -8.197045   -3.210781    0.200014
     80          1           0       -7.050208   -3.196625   -1.291596
     81          1           0        6.168272   -0.398006    0.073820
     82          1           0       -5.994843    0.158805   -0.014770
     83          1           0        4.931046    2.302828    0.529679
     84          1           0       -5.204217   -2.633500   -0.569722
     85          1           0        3.760423   -0.555670   -0.111265
     86          1           0       -3.631768   -0.108948   -0.099117
     87          1           0        2.390300    2.835549    1.664566
     88          1           0        1.205512    3.092969    0.181891
     89          1           0        3.060043    3.214516   -0.143622
     90          1           0       -3.382349   -3.391319   -1.741588
     91          1           0       -3.190913   -3.563302    0.183766
     92          1           0       -1.795533   -3.901360   -1.119914
     93          1           0        0.210861    0.967959    0.519618
     94          1           0       -1.543993   -0.092404   -0.219208
     95          1           0        2.053085   -1.356187   -0.263392
     96          1           0        0.059985   -2.763689   -0.122912
 ---------------------------------------------------------------------

 SCF Done:  E(RB3LYP) =  -1557.57630308     A.U. after   15 cycles

 Excitation energies and oscillator strengths:

 Excited State   1:      Singlet-A      2.2615 eV  548.24 nm  f=2.9782  <S**2>=0.000
     148 ->149         0.70639
     148 <-149        -0.10613
 This state for optimization and/or second-order correction.
 Total Energy, E(TD-HF/TD-DFT) =  -1557.49319524
 Copying the excited state density for this state as the 1-particle RhoCI density.

 The electronic state is 1-A.
 Alpha  occ. eigenvalues --  -10.21534 -10.21234 -10.20698 -10.20574 -10.20420
 Alpha  occ. eigenvalues --  -10.20209 -10.19836 -10.19688 -10.19558 -10.19483
 Alpha  occ. eigenvalues --  -10.19479 -10.19279 -10.19266 -10.19177 -10.19162
 Alpha  occ. eigenvalues --  -10.19118 -10.19096 -10.18952 -10.18928 -10.18810
 Alpha  occ. eigenvalues --  -10.18647 -10.18405 -10.18388 -10.18343 -10.18224
 Alpha  occ. eigenvalues --  -10.18098 -10.18091 -10.18082 -10.18070 -10.17986
 Alpha  occ. eigenvalues --  -10.17927 -10.17927 -10.17925 -10.17799 -10.17481
 Alpha  occ. eigenvalues --  -10.16796 -10.16547 -10.16261 -10.16097 -10.16087
 Alpha  occ. eigenvalues --   -0.84689  -0.84596  -0.84347  -0.82872  -0.82616
 Alpha  occ. eigenvalues --   -0.81696  -0.78643  -0.78042  -0.77886  -0.77571
 Alpha  occ. eigenvalues --   -0.76871  -0.75543  -0.74571  -0.72802  -0.71596
 Alpha  occ. eigenvalues --   -0.70437  -0.69725  -0.68607  -0.68225  -0.67535
 Alpha  occ. eigenvalues --   -0.67382  -0.67244  -0.66534  -0.65987  -0.65848
 Alpha  occ. eigenvalues --   -0.62704  -0.61776  -0.60236  -0.59136  -0.56920
 Alpha  occ. eigenvalues --   -0.56731  -0.55672  -0.55363  -0.54355  -0.53318
 Alpha  occ. eigenvalues --   -0.53032  -0.51354  -0.50100  -0.49374  -0.48947
 Alpha  occ. eigenvalues --   -0.48226  -0.47735  -0.47560  -0.46764  -0.46527
 Alpha  occ. eigenvalues --   -0.45431  -0.45122  -0.44497  -0.44020  -0.43681
 Alpha  occ. eigenvalues --   -0.43444  -0.42882  -0.42357  -0.42122  -0.41650
 Alpha  occ. eigenvalues --   -0.41498  -0.41433  -0.41275  -0.40991  -0.40905
 Alpha  occ. eigenvalues --   -0.40516  -0.40459  -0.40355  -0.40069  -0.39118
 Alpha  occ. eigenvalues --   -0.38953  -0.38817  -0.38724  -0.38263  -0.38001
 Alpha  occ. eigenvalues --   -0.37647  -0.37604  -0.37145  -0.37078  -0.36316
 Alpha  occ. eigenvalues --   -0.36293  -0.36232  -0.36204  -0.35350  -0.35180
 Alpha  occ. eigenvalues --   -0.35036  -0.34441  -0.34371  -0.33452  -0.33296
 Alpha  occ. eigenvalues --   -0.33130  -0.33058  -0.32898  -0.32460  -0.32383
 Alpha  occ. eigenvalues --   -0.32196  -0.32013  -0.31680  -0.31349  -0.31281
 Alpha  occ. eigenvalues --   -0.31140  -0.30005  -0.29884  -0.28937  -0.28697
 Alpha  occ. eigenvalues --   -0.27715  -0.26763  -0.25979  -0.23611  -0.22791
 Alpha  occ. eigenvalues --   -0.21299  -0.19252  -0.16260
 Alpha virt. eigenvalues --   -0.07827  -0.04537  -0.01258   0.01465   0.02528
 Alpha virt. eigenvalues --    0.04398   0.05977   0.06287   0.07132   0.07525
 Alpha virt. eigenvalues --    0.08019   0.08539   0.08720   0.08994   0.09288

 Mulliken charges:
               1
     1  C    0.013951
     2  C    0.006759
     3  C   -0.184739
     4  C   -0.153616
     5  C   -0.168526
     6  C   -0.192395
     7  C    0.041922
     8  C    0.060596
     9  C   -0.231171
    10  C   -0.211934
    11  C    0.080319
    12  C    0.044739
    13  C   -0.299862
    14  C   -0.315107
    15  C   -0.277607
    16  C   -0.313095
    17  C   -0.130545
    18  C   -0.165883
    19  C   -0.358772
    20  C   -0.360224
    21  C   -0.092439
    22  C   -0.058648
    23  C    0.139547
    24  C    0.122170
    25  C   -0.380588
    26  C   -0.356814
    27  C   -0.133445
    28  C   -0.105177
    29  C   -0.067037
    30  C   -0.083255
    31  C   -0.123679
    32  C   -0.117454
    33  C    0.106681
    34  C    0.135212
    35  C   -0.359902
    36  C   -0.345166
    37  C   -0.113589
    38  C   -0.135828
    39  C   -0.074532
    40  C   -0.111640
    41  H    0.096228
    42  H    0.079631
    43  H    0.092911
    44  H    0.095031
    45  H    0.102989
    46  H    0.111124
    47  H    0.086925
    48  H    0.095426
    49  H    0.084311
    50  H    0.072778
    51  H    0.111514
    52  H    0.075903
    53  H    0.106836
    54  H    0.090484
    55  H    0.102881
    56  H    0.105408
    57  H    0.068680
    58  H    0.090904
    59  H    0.074192
    60  H    0.082646
    61  H    0.108859
    62  H    0.111500
    63  H    0.112641
    64  H    0.060941
    65  H    0.070607
    66  H    0.063536
    67  H    0.123727
    68  H    0.112286
    69  H    0.117795
    70  H    0.111003
    71  H    0.108265
    72  H    0.107308
    73  H    0.069734
    74  H    0.087326
    75  H    0.131255
    76  H    0.089906
    77  H    0.127388
    78  H    0.098830
    79  H    0.109002
    80  H    0.098596
    81  H    0.073568
    82  H    0.068192
    83  H    0.074255
    84  H    0.057899
    85  H    0.094628
    86  H    0.069239
    87  H    0.103641
    88  H    0.114649
    89  H    0.112818
    90  H    0.126159
    91  H    0.115870
    92  H    0.117094
    93  H    0.067054
    94  H    0.083963
    95  H    0.066043
    96  H    0.078394
 Sum of Mulliken charges =  -0.00000

 Dipole moment (field-independent basis, Debye):
    X=              1.6663    Y=              0.1544    Z=              0.0166  Tot=              1.6736
 Quadrupole moment (field-independent basis, Debye-Ang):
   XX=           -233.2916   YY=           -233.2567   ZZ=           -253.7159
   XY=             -5.1484   XZ=             -4.0655   YZ=              2.8985

 Normal termination of Gaussian 16 at Tue Jul 30 06:07:41 2019.
