 Gaussian 16, Revision A.03,
 Gaussian 16:  ES64L-G16RevA.03 25-Dec-2016

 ---------------------------------
 # td=(NStates=1) B3LYP/6-31G(d,p)
 ---------------------------------

 --
 TD
 --
 Symbolic Z-matrix:
 Charge =  0 Multiplicity = 1

                         Standard orientation:
 ---------------------------------------------------------------------
 Center     Atomic      Atomic             Coordinates (Angstroms)
 Number     Number       Type             X           Y           Z
 ---------------------------------------------------------------------
      1          6           0      -12.137316   -0.470417   -0.740725
      2          6           0       12.009033   -0.045250    0.981693
      3          6           0      -13.402989    0.356925   -0.631657
      4          6           0       13.013456   -1.133741    1.358443
      5          6           0      -13.176080    1.925453   -0.415810
      6          6           0       13.438111   -1.962914    0.182201
      7          6           0      -11.039217   -0.001520    0.258687
      8          6           0       10.991369   -0.400895   -0.048733
      9          6           0      -12.317644    2.092103    0.843801
     10          6           0       12.313972   -2.410146   -0.681184
     11          6           0      -11.190129    1.068943    0.967607
     12          6           0       11.081756   -1.494378   -0.851461
     13          6           0      -11.502247   -0.392394   -2.144453
     14          6           0      -12.601956   -1.930054   -0.314572
     15          6           0       12.861480    1.227647    0.484052
     16          6           0       11.379080    0.511274    2.354099
     17          6           0       -9.854506   -0.951681    0.332797
     18          6           0        9.949477    0.492744   -0.214368
     19          6           0      -10.167075    1.576273    1.994019
     20          6           0       10.162053   -2.004792   -1.835365
     21          6           0       -8.635901   -0.530878    0.344715
     22          6           0        8.606372    0.236901   -0.169511
     23          6           0       -7.375487   -1.338716    0.454295
     24          6           0        7.532970    1.333813   -0.434654
     25          6           0       -7.612640   -2.724988    0.908146
     26          6           0        7.910927    2.739858   -0.742686
     27          6           0       -6.160379   -0.784742    0.080483
     28          6           0        6.176671    0.847448   -0.228535
     29          6           0       -4.874288   -1.413742    0.267112
     30          6           0        4.916092    1.608708   -0.481933
     31          6           0       -3.656994   -0.748556    0.043797
     32          6           0        3.807257    1.060530   -0.322668
     33          6           0       -2.348418   -1.286182    0.181058
     34          6           0        2.511011    1.751596   -0.541220
     35          6           0       -2.287422   -2.731865    0.337775
     36          6           0        2.593007    3.225598   -0.672042
     37          6           0       -1.207731   -0.582738    0.089280
     38          6           0        1.410010    1.076728   -0.437529
     39          6           0       -1.120476    0.873938   -0.186577
     40          6           0       -0.012975    1.500178   -0.528662
     41          1           0      -13.952528    0.007742    0.186329
     42          1           0      -14.017654    0.047044   -1.393368
     43          1           0       12.639568   -1.844992    2.054405
     44          1           0       13.967806   -0.675753    1.760838
     45          1           0      -14.137456    2.410633   -0.371000
     46          1           0      -12.757363    2.104071   -1.357008
     47          1           0       13.951970   -2.784246    0.633724
     48          1           0       14.021291   -1.236832   -0.456463
     49          1           0      -12.935461    2.204811    1.484828
     50          1           0      -12.008599    3.168101    0.774311
     51          1           0       11.915857   -3.529598   -0.447260
     52          1           0       12.585321   -2.653054   -1.726360
     53          1           0      -11.319282    0.684884   -2.502346
     54          1           0      -12.309355   -0.785569   -2.846387
     55          1           0      -10.566113   -0.989203   -2.115749
     56          1           0      -12.915698   -2.034226    0.648018
     57          1           0      -11.631628   -2.608830   -0.336615
     58          1           0      -13.394916   -2.319945   -0.922711
     59          1           0       13.510990    0.859628   -0.435258
     60          1           0       13.375926    1.594724    1.229334
     61          1           0       12.156673    2.091477    0.330618
     62          1           0       10.451607   -0.304722    2.671397
     63          1           0       10.927803    1.390694    2.138233
     64          1           0       12.149385    0.622141    3.196508
     65          1           0      -10.033762   -2.015407    0.668205
     66          1           0       10.393297    1.617814   -0.190363
     67          1           0       -9.591535    0.834009    2.637843
     68          1           0      -10.981398    1.990326    2.775462
     69          1           0       -9.493743    2.295125    1.749466
     70          1           0        9.381593   -1.115496   -2.411917
     71          1           0        9.469149   -2.717912   -1.333332
     72          1           0       10.668607   -2.563265   -2.625795
     73          1           0       -8.535205    0.533730    0.225376
     74          1           0        8.240596   -0.767361    0.073637
     75          1           0       -8.043183   -2.658222    1.870375
     76          1           0       -6.734605   -3.403503    0.771527
     77          1           0       -8.467284   -3.199297    0.178899
     78          1           0        8.488071    2.846944   -1.515385
     79          1           0        8.466176    3.274537    0.189591
     80          1           0        6.994646    3.547010   -1.046016
     81          1           0       -6.173369    0.493878   -0.070474
     82          1           0        6.104180   -0.274127   -0.134779
     83          1           0       -4.838407   -2.399050    0.433844
     84          1           0        5.079346    2.702822   -0.619336
     85          1           0       -3.674884    0.346947   -0.261252
     86          1           0        3.485332   -0.057020   -0.213029
     87          1           0       -2.845618   -3.243442    1.300235
     88          1           0       -1.299499   -3.328357    0.242226
     89          1           0       -2.738738   -3.323853   -0.508048
     90          1           0        3.212122    3.615661   -1.615047
     91          1           0        3.113000    3.750342    0.160442
     92          1           0        1.737540    3.794187   -0.794791
     93          1           0       -0.243562   -0.888497    0.012443
     94          1           0        1.333142    0.047897   -0.357984
     95          1           0       -2.087444    1.271728   -0.356478
     96          1           0        0.013892    2.576439   -0.471857
 ---------------------------------------------------------------------

 SCF Done:  E(RB3LYP) =  -1557.52076539     A.U. after   14 cycles

 Excitation energies and oscillator strengths:

 Excited State   1:      Singlet-A      2.5889 eV  478.90 nm  f=2.1402  <S**2>=0.000
     147 ->149         0.10693
     148 ->149         0.69765
 This state for optimization and/or second-order correction.
 Total Energy, E(TD-HF/TD-DFT) =  -1557.42562427
 Copying the excited state density for this state as the 1-particle RhoCI density.

 The electronic state is 1-A.
 Alpha  occ. eigenvalues --  -10.21413 -10.20842 -10.20531 -10.19988 -10.19920
 Alpha  occ. eigenvalues --  -10.19801 -10.19743 -10.19542 -10.19535 -10.19528
 Alpha  occ. eigenvalues --  -10.19479 -10.19336 -10.19306 -10.19266 -10.19055
 Alpha  occ. eigenvalues --  -10.18952 -10.18907 -10.18645 -10.18627 -10.18536
 Alpha  occ. eigenvalues --  -10.18425 -10.18340 -10.18241 -10.18232 -10.18170
 Alpha  occ. eigenvalues --  -10.18120 -10.18030 -10.17843 -10.17829 -10.17811
 Alpha  occ. eigenvalues --  -10.17788 -10.17600 -10.17579 -10.17569 -10.17467
 Alpha  occ. eigenvalues --  -10.17253 -10.16986 -10.16919 -10.16699 -10.15485
 Alpha  occ. eigenvalues --   -0.85547  -0.84863  -0.84321  -0.83517  -0.82170
 Alpha  occ. eigenvalues --   -0.80566  -0.79441  -0.78455  -0.78199  -0.78063
 Alpha  occ. eigenvalues --   -0.77406  -0.75789  -0.74639  -0.72592  -0.72251
 Alpha  occ. eigenvalues --   -0.70135  -0.68561  -0.68135  -0.67929  -0.67823
 Alpha  occ. eigenvalues --   -0.67729  -0.67331  -0.67328  -0.66698  -0.66472
 Alpha  occ. eigenvalues --   -0.62740  -0.61512  -0.60352  -0.59389  -0.57422
 Alpha  occ. eigenvalues --   -0.57170  -0.55814  -0.55316  -0.54003  -0.53321
 Alpha  occ. eigenvalues --   -0.52569  -0.51946  -0.51248  -0.50465  -0.49373
 Alpha  occ. eigenvalues --   -0.48722  -0.47782  -0.47094  -0.46600  -0.46148
 Alpha  occ. eigenvalues --   -0.45772  -0.45444  -0.45061  -0.44443  -0.44153
 Alpha  occ. eigenvalues --   -0.43871  -0.43010  -0.42587  -0.42445  -0.41868
 Alpha  occ. eigenvalues --   -0.41796  -0.41349  -0.41115  -0.41013  -0.40796
 Alpha  occ. eigenvalues --   -0.40568  -0.40532  -0.40300  -0.40041  -0.39631
 Alpha  occ. eigenvalues --   -0.39561  -0.39382  -0.39096  -0.38794  -0.38244
 Alpha  occ. eigenvalues --   -0.38186  -0.37448  -0.37173  -0.36682  -0.36431
 Alpha  occ. eigenvalues --   -0.36153  -0.35684  -0.35637  -0.35403  -0.35236
 Alpha  occ. eigenvalues --   -0.35125  -0.35025  -0.34389  -0.34328  -0.34045
 Alpha  occ. eigenvalues --   -0.33923  -0.33288  -0.32980  -0.32484  -0.32335
 Alpha  occ. eigenvalues --   -0.32171  -0.31954  -0.31655  -0.31236  -0.30567
 Alpha  occ. eigenvalues --   -0.29695  -0.29251  -0.29093  -0.28462  -0.28340
 Alpha  occ. eigenvalues --   -0.27836  -0.27279  -0.26566  -0.24266  -0.23189
 Alpha  occ. eigenvalues --   -0.21865  -0.19083  -0.17585
 Alpha virt. eigenvalues --   -0.07260  -0.04686  -0.01524   0.01149   0.02601
 Alpha virt. eigenvalues --    0.04451   0.05689   0.06185   0.06718   0.06871
 Alpha virt. eigenvalues --    0.07363   0.08083   0.08436   0.08692   0.09219

 Mulliken charges:
               1
     1  C   -0.008425
     2  C   -0.038397
     3  C   -0.186069
     4  C   -0.166241
     5  C   -0.219333
     6  C   -0.183905
     7  C    0.068995
     8  C    0.117630
     9  C   -0.191907
    10  C   -0.220796
    11  C    0.047847
    12  C    0.100007
    13  C   -0.292736
    14  C   -0.312459
    15  C   -0.294319
    16  C   -0.283090
    17  C   -0.129875
    18  C   -0.143811
    19  C   -0.357144
    20  C   -0.362014
    21  C   -0.071881
    22  C   -0.103183
    23  C    0.113988
    24  C    0.102592
    25  C   -0.374791
    26  C   -0.355242
    27  C   -0.122100
    28  C   -0.142202
    29  C   -0.066907
    30  C   -0.091831
    31  C   -0.122909
    32  C   -0.063339
    33  C    0.172063
    34  C    0.172205
    35  C   -0.394131
    36  C   -0.395828
    37  C   -0.125001
    38  C   -0.148406
    39  C   -0.066622
    40  C   -0.110824
    41  H    0.087884
    42  H    0.082228
    43  H    0.095855
    44  H    0.083853
    45  H    0.086526
    46  H    0.106478
    47  H    0.099019
    48  H    0.091150
    49  H    0.117309
    50  H    0.094179
    51  H    0.068356
    52  H    0.098871
    53  H    0.097457
    54  H    0.085688
    55  H    0.111175
    56  H    0.118614
    57  H    0.071769
    58  H    0.099083
    59  H    0.088848
    60  H    0.114134
    61  H    0.086317
    62  H    0.063806
    63  H    0.110474
    64  H    0.095569
    65  H    0.088020
    66  H    0.063772
    67  H    0.103954
    68  H    0.074587
    69  H    0.130155
    70  H    0.081018
    71  H    0.123762
    72  H    0.105975
    73  H    0.077852
    74  H    0.089127
    75  H    0.141125
    76  H    0.109264
    77  H    0.098830
    78  H    0.144883
    79  H    0.101563
    80  H    0.076106
    81  H    0.058345
    82  H    0.076487
    83  H    0.079528
    84  H    0.090282
    85  H    0.075305
    86  H    0.073243
    87  H    0.091393
    88  H    0.099036
    89  H    0.116499
    90  H    0.094539
    91  H    0.122156
    92  H    0.118147
    93  H    0.073578
    94  H    0.068062
    95  H    0.076622
    96  H    0.072539
 Sum of Mulliken charges =  -0.00000

 Dipole moment (field-independent basis, Debye):
    X=              0.5498    Y=             -0.1316    Z=              0.3987  Tot=              0.6918
 Quadrupole moment (field-independent basis, Debye-Ang):
   XX=           -212.1292   YY=           -232.5455   ZZ=           -256.1338
   XY=              0.7597   XZ=             -4.3765   YZ=             -1.8500

 Normal termination of Gaussian 16 at Thu Aug  1 10:18:35 2019.
