 Gaussian 16, Revision A.03,
 Gaussian 16:  ES64L-G16RevA.03 25-Dec-2016

 ---------------------------------
 # td=(NStates=1) B3LYP/6-31G(d,p)
 ---------------------------------

 --
 TD
 --
 Symbolic Z-matrix:
 Charge =  0 Multiplicity = 1

                         Standard orientation:
 ---------------------------------------------------------------------
 Center     Atomic      Atomic             Coordinates (Angstroms)
 Number     Number       Type             X           Y           Z
 ---------------------------------------------------------------------
      1          6           0       12.178730   -0.667687    0.634153
      2          6           0      -12.227013   -0.179197   -0.822220
      3          6           0       13.402702    0.309601    0.541591
      4          6           0      -12.941686   -1.303435   -1.216921
      5          6           0       13.218054    1.785925    0.661720
      6          6           0      -13.391254   -2.190875    0.034745
      7          6           0       11.009728   -0.003897   -0.248773
      8          6           0      -10.964120   -0.482625   -0.052199
      9          6           0       12.227367    2.267238   -0.449148
     10          6           0      -12.081815   -2.633986    0.771668
     11          6           0       11.105655    1.194274   -0.718391
     12          6           0      -10.923634   -1.601107    0.764998
     13          6           0       11.649317   -0.716336    2.132872
     14          6           0       12.585637   -2.126564    0.117165
     15          6           0      -12.931538    0.972912   -0.210726
     16          6           0      -11.657066    0.578046   -2.160738
     17          6           0        9.944818   -0.918935   -0.391732
     18          6           0       -9.912351    0.560075    0.143068
     19          6           0       10.036666    1.922713   -1.588809
     20          6           0       -9.911196   -1.853129    1.902692
     21          6           0        8.612764   -0.560598   -0.344549
     22          6           0       -8.565489    0.286625    0.184193
     23          6           0        7.423623   -1.385843   -0.474392
     24          6           0       -7.522263    1.298063    0.426024
     25          6           0        7.654191   -2.866395   -0.712235
     26          6           0       -8.011563    2.735167    0.624136
     27          6           0        6.160984   -0.815097   -0.360355
     28          6           0       -6.212859    0.866843    0.276975
     29          6           0        4.893689   -1.401365   -0.342652
     30          6           0       -5.028202    1.790043    0.364316
     31          6           0        3.725891   -0.756080   -0.137060
     32          6           0       -3.834936    1.235832    0.330087
     33          6           0        2.394782   -1.256738   -0.322975
     34          6           0       -2.590032    1.924271    0.309200
     35          6           0        2.214875   -2.627234   -0.635909
     36          6           0       -2.584462    3.515579    0.575879
     37          6           0        1.209449   -0.462109   -0.275228
     38          6           0       -1.402632    1.224181    0.195027
     39          6           0        1.129112    0.961991    0.002430
     40          6           0       -0.013684    1.647655    0.257497
     41          1           0       13.994152   -0.097957   -0.398513
     42          1           0       14.319061    0.020530    1.333987
     43          1           0      -12.385733   -2.077514   -1.849552
     44          1           0      -13.834687   -1.131082   -1.750311
     45          1           0       14.092421    2.277102    0.719888
     46          1           0       12.640988    2.010689    1.665228
     47          1           0      -13.895470   -3.082777   -0.191145
     48          1           0      -14.052725   -1.580454    0.580729
     49          1           0       12.598436    2.489629   -1.686430
     50          1           0       11.725693    3.182803   -0.293213
     51          1           0      -11.664134   -3.592579    0.385659
     52          1           0      -12.215438   -2.649154    1.839464
     53          1           0       11.233248    0.353117    2.363260
     54          1           0       12.447353   -0.853761    2.941941
     55          1           0       10.835176   -1.501213    2.163740
     56          1           0       12.900472   -2.103391   -0.960713
     57          1           0       11.671977   -2.980187    0.400224
     58          1           0       13.499937   -2.360847    0.783345
     59          1           0      -13.433742    0.601857    0.766303
     60          1           0      -13.737768    1.303784   -0.921686
     61          1           0      -12.471954    1.839673   -0.038795
     62          1           0      -10.857706   -0.052248   -2.630232
     63          1           0      -11.065051    1.567170   -2.078125
     64          1           0      -12.501989    0.697706   -2.731750
     65          1           0       10.163596   -1.940068   -0.590518
     66          1           0      -10.101995    1.695164    0.419337
     67          1           0        9.250093    1.112451   -1.972425
     68          1           0       10.566569    2.420104   -2.326576
     69          1           0        9.324294    2.756378   -1.192389
     70          1           0       -9.049569   -0.900131    1.895452
     71          1           0       -9.230881   -2.813613    1.871461
     72          1           0      -10.441206   -1.957482    3.080904
     73          1           0        8.438330    0.230372    0.243523
     74          1           0       -8.074416   -0.673013    0.005336
     75          1           0        8.251570   -3.046338   -1.660643
     76          1           0        6.763254   -3.244138   -0.606784
     77          1           0        8.194729   -3.171339    0.297592
     78          1           0       -8.692318    2.677389    1.499301
     79          1           0       -8.515765    3.322579   -0.211743
     80          1           0       -7.121276    3.467849    0.666440
     81          1           0        6.349682    0.129672   -0.397594
     82          1           0       -6.072190   -0.202512   -0.176572
     83          1           0        4.843162   -2.526535   -0.475882
     84          1           0       -5.102061    2.880061    0.496105
     85          1           0        3.870020    0.280577   -0.044119
     86          1           0       -3.707534    0.077767    0.024276
     87          1           0        2.439765   -2.672721   -1.697171
     88          1           0        1.124239   -2.974942   -0.661991
     89          1           0        2.865967   -3.441445    0.121709
     90          1           0       -3.352170    3.610950    1.477972
     91          1           0       -2.993936    3.848402   -0.384433
     92          1           0       -1.471343    3.879628    0.709961
     93          1           0        0.128771   -0.839048   -0.415568
     94          1           0       -1.266498    0.138379    0.158973
     95          1           0        2.190596    1.395334    0.224302
     96          1           0        0.164573    2.592569    0.495904
 ---------------------------------------------------------------------

 SCF Done:  E(RB3LYP) =  -1557.51541497     A.U. after   14 cycles

 Excitation energies and oscillator strengths:

 Excited State   1:      Singlet-A      2.2072 eV  561.73 nm  f=2.9122  <S**2>=0.000
     148 ->149         0.70422
 This state for optimization and/or second-order correction.
 Total Energy, E(TD-HF/TD-DFT) =  -1557.43430248
 Copying the excited state density for this state as the 1-particle RhoCI density.

 The electronic state is 1-A.
 Alpha  occ. eigenvalues --  -10.21286 -10.20935 -10.20802 -10.20736 -10.20520
 Alpha  occ. eigenvalues --  -10.20456 -10.20329 -10.20192 -10.20067 -10.19995
 Alpha  occ. eigenvalues --  -10.19805 -10.19787 -10.19702 -10.19609 -10.19567
 Alpha  occ. eigenvalues --  -10.19509 -10.19378 -10.19312 -10.19273 -10.19267
 Alpha  occ. eigenvalues --  -10.19224 -10.19204 -10.19023 -10.18942 -10.18910
 Alpha  occ. eigenvalues --  -10.18872 -10.18390 -10.18311 -10.18229 -10.18211
 Alpha  occ. eigenvalues --  -10.18199 -10.17977 -10.17941 -10.17690 -10.17509
 Alpha  occ. eigenvalues --  -10.17453 -10.17312 -10.17293 -10.17096 -10.16883
 Alpha  occ. eigenvalues --   -0.85744  -0.84807  -0.83821  -0.82908  -0.82077
 Alpha  occ. eigenvalues --   -0.81195  -0.79241  -0.78161  -0.77888  -0.76954
 Alpha  occ. eigenvalues --   -0.76410  -0.75645  -0.74001  -0.72254  -0.71056
 Alpha  occ. eigenvalues --   -0.69461  -0.69231  -0.68433  -0.67900  -0.67836
 Alpha  occ. eigenvalues --   -0.66738  -0.66597  -0.66185  -0.65512  -0.65399
 Alpha  occ. eigenvalues --   -0.63301  -0.61762  -0.60129  -0.59464  -0.58033
 Alpha  occ. eigenvalues --   -0.56171  -0.55660  -0.54756  -0.53750  -0.52442
 Alpha  occ. eigenvalues --   -0.52332  -0.51713  -0.51000  -0.49997  -0.49006
 Alpha  occ. eigenvalues --   -0.48532  -0.47585  -0.46537  -0.46029  -0.45890
 Alpha  occ. eigenvalues --   -0.45651  -0.44877  -0.44836  -0.44019  -0.43653
 Alpha  occ. eigenvalues --   -0.43186  -0.42696  -0.42573  -0.42322  -0.42097
 Alpha  occ. eigenvalues --   -0.42029  -0.41706  -0.41584  -0.41309  -0.40782
 Alpha  occ. eigenvalues --   -0.40729  -0.40226  -0.40157  -0.39807  -0.39612
 Alpha  occ. eigenvalues --   -0.38885  -0.38682  -0.38378  -0.38093  -0.38010
 Alpha  occ. eigenvalues --   -0.37908  -0.37675  -0.37046  -0.36909  -0.36797
 Alpha  occ. eigenvalues --   -0.36598  -0.35850  -0.35636  -0.35297  -0.35081
 Alpha  occ. eigenvalues --   -0.34841  -0.34409  -0.34313  -0.34070  -0.33866
 Alpha  occ. eigenvalues --   -0.33516  -0.33148  -0.32608  -0.32575  -0.32509
 Alpha  occ. eigenvalues --   -0.32315  -0.31893  -0.31780  -0.31348  -0.31116
 Alpha  occ. eigenvalues --   -0.30059  -0.29807  -0.29253  -0.28715  -0.27811
 Alpha  occ. eigenvalues --   -0.27347  -0.26782  -0.25908  -0.24461  -0.22967
 Alpha  occ. eigenvalues --   -0.21134  -0.18959  -0.16534
 Alpha virt. eigenvalues --   -0.08150  -0.05151  -0.01973   0.00498   0.02226
 Alpha virt. eigenvalues --    0.04045   0.05911   0.06148   0.06544   0.06903
 Alpha virt. eigenvalues --    0.07805   0.07863   0.08039   0.08240   0.08570

 Mulliken charges:
               1
     1  C   -0.001586
     2  C    0.015853
     3  C   -0.162751
     4  C   -0.193040
     5  C   -0.176276
     6  C   -0.207479
     7  C    0.099786
     8  C    0.080633
     9  C   -0.199283
    10  C   -0.216292
    11  C    0.046337
    12  C    0.057846
    13  C   -0.287835
    14  C   -0.300680
    15  C   -0.275636
    16  C   -0.310818
    17  C   -0.130601
    18  C   -0.145273
    19  C   -0.359086
    20  C   -0.336932
    21  C   -0.112403
    22  C   -0.102724
    23  C    0.054936
    24  C    0.133156
    25  C   -0.343221
    26  C   -0.378935
    27  C   -0.076754
    28  C   -0.155064
    29  C   -0.083779
    30  C   -0.098433
    31  C   -0.099315
    32  C   -0.067874
    33  C    0.126681
    34  C    0.075557
    35  C   -0.373849
    36  C   -0.362403
    37  C   -0.138865
    38  C   -0.102964
    39  C   -0.084753
    40  C   -0.084678
    41  H    0.078564
    42  H    0.045983
    43  H    0.094469
    44  H    0.091675
    45  H    0.111742
    46  H    0.092434
    47  H    0.096806
    48  H    0.106410
    49  H    0.054093
    50  H    0.120870
    51  H    0.105814
    52  H    0.108560
    53  H    0.092043
    54  H    0.096556
    55  H    0.101291
    56  H    0.114400
    57  H    0.074691
    58  H    0.102192
    59  H    0.077887
    60  H    0.085129
    61  H    0.121384
    62  H    0.095330
    63  H    0.092343
    64  H    0.098931
    65  H    0.088084
    66  H    0.081455
    67  H    0.100506
    68  H    0.108532
    69  H    0.097204
    70  H    0.095104
    71  H    0.099251
    72  H    0.065990
    73  H    0.093165
    74  H    0.084872
    75  H    0.122768
    76  H    0.112517
    77  H    0.098638
    78  H    0.126438
    79  H    0.121817
    80  H    0.094352
    81  H    0.058785
    82  H    0.087760
    83  H    0.078708
    84  H    0.090671
    85  H    0.075196
    86  H    0.069137
    87  H    0.136415
    88  H    0.105146
    89  H    0.081136
    90  H    0.116069
    91  H    0.135878
    92  H    0.111590
    93  H    0.078282
    94  H    0.067928
    95  H    0.076767
    96  H    0.059044
 Sum of Mulliken charges =  -0.00000

 Dipole moment (field-independent basis, Debye):
    X=              0.2227    Y=              0.5805    Z=             -0.2511  Tot=              0.6706
 Quadrupole moment (field-independent basis, Debye-Ang):
   XX=           -212.1327   YY=           -235.4779   ZZ=           -257.6941
   XY=              0.2223   XZ=              6.1866   YZ=              2.9476

 Normal termination of Gaussian 16 at Sun Jul 28 09:13:41 2019.
