 Gaussian 16, Revision A.03,
 Gaussian 16:  ES64L-G16RevA.03 25-Dec-2016

 ---------------------------------
 # td=(NStates=1) B3LYP/6-31G(d,p)
 ---------------------------------

 --
 TD
 --
 Symbolic Z-matrix:
 Charge =  0 Multiplicity = 1

                         Standard orientation:
 ---------------------------------------------------------------------
 Center     Atomic      Atomic             Coordinates (Angstroms)
 Number     Number       Type             X           Y           Z
 ---------------------------------------------------------------------
      1          6           0       12.072354    0.520312   -0.822662
      2          6           0      -12.041376   -0.060709    0.889563
      3          6           0       13.424223   -0.277197   -0.768028
      4          6           0      -12.953709    1.107858    1.279161
      5          6           0       13.276322   -1.721886   -0.553550
      6          6           0      -13.503453    2.002528    0.079003
      7          6           0       10.992876   -0.003133    0.137143
      8          6           0      -10.997032    0.396158   -0.139997
      9          6           0       12.376052   -2.024304    0.592283
     10          6           0      -12.278368    2.582355   -0.614365
     11          6           0       11.280065   -1.164195    0.805766
     12          6           0      -11.145586    1.588059   -0.783626
     13          6           0       11.610067    0.578091   -2.295635
     14          6           0       12.423709    2.036391   -0.540419
     15          6           0      -12.962276   -1.193239    0.197857
     16          6           0      -11.390155   -0.601188    2.226358
     17          6           0        9.867309    0.870978    0.324295
     18          6           0       -9.927264   -0.605548   -0.373807
     19          6           0       10.334265   -1.698645    1.793611
     20          6           0      -10.102076    2.068131   -1.830548
     21          6           0        8.567432    0.487836    0.227793
     22          6           0       -8.614745   -0.336462   -0.448513
     23          6           0        7.369141    1.265763    0.578029
     24          6           0       -7.553741   -1.198653   -0.474837
     25          6           0        7.572281    2.740968    0.939817
     26          6           0       -7.948173   -2.636985   -0.803564
     27          6           0        6.222514    0.706440    0.362747
     28          6           0       -6.257610   -0.823303   -0.380720
     29          6           0        4.895576    1.236880    0.525935
     30          6           0       -5.039076   -1.610541   -0.409343
     31          6           0        3.678909    0.634548    0.185836
     32          6           0       -3.744439   -0.999334   -0.237939
     33          6           0        2.396394    1.187840    0.487557
     34          6           0       -2.513006   -1.747583   -0.264889
     35          6           0        2.306316    2.637349    0.736142
     36          6           0       -2.638974   -3.237842   -0.541599
     37          6           0        1.192098    0.487895    0.278449
     38          6           0       -1.341236   -0.986529   -0.185332
     39          6           0        1.146018   -0.920983    0.013021
     40          6           0       -0.079204   -1.631310   -0.154064
     41          1           0       13.929058    0.194772    0.142560
     42          1           0       14.069006    0.016307   -1.414093
     43          1           0      -12.409172    1.870790    1.828352
     44          1           0      -13.772767    0.681395    1.780118
     45          1           0       14.142284   -2.203692   -0.520231
     46          1           0       12.845797   -2.117340   -1.476886
     47          1           0      -14.285795    2.707447    0.309207
     48          1           0      -14.029136    1.398353   -0.559254
     49          1           0       12.887637   -2.261384    1.688003
     50          1           0       12.114316   -3.184686    0.433594
     51          1           0      -11.768489    3.322334    0.080054
     52          1           0      -12.285490    3.163496   -1.541540
     53          1           0       11.537201   -0.394446   -2.833535
     54          1           0       12.453521    1.190976   -2.910911
     55          1           0       10.734350    1.227875   -2.498949
     56          1           0       12.525633    2.122469    0.466174
     57          1           0       11.502399    2.678072   -0.704522
     58          1           0       13.288119    2.450116   -1.041721
     59          1           0      -13.358163   -0.863091   -0.966492
     60          1           0      -13.685591   -1.703601    0.860404
     61          1           0      -12.406806   -1.918417   -0.188556
     62          1           0      -10.632330   -0.020339    2.796639
     63          1           0      -11.209707   -1.607206    1.870994
     64          1           0      -12.276068   -0.806522    2.822294
     65          1           0        9.991351    1.828766    0.424806
     66          1           0      -10.243121   -1.593538   -0.384123
     67          1           0        9.812413   -0.783495    2.430226
     68          1           0       10.790064   -2.277759    2.568498
     69          1           0        9.526250   -2.411811    1.270724
     70          1           0       -9.583064    1.457526   -2.383865
     71          1           0       -9.341828    2.675350   -1.274484
     72          1           0      -10.597145    2.851216   -2.507732
     73          1           0        8.528459   -0.693368    0.183978
     74          1           0       -8.200964    0.680660   -0.416567
     75          1           0        8.079455    2.755629    2.038171
     76          1           0        6.807857    3.360417    0.657067
     77          1           0        8.262791    3.208667    0.307399
     78          1           0       -8.180257   -2.971187   -1.856430
     79          1           0       -8.579025   -2.996507   -0.116811
     80          1           0       -6.953977   -3.316676   -0.671041
     81          1           0        6.254792   -0.501215   -0.039219
     82          1           0       -6.062641    0.123433   -0.083826
     83          1           0        4.684450    2.288002    0.922191
     84          1           0       -5.059474   -2.636935   -0.502201
     85          1           0        3.846724   -0.367827   -0.054625
     86          1           0       -3.789564    0.113520   -0.236005
     87          1           0        2.845484    3.247452    1.667630
     88          1           0        1.323026    2.543372    0.977988
     89          1           0        2.475016    3.276397   -0.117327
     90          1           0       -3.036261   -3.267784   -1.528031
     91          1           0       -3.073067   -3.834216    0.152505
     92          1           0       -1.710039   -3.762911   -0.364802
     93          1           0        0.394383    1.182536    0.495044
     94          1           0       -1.275467    0.018993    0.149714
     95          1           0        2.161857   -1.350599   -0.130820
     96          1           0        0.157185   -2.730670   -0.221324
 ---------------------------------------------------------------------

 SCF Done:  E(RB3LYP) =  -1557.55989090     A.U. after   16 cycles

 Excitation energies and oscillator strengths:

 Excited State   1:      Singlet-A      2.0465 eV  605.84 nm  f=3.1455  <S**2>=0.000
     148 ->149         0.70781
     148 <-149        -0.12714
 This state for optimization and/or second-order correction.
 Total Energy, E(TD-HF/TD-DFT) =  -1557.48468354
 Copying the excited state density for this state as the 1-particle RhoCI density.

 The electronic state is 1-A.
 Alpha  occ. eigenvalues --  -10.20634 -10.20343 -10.19719 -10.19699 -10.19668
 Alpha  occ. eigenvalues --  -10.19597 -10.19566 -10.19513 -10.19469 -10.19308
 Alpha  occ. eigenvalues --  -10.19305 -10.19123 -10.18935 -10.18901 -10.18869
 Alpha  occ. eigenvalues --  -10.18705 -10.18646 -10.18610 -10.18604 -10.18548
 Alpha  occ. eigenvalues --  -10.18421 -10.18413 -10.18307 -10.18020 -10.18004
 Alpha  occ. eigenvalues --  -10.17949 -10.17912 -10.17861 -10.17618 -10.17581
 Alpha  occ. eigenvalues --  -10.17575 -10.17464 -10.17310 -10.17056 -10.17016
 Alpha  occ. eigenvalues --  -10.17001 -10.16830 -10.16359 -10.16313 -10.15987
 Alpha  occ. eigenvalues --   -0.85611  -0.84517  -0.83702  -0.83122  -0.82604
 Alpha  occ. eigenvalues --   -0.81950  -0.78859  -0.78670  -0.78057  -0.77886
 Alpha  occ. eigenvalues --   -0.76744  -0.75263  -0.74308  -0.72964  -0.71565
 Alpha  occ. eigenvalues --   -0.70971  -0.69600  -0.68695  -0.68273  -0.67878
 Alpha  occ. eigenvalues --   -0.67502  -0.67224  -0.67079  -0.66601  -0.65984
 Alpha  occ. eigenvalues --   -0.63255  -0.62587  -0.60559  -0.60187  -0.57862
 Alpha  occ. eigenvalues --   -0.56689  -0.55800  -0.55313  -0.54476  -0.53774
 Alpha  occ. eigenvalues --   -0.52306  -0.52049  -0.51365  -0.49986  -0.49566
 Alpha  occ. eigenvalues --   -0.48723  -0.47990  -0.47113  -0.46923  -0.46354
 Alpha  occ. eigenvalues --   -0.46128  -0.45561  -0.44792  -0.44564  -0.44269
 Alpha  occ. eigenvalues --   -0.43983  -0.43769  -0.43615  -0.42690  -0.42595
 Alpha  occ. eigenvalues --   -0.42134  -0.41930  -0.41630  -0.41405  -0.40952
 Alpha  occ. eigenvalues --   -0.40672  -0.40388  -0.40090  -0.39665  -0.39563
 Alpha  occ. eigenvalues --   -0.39322  -0.38902  -0.38509  -0.38283  -0.37831
 Alpha  occ. eigenvalues --   -0.37788  -0.37067  -0.36726  -0.36603  -0.36226
 Alpha  occ. eigenvalues --   -0.36061  -0.35857  -0.35511  -0.35344  -0.35001
 Alpha  occ. eigenvalues --   -0.34685  -0.34640  -0.34270  -0.34074  -0.33668
 Alpha  occ. eigenvalues --   -0.33628  -0.33280  -0.32936  -0.32714  -0.32389
 Alpha  occ. eigenvalues --   -0.32221  -0.31886  -0.31665  -0.31323  -0.31064
 Alpha  occ. eigenvalues --   -0.30525  -0.30058  -0.29513  -0.29148  -0.28923
 Alpha  occ. eigenvalues --   -0.28805  -0.27843  -0.26242  -0.24134  -0.22485
 Alpha  occ. eigenvalues --   -0.20773  -0.18919  -0.15838
 Alpha virt. eigenvalues --   -0.08482  -0.05063  -0.01771   0.00403   0.02773
 Alpha virt. eigenvalues --    0.04311   0.06099   0.07330   0.07455   0.07651
 Alpha virt. eigenvalues --    0.08277   0.08681   0.08960   0.09198   0.09387

 Mulliken charges:
               1
     1  C   -0.020058
     2  C   -0.023687
     3  C   -0.156214
     4  C   -0.170399
     5  C   -0.174931
     6  C   -0.192318
     7  C    0.074747
     8  C    0.074740
     9  C   -0.233173
    10  C   -0.218916
    11  C    0.125320
    12  C    0.048423
    13  C   -0.278188
    14  C   -0.316302
    15  C   -0.317029
    16  C   -0.298606
    17  C   -0.110975
    18  C   -0.141523
    19  C   -0.357532
    20  C   -0.355307
    21  C   -0.100763
    22  C   -0.068303
    23  C    0.133534
    24  C    0.134395
    25  C   -0.365806
    26  C   -0.374700
    27  C   -0.116275
    28  C   -0.132979
    29  C   -0.099895
    30  C   -0.079606
    31  C   -0.086313
    32  C   -0.123048
    33  C    0.064445
    34  C    0.091779
    35  C   -0.360185
    36  C   -0.367251
    37  C   -0.091267
    38  C   -0.103955
    39  C   -0.116419
    40  C   -0.094579
    41  H    0.068242
    42  H    0.087809
    43  H    0.094162
    44  H    0.086182
    45  H    0.098147
    46  H    0.098478
    47  H    0.087431
    48  H    0.109792
    49  H    0.077435
    50  H    0.086989
    51  H    0.101991
    52  H    0.095655
    53  H    0.090652
    54  H    0.061760
    55  H    0.101441
    56  H    0.108672
    57  H    0.086056
    58  H    0.103277
    59  H    0.076012
    60  H    0.100676
    61  H    0.118518
    62  H    0.118343
    63  H    0.100343
    64  H    0.096738
    65  H    0.065036
    66  H    0.084065
    67  H    0.091398
    68  H    0.103299
    69  H    0.099843
    70  H    0.131193
    71  H    0.109521
    72  H    0.080620
    73  H    0.069907
    74  H    0.065260
    75  H    0.108867
    76  H    0.119060
    77  H    0.125612
    78  H    0.119254
    79  H    0.130001
    80  H    0.067411
    81  H    0.057099
    82  H    0.065413
    83  H    0.074508
    84  H    0.079024
    85  H    0.067884
    86  H    0.077305
    87  H    0.085569
    88  H    0.107585
    89  H    0.133529
    90  H    0.139734
    91  H    0.133552
    92  H    0.101069
    93  H    0.077864
    94  H    0.096872
    95  H    0.093412
    96  H    0.083556
 Sum of Mulliken charges =  -0.00000

 Dipole moment (field-independent basis, Debye):
    X=             -0.4073    Y=             -0.2815    Z=              0.2667  Tot=              0.5623
 Quadrupole moment (field-independent basis, Debye-Ang):
   XX=           -218.9824   YY=           -230.7154   ZZ=           -254.9390
   XY=              1.7044   XZ=              0.1185   YZ=              1.4431

 Normal termination of Gaussian 16 at Sun Jul 28 03:24:23 2019.
