 Gaussian 16, Revision A.03,
 Gaussian 16:  ES64L-G16RevA.03 25-Dec-2016

 ---------------------------------
 # td=(NStates=1) B3LYP/6-31G(d,p)
 ---------------------------------

 --
 TD
 --
 Symbolic Z-matrix:
 Charge =  0 Multiplicity = 1

                         Standard orientation:
 ---------------------------------------------------------------------
 Center     Atomic      Atomic             Coordinates (Angstroms)
 Number     Number       Type             X           Y           Z
 ---------------------------------------------------------------------
      1          6           0       12.128523    0.459362   -0.828128
      2          6           0      -12.157446    0.047044    0.849521
      3          6           0       13.442496   -0.272451   -0.517296
      4          6           0      -12.989874    1.159203    1.314583
      5          6           0       13.255058   -1.752697   -0.370498
      6          6           0      -13.388777    2.078164    0.180982
      7          6           0       11.028442    0.002811    0.208543
      8          6           0      -11.044930    0.448753   -0.058957
      9          6           0       12.346984   -2.058635    0.762984
     10          6           0      -12.166837    2.649051   -0.610283
     11          6           0       11.182227   -1.035432    0.958966
     12          6           0      -11.014265    1.613419   -0.773627
     13          6           0       11.716440    0.178374   -2.326301
     14          6           0       12.406826    1.969609   -0.585268
     15          6           0      -13.147139   -1.103747    0.017032
     16          6           0      -11.623569   -0.647719    2.091723
     17          6           0        9.908778    0.908958    0.282444
     18          6           0       -9.978221   -0.528833   -0.301168
     19          6           0       10.346542   -1.423851    2.164521
     20          6           0       -9.936912    2.204138   -1.657772
     21          6           0        8.618974    0.436987    0.288197
     22          6           0       -8.631222   -0.400268   -0.280368
     23          6           0        7.495934    1.367772    0.481972
     24          6           0       -7.598923   -1.424167   -0.345591
     25          6           0        7.562635    2.862757    0.679029
     26          6           0       -8.021260   -2.790309   -0.685483
     27          6           0        6.197329    0.837604    0.260690
     28          6           0       -6.317469   -0.991997   -0.128530
     29          6           0        4.881064    1.440957    0.232282
     30          6           0       -5.088488   -1.673192   -0.252645
     31          6           0        3.743819    0.690985    0.101883
     32          6           0       -3.826513   -1.236047   -0.150833
     33          6           0        2.465274    1.215086    0.245509
     34          6           0       -2.589121   -1.866012   -0.351216
     35          6           0        2.279824    2.720624    0.535709
     36          6           0       -2.509835   -3.300830   -0.713589
     37          6           0        1.293862    0.536658    0.111724
     38          6           0       -1.386171   -1.101093   -0.235412
     39          6           0        1.202851   -0.895959   -0.271206
     40          6           0       -0.003857   -1.633868   -0.389134
     41          1           0       14.093337    0.018612    0.413275
     42          1           0       14.105136   -0.156791   -1.363723
     43          1           0      -12.502464    1.572315    2.194685
     44          1           0      -13.950961    0.837923    1.833287
     45          1           0       14.230684   -2.266710   -0.164920
     46          1           0       12.780786   -2.201434   -1.132586
     47          1           0      -13.885111    2.989817    0.553617
     48          1           0      -14.006357    1.570228   -0.416047
     49          1           0       12.891498   -2.019604    1.683782
     50          1           0       11.848229   -3.148680    0.574789
     51          1           0      -11.857744    3.596832   -0.097997
     52          1           0      -12.740489    2.863561   -1.637472
     53          1           0       11.478643   -0.922990   -2.388016
     54          1           0       12.475878    0.556411   -3.043489
     55          1           0       10.802408    0.773821   -2.411840
     56          1           0       12.706415    2.026573    0.614696
     57          1           0       11.601440    2.566876   -0.900950
     58          1           0       13.356550    2.306111   -1.211670
     59          1           0      -13.494734   -0.395143   -0.941320
     60          1           0      -14.071913   -1.481990    0.476021
     61          1           0      -12.616920   -1.878069   -0.402679
     62          1           0      -10.779014   -0.088545    2.742204
     63          1           0      -10.950270   -1.748948    1.867106
     64          1           0      -12.507900   -0.743337    2.844801
     65          1           0       10.046467    2.008443    0.176611
     66          1           0      -10.340824   -1.553294   -0.270777
     67          1           0        9.673532   -0.421349    2.391875
     68          1           0       10.791149   -1.561889    3.075253
     69          1           0        9.643025   -2.331048    2.006119
     70          1           0       -9.480522    1.418077   -2.385327
     71          1           0       -9.088009    2.737626   -1.255318
     72          1           0      -10.336377    2.999037   -2.322718
     73          1           0        8.361450   -0.758669    0.159186
     74          1           0       -8.177547    0.637607    0.108637
     75          1           0        8.283044    3.091705    1.485402
     76          1           0        6.622372    3.357659    0.646836
     77          1           0        8.384935    3.290367   -0.044577
     78          1           0       -8.345662   -2.776477   -1.779471
     79          1           0       -8.881420   -3.122295   -0.168512
     80          1           0       -7.036355   -3.371585   -0.588017
     81          1           0        6.211827   -0.335719    0.209040
     82          1           0       -5.822714   -0.069003    0.287274
     83          1           0        4.776513    2.424585    0.362507
     84          1           0       -5.060680   -2.795408   -0.692009
     85          1           0        3.782428   -0.457964   -0.030901
     86          1           0       -3.718291   -0.170394    0.369586
     87          1           0        2.337131    2.974684    1.753407
     88          1           0        1.221175    2.930387    0.327348
     89          1           0        3.227655    3.264283    0.101074
     90          1           0       -3.266617   -3.516616   -1.526098
     91          1           0       -2.733990   -3.978520    0.362536
     92          1           0       -1.538705   -3.648515   -0.975308
     93          1           0        0.351625    1.013452    0.330904
     94          1           0       -1.419930   -0.073366   -0.067669
     95          1           0        2.039050   -1.428242   -0.520822
     96          1           0       -0.011180   -2.551634   -0.821553
 ---------------------------------------------------------------------

 SCF Done:  E(RB3LYP) =  -1557.59509058     A.U. after   15 cycles

 Excitation energies and oscillator strengths:

 Excited State   1:      Singlet-A      2.0802 eV  596.02 nm  f=3.1258  <S**2>=0.000
     148 ->149         0.71101
     148 <-149        -0.10896
 This state for optimization and/or second-order correction.
 Total Energy, E(TD-HF/TD-DFT) =  -1557.51864492
 Copying the excited state density for this state as the 1-particle RhoCI density.

 The electronic state is 1-A.
 Alpha  occ. eigenvalues --  -10.20838 -10.20827 -10.20541 -10.20493 -10.20472
 Alpha  occ. eigenvalues --  -10.20421 -10.20330 -10.20150 -10.19972 -10.19755
 Alpha  occ. eigenvalues --  -10.19665 -10.19600 -10.19576 -10.19375 -10.19322
 Alpha  occ. eigenvalues --  -10.19289 -10.19213 -10.19208 -10.19198 -10.19174
 Alpha  occ. eigenvalues --  -10.19146 -10.19100 -10.19077 -10.18919 -10.18918
 Alpha  occ. eigenvalues --  -10.18917 -10.18834 -10.18769 -10.18742 -10.18569
 Alpha  occ. eigenvalues --  -10.18412 -10.18273 -10.18141 -10.18140 -10.18034
 Alpha  occ. eigenvalues --  -10.17783 -10.17550 -10.17438 -10.16615 -10.16104
 Alpha  occ. eigenvalues --   -0.85329  -0.85230  -0.83788  -0.83506  -0.81985
 Alpha  occ. eigenvalues --   -0.81468  -0.78833  -0.78195  -0.77791  -0.77486
 Alpha  occ. eigenvalues --   -0.76898  -0.75764  -0.74302  -0.72168  -0.71861
 Alpha  occ. eigenvalues --   -0.69209  -0.68666  -0.68411  -0.67994  -0.67537
 Alpha  occ. eigenvalues --   -0.67268  -0.67088  -0.66474  -0.65942  -0.65440
 Alpha  occ. eigenvalues --   -0.63380  -0.62420  -0.59799  -0.59113  -0.57129
 Alpha  occ. eigenvalues --   -0.56615  -0.56570  -0.55095  -0.54109  -0.53207
 Alpha  occ. eigenvalues --   -0.52659  -0.51460  -0.50640  -0.49416  -0.49085
 Alpha  occ. eigenvalues --   -0.48506  -0.47842  -0.47302  -0.46309  -0.46156
 Alpha  occ. eigenvalues --   -0.45724  -0.44887  -0.44617  -0.44255  -0.44055
 Alpha  occ. eigenvalues --   -0.43495  -0.43023  -0.42416  -0.42338  -0.42039
 Alpha  occ. eigenvalues --   -0.41852  -0.41395  -0.41351  -0.40883  -0.40542
 Alpha  occ. eigenvalues --   -0.40369  -0.39920  -0.39833  -0.39764  -0.39662
 Alpha  occ. eigenvalues --   -0.39035  -0.38919  -0.38839  -0.38704  -0.38219
 Alpha  occ. eigenvalues --   -0.38041  -0.37875  -0.37734  -0.37534  -0.36988
 Alpha  occ. eigenvalues --   -0.36207  -0.36011  -0.35948  -0.35658  -0.35312
 Alpha  occ. eigenvalues --   -0.35122  -0.34696  -0.33999  -0.33855  -0.33820
 Alpha  occ. eigenvalues --   -0.33174  -0.32897  -0.32724  -0.32558  -0.32272
 Alpha  occ. eigenvalues --   -0.32232  -0.31871  -0.31175  -0.30703  -0.30458
 Alpha  occ. eigenvalues --   -0.30240  -0.30114  -0.29838  -0.29047  -0.28702
 Alpha  occ. eigenvalues --   -0.27994  -0.27233  -0.26275  -0.24685  -0.23312
 Alpha  occ. eigenvalues --   -0.21373  -0.18850  -0.16311
 Alpha virt. eigenvalues --   -0.08563  -0.05614  -0.01884   0.00501   0.02328
 Alpha virt. eigenvalues --    0.04290   0.06134   0.06616   0.06802   0.06843
 Alpha virt. eigenvalues --    0.07188   0.07529   0.07904   0.08042   0.08630

 Mulliken charges:
               1
     1  C   -0.021923
     2  C    0.013834
     3  C   -0.153958
     4  C   -0.178256
     5  C   -0.183725
     6  C   -0.194957
     7  C    0.107272
     8  C    0.101123
     9  C   -0.207818
    10  C   -0.222048
    11  C    0.047670
    12  C    0.072631
    13  C   -0.298788
    14  C   -0.287467
    15  C   -0.314473
    16  C   -0.279716
    17  C   -0.157838
    18  C   -0.153392
    19  C   -0.358173
    20  C   -0.367643
    21  C   -0.087761
    22  C   -0.073672
    23  C    0.132367
    24  C    0.101106
    25  C   -0.376938
    26  C   -0.368710
    27  C   -0.142107
    28  C   -0.095142
    29  C   -0.067404
    30  C   -0.086499
    31  C   -0.087341
    32  C   -0.113362
    33  C    0.140974
    34  C    0.132542
    35  C   -0.359153
    36  C   -0.359427
    37  C   -0.137824
    38  C   -0.111561
    39  C   -0.083735
    40  C   -0.104183
    41  H    0.071320
    42  H    0.086134
    43  H    0.095762
    44  H    0.080954
    45  H    0.081163
    46  H    0.103670
    47  H    0.084320
    48  H    0.114546
    49  H    0.102852
    50  H    0.072390
    51  H    0.105103
    52  H    0.082949
    53  H    0.104218
    54  H    0.103779
    55  H    0.107495
    56  H    0.083913
    57  H    0.104585
    58  H    0.081678
    59  H    0.068635
    60  H    0.107613
    61  H    0.116071
    62  H    0.089038
    63  H    0.055219
    64  H    0.092033
    65  H    0.081342
    66  H    0.072556
    67  H    0.087852
    68  H    0.121197
    69  H    0.097786
    70  H    0.105687
    71  H    0.124940
    72  H    0.100887
    73  H    0.089655
    74  H    0.069567
    75  H    0.125744
    76  H    0.123502
    77  H    0.100153
    78  H    0.120447
    79  H    0.131312
    80  H    0.110371
    81  H    0.061041
    82  H    0.078959
    83  H    0.063709
    84  H    0.043886
    85  H    0.079306
    86  H    0.055693
    87  H    0.086931
    88  H    0.118634
    89  H    0.105648
    90  H    0.119729
    91  H    0.083749
    92  H    0.120363
    93  H    0.082216
    94  H    0.073374
    95  H    0.080542
    96  H    0.073259
 Sum of Mulliken charges =  -0.00000

 Dipole moment (field-independent basis, Debye):
    X=              0.5834    Y=              0.4384    Z=             -0.0686  Tot=              0.7330
 Quadrupole moment (field-independent basis, Debye-Ang):
   XX=           -217.9052   YY=           -237.3997   ZZ=           -255.7540
   XY=             -0.4875   XZ=             -1.8958   YZ=              3.9753

 Normal termination of Gaussian 16 at Tue Jul 30 09:21:29 2019.
