 Gaussian 16, Revision A.03,
 Gaussian 16:  ES64L-G16RevA.03 25-Dec-2016

 ---------------------------------
 # td=(NStates=1) B3LYP/6-31G(d,p)
 ---------------------------------

 --
 TD
 --
 Symbolic Z-matrix:
 Charge =  0 Multiplicity = 1

                         Standard orientation:
 ---------------------------------------------------------------------
 Center     Atomic      Atomic             Coordinates (Angstroms)
 Number     Number       Type             X           Y           Z
 ---------------------------------------------------------------------
      1          6           0       12.309924    0.557730   -0.485275
      2          6           0      -12.193333   -0.176231    0.913510
      3          6           0       13.625503   -0.290962   -0.330739
      4          6           0      -13.064987    0.993409    1.428708
      5          6           0       13.298465   -1.797705   -0.528557
      6          6           0      -13.438982    1.966970    0.214541
      7          6           0       11.083950   -0.103831    0.258184
      8          6           0      -11.103375    0.379946   -0.161189
      9          6           0       12.429487   -2.246432    0.652893
     10          6           0      -12.237710    2.590935   -0.452087
     11          6           0       11.142948   -1.324933    0.844041
     12          6           0      -11.227444    1.590386   -0.692956
     13          6           0       11.954885    0.713539   -2.025093
     14          6           0       12.687085    1.852733    0.093242
     15          6           0      -13.132394   -1.128842    0.172816
     16          6           0      -11.582531   -0.925831    2.078930
     17          6           0        9.815704    0.752302    0.265215
     18          6           0       -9.993011   -0.524474   -0.359754
     19          6           0       10.012438   -1.971158    1.729988
     20          6           0      -10.186213    2.218757   -1.722209
     21          6           0        8.577342    0.415059    0.074139
     22          6           0       -8.644804   -0.386504   -0.333243
     23          6           0        7.452530    1.350574    0.134369
     24          6           0       -7.544279   -1.324039   -0.411326
     25          6           0        7.639097    2.759216    0.643714
     26          6           0       -7.884152   -2.786948   -0.572982
     27          6           0        6.226916    0.728599    0.265885
     28          6           0       -6.271639   -0.890705   -0.189468
     29          6           0        4.908425    1.441833    0.320911
     30          6           0       -4.939455   -1.524553   -0.382325
     31          6           0        3.710244    0.764582    0.183847
     32          6           0       -3.739512   -1.003423   -0.326818
     33          6           0        2.351697    1.410080    0.193769
     34          6           0       -2.498298   -1.579476   -0.536011
     35          6           0        2.328567    2.817683    0.715898
     36          6           0       -2.555574   -3.111181   -0.823570
     37          6           0        1.227181    0.717150   -0.031269
     38          6           0       -1.393323   -0.949297   -0.396878
     39          6           0        1.166660   -0.698540   -0.349418
     40          6           0       -0.042527   -1.431113   -0.408975
     41          1           0       13.963272   -0.079256    0.660817
     42          1           0       14.344310    0.102115   -1.145154
     43          1           0      -12.323924    1.562926    1.883547
     44          1           0      -14.010139    0.777644    1.927509
     45          1           0       14.277403   -2.132305   -0.350088
     46          1           0       12.825621   -2.046859   -1.498320
     47          1           0      -13.982087    2.647295    0.747398
     48          1           0      -14.218048    1.586736   -0.511695
     49          1           0       12.814444   -2.219741    1.761439
     50          1           0       12.106462   -3.179352    0.323271
     51          1           0      -11.931059    3.468991    0.116114
     52          1           0      -12.702934    3.010170   -1.255819
     53          1           0       12.100443   -0.215280   -2.439491
     54          1           0       12.595349    1.368662   -2.705489
     55          1           0       11.009496    0.970519   -2.072142
     56          1           0       12.736866    1.965293    1.240633
     57          1           0       12.078683    2.471200   -0.165662
     58          1           0       13.577074    2.057593   -0.345085
     59          1           0      -13.667907   -0.674521   -0.503481
     60          1           0      -13.830352   -1.711571    0.690621
     61          1           0      -12.573533   -1.959993   -0.247231
     62          1           0      -10.962117   -0.225934    2.745779
     63          1           0      -10.979432   -1.767051    1.993588
     64          1           0      -12.491623   -1.546759    2.783628
     65          1           0       10.034038    1.872620    0.332293
     66          1           0      -10.299957   -1.608762   -0.251734
     67          1           0        9.378028   -1.202322    1.997257
     68          1           0       10.237401   -2.611659    2.542684
     69          1           0        9.324287   -2.597951    0.895579
     70          1           0       -9.587138    1.408022   -2.145196
     71          1           0       -9.603270    2.869692   -1.041157
     72          1           0      -10.773995    2.760457   -2.472470
     73          1           0        8.312040   -0.627094   -0.205872
     74          1           0       -8.395694    0.647897    0.143313
     75          1           0        8.337475    2.694988    1.402166
     76          1           0        6.677002    3.302435    0.923822
     77          1           0        8.349957    3.294509   -0.218170
     78          1           0       -8.695222   -2.859402   -1.246706
     79          1           0       -8.269955   -3.319261    0.598806
     80          1           0       -6.930617   -3.223303   -1.179426
     81          1           0        5.952744   -0.235697    0.117944
     82          1           0       -6.387458    0.316316   -0.015673
     83          1           0        4.787734    2.447524    0.495408
     84          1           0       -4.883066   -2.694145   -0.542587
     85          1           0        3.788586   -0.260751   -0.428252
     86          1           0       -3.501534    0.096768   -0.072572
     87          1           0        2.740076    2.972115    1.794434
     88          1           0        1.361096    3.205344    0.734260
     89          1           0        2.804572    3.595235    0.044657
     90          1           0       -3.383093   -3.356135   -1.571306
     91          1           0       -2.814320   -3.782434    0.128088
     92          1           0       -1.631074   -3.781303   -1.064993
     93          1           0        0.108095    1.123981   -0.061907
     94          1           0       -1.432916    0.080115   -0.156217
     95          1           0        2.045213   -1.379848   -0.535374
     96          1           0       -0.058340   -2.450299   -0.562513
 ---------------------------------------------------------------------

 SCF Done:  E(RB3LYP) =  -1557.51743483     A.U. after   14 cycles

 Excitation energies and oscillator strengths:

 Excited State   1:      Singlet-A      2.4302 eV  510.19 nm  f=2.8569  <S**2>=0.000
     148 ->149         0.70379
 This state for optimization and/or second-order correction.
 Total Energy, E(TD-HF/TD-DFT) =  -1557.42812764
 Copying the excited state density for this state as the 1-particle RhoCI density.

 The electronic state is 1-A.
 Alpha  occ. eigenvalues --  -10.20763 -10.20688 -10.20442 -10.20388 -10.20252
 Alpha  occ. eigenvalues --  -10.20246 -10.20164 -10.20088 -10.20074 -10.20029
 Alpha  occ. eigenvalues --  -10.20027 -10.19881 -10.19649 -10.19317 -10.19180
 Alpha  occ. eigenvalues --  -10.19142 -10.18940 -10.18899 -10.18884 -10.18744
 Alpha  occ. eigenvalues --  -10.18732 -10.18690 -10.18688 -10.18682 -10.18681
 Alpha  occ. eigenvalues --  -10.18634 -10.18625 -10.18591 -10.18491 -10.18398
 Alpha  occ. eigenvalues --  -10.17668 -10.17602 -10.17551 -10.17540 -10.17096
 Alpha  occ. eigenvalues --  -10.16909 -10.16791 -10.15534 -10.14354 -10.14085
 Alpha  occ. eigenvalues --   -0.84954  -0.84803  -0.84294  -0.83033  -0.82168
 Alpha  occ. eigenvalues --   -0.81810  -0.78940  -0.78779  -0.78209  -0.77509
 Alpha  occ. eigenvalues --   -0.76837  -0.75288  -0.74026  -0.72283  -0.72013
 Alpha  occ. eigenvalues --   -0.69777  -0.69636  -0.68614  -0.68424  -0.67801
 Alpha  occ. eigenvalues --   -0.67642  -0.67395  -0.67233  -0.66930  -0.66810
 Alpha  occ. eigenvalues --   -0.62889  -0.61522  -0.60395  -0.59033  -0.57889
 Alpha  occ. eigenvalues --   -0.56642  -0.55821  -0.55322  -0.54240  -0.52942
 Alpha  occ. eigenvalues --   -0.52667  -0.50959  -0.50114  -0.49168  -0.48867
 Alpha  occ. eigenvalues --   -0.48836  -0.48009  -0.47268  -0.46643  -0.45907
 Alpha  occ. eigenvalues --   -0.45639  -0.45395  -0.45135  -0.44686  -0.44543
 Alpha  occ. eigenvalues --   -0.43881  -0.43289  -0.42805  -0.42664  -0.42288
 Alpha  occ. eigenvalues --   -0.42038  -0.41742  -0.41276  -0.41136  -0.40856
 Alpha  occ. eigenvalues --   -0.40486  -0.40344  -0.40142  -0.39848  -0.39736
 Alpha  occ. eigenvalues --   -0.39270  -0.39017  -0.38854  -0.38650  -0.38212
 Alpha  occ. eigenvalues --   -0.38204  -0.38123  -0.37287  -0.36921  -0.36438
 Alpha  occ. eigenvalues --   -0.36248  -0.35971  -0.35735  -0.35568  -0.35298
 Alpha  occ. eigenvalues --   -0.35033  -0.34920  -0.34257  -0.33829  -0.33787
 Alpha  occ. eigenvalues --   -0.33558  -0.32994  -0.32812  -0.32568  -0.32510
 Alpha  occ. eigenvalues --   -0.32181  -0.31888  -0.31767  -0.30847  -0.30774
 Alpha  occ. eigenvalues --   -0.30258  -0.29678  -0.29441  -0.29284  -0.28596
 Alpha  occ. eigenvalues --   -0.27561  -0.27038  -0.26855  -0.24822  -0.23169
 Alpha  occ. eigenvalues --   -0.21392  -0.19420  -0.17411
 Alpha virt. eigenvalues --   -0.07867  -0.05110  -0.02185   0.00983   0.02514
 Alpha virt. eigenvalues --    0.04274   0.05180   0.05962   0.06992   0.07596
 Alpha virt. eigenvalues --    0.07767   0.08128   0.08395   0.08750   0.08820

 Mulliken charges:
               1
     1  C   -0.015697
     2  C    0.008388
     3  C   -0.185959
     4  C   -0.169523
     5  C   -0.193620
     6  C   -0.216446
     7  C    0.069512
     8  C    0.080738
     9  C   -0.209754
    10  C   -0.219865
    11  C    0.013000
    12  C    0.030633
    13  C   -0.310297
    14  C   -0.262573
    15  C   -0.293484
    16  C   -0.285827
    17  C   -0.157269
    18  C   -0.150940
    19  C   -0.349582
    20  C   -0.348775
    21  C   -0.056405
    22  C   -0.097196
    23  C    0.088989
    24  C    0.127431
    25  C   -0.358388
    26  C   -0.341833
    27  C   -0.097123
    28  C   -0.114870
    29  C   -0.080292
    30  C   -0.130219
    31  C   -0.124260
    32  C   -0.073989
    33  C    0.113235
    34  C    0.207150
    35  C   -0.381189
    36  C   -0.399106
    37  C   -0.124880
    38  C   -0.137508
    39  C   -0.075812
    40  C   -0.097025
    41  H    0.100034
    42  H    0.074540
    43  H    0.098207
    44  H    0.094909
    45  H    0.103726
    46  H    0.104692
    47  H    0.092501
    48  H    0.086477
    49  H    0.096272
    50  H    0.109782
    51  H    0.109103
    52  H    0.115641
    53  H    0.104707
    54  H    0.081677
    55  H    0.116578
    56  H    0.078540
    57  H    0.096316
    58  H    0.101397
    59  H    0.106577
    60  H    0.095441
    61  H    0.087311
    62  H    0.087419
    63  H    0.114213
    64  H    0.045422
    65  H    0.068208
    66  H    0.074343
    67  H    0.133888
    68  H    0.115712
    69  H    0.077907
    70  H    0.118442
    71  H    0.116779
    72  H    0.103728
    73  H    0.085987
    74  H    0.070890
    75  H    0.146128
    76  H    0.116041
    77  H    0.085334
    78  H    0.128454
    79  H    0.083559
    80  H    0.095845
    81  H    0.073593
    82  H    0.062728
    83  H    0.076713
    84  H    0.080477
    85  H    0.070710
    86  H    0.065865
    87  H    0.115602
    88  H    0.115234
    89  H    0.109702
    90  H    0.114878
    91  H    0.104648
    92  H    0.103826
    93  H    0.085881
    94  H    0.061765
    95  H    0.087361
    96  H    0.068912
 Sum of Mulliken charges =  -0.00000

 Dipole moment (field-independent basis, Debye):
    X=              0.7365    Y=              0.4784    Z=              0.2185  Tot=              0.9050
 Quadrupole moment (field-independent basis, Debye-Ang):
   XX=           -220.4816   YY=           -234.2207   ZZ=           -254.8884
   XY=             -8.1715   XZ=              1.4519   YZ=              2.8214

 Normal termination of Gaussian 16 at Tue Jul 23 06:15:39 2019.
