 Gaussian 16, Revision A.03,
 Gaussian 16:  ES64L-G16RevA.03 25-Dec-2016

 ---------------------------------
 # td=(NStates=1) B3LYP/6-31G(d,p)
 ---------------------------------

 --
 TD
 --
 Symbolic Z-matrix:
 Charge =  0 Multiplicity = 1

                         Standard orientation:
 ---------------------------------------------------------------------
 Center     Atomic      Atomic             Coordinates (Angstroms)
 Number     Number       Type             X           Y           Z
 ---------------------------------------------------------------------
      1          6           0      -12.192235   -0.631805   -0.689449
      2          6           0       12.136691   -0.101292    0.865917
      3          6           0      -13.484095    0.186683   -0.579590
      4          6           0       12.964182   -1.266385    1.156555
      5          6           0      -13.228594    1.699041   -0.656653
      6          6           0       13.365736   -2.193843   -0.035295
      7          6           0      -10.959354   -0.028000    0.173410
      8          6           0       10.930130   -0.567914   -0.036188
      9          6           0      -12.350323    2.085889    0.454650
     10          6           0       12.008427   -2.669519   -0.647962
     11          6           0      -11.050612    1.187489    0.705729
     12          6           0       10.972681   -1.596760   -0.865403
     13          6           0      -11.731961   -0.682269   -2.121277
     14          6           0      -12.556442   -2.015066   -0.143619
     15          6           0       12.994812    0.971049    0.133022
     16          6           0       11.517333    0.474565    2.180951
     17          6           0       -9.788286   -0.831922    0.392123
     18          6           0        9.873136    0.546763   -0.306115
     19          6           0      -10.096630    1.747103    1.767349
     20          6           0        9.773214   -2.011698   -1.737451
     21          6           0       -8.549247   -0.396762    0.187462
     22          6           0        8.528590    0.321029   -0.362724
     23          6           0       -7.359921   -1.275997    0.379281
     24          6           0        7.552905    1.405359   -0.522470
     25          6           0       -7.588662   -2.723266    0.609806
     26          6           0        7.969079    2.730926   -0.703629
     27          6           0       -6.041416   -0.734220    0.268194
     28          6           0        6.149609    1.065331   -0.413147
     29          6           0       -4.805266   -1.292412    0.494842
     30          6           0        5.032824    1.847000   -0.352669
     31          6           0       -3.677756   -0.626302    0.233813
     32          6           0        3.801642    1.249874   -0.225661
     33          6           0       -2.391604   -1.238629    0.393315
     34          6           0        2.527772    1.961933   -0.320079
     35          6           0       -2.266794   -2.661349    0.624867
     36          6           0        2.553504    3.481376   -0.465850
     37          6           0       -1.228904   -0.552122    0.202613
     38          6           0        1.413851    1.231812   -0.167658
     39          6           0       -1.022558    0.878743   -0.045871
     40          6           0        0.099065    1.698739   -0.169441
     41          1           0      -13.891161   -0.141257    0.393837
     42          1           0      -14.193034   -0.286111   -1.420080
     43          1           0       12.356156   -1.916978    1.823516
     44          1           0       13.803749   -1.033971    1.882404
     45          1           0      -14.132839    2.144887   -0.663980
     46          1           0      -12.711479    1.813381   -1.652388
     47          1           0       13.977144   -2.976104    0.432245
     48          1           0       14.015826   -1.755650   -0.636566
     49          1           0      -12.896818    2.250968    1.394284
     50          1           0      -11.937774    3.064085    0.452636
     51          1           0       11.731088   -3.434457   -0.181529
     52          1           0       12.133127   -3.192351   -1.716643
     53          1           0      -11.443693    0.209209   -2.633138
     54          1           0      -12.319200   -1.330347   -2.791526
     55          1           0      -10.906747   -1.362091   -2.174966
     56          1           0      -12.662482   -1.987773    1.069362
     57          1           0      -11.788384   -2.746506   -0.483484
     58          1           0      -13.394233   -2.559553   -0.691479
     59          1           0       13.516861    0.548702   -0.846068
     60          1           0       13.556228    1.335474    0.964030
     61          1           0       12.467122    1.939070   -0.082600
     62          1           0       10.803920   -0.338450    2.517413
     63          1           0       11.149355    1.538305    2.021321
     64          1           0       12.326561    0.583122    2.964131
     65          1           0      -10.068987   -2.027053    0.679762
     66          1           0       10.200447    1.565126   -0.014748
     67          1           0       -9.328147    1.014691    2.356710
     68          1           0      -10.654069    2.214042    2.401765
     69          1           0       -9.456141    2.389680    1.341338
     70          1           0        9.179610   -1.191353   -1.796826
     71          1           0        9.126594   -2.686900   -1.268869
     72          1           0       10.095079   -2.471756   -2.556429
     73          1           0       -8.333212    0.601323   -0.061756
     74          1           0        8.098964   -0.610407   -0.339512
     75          1           0       -7.972449   -2.975660    1.725116
     76          1           0       -6.522453   -3.244837    0.559969
     77          1           0       -8.298891   -3.339741    0.018728
     78          1           0        8.592759    2.929438   -1.524229
     79          1           0        8.527022    3.295138    0.065098
     80          1           0        7.033711    3.405093   -0.866463
     81          1           0       -5.873101    0.209541   -0.026318
     82          1           0        6.119891    0.110634   -0.072294
     83          1           0       -4.595855   -2.298486    0.946087
     84          1           0        5.232634    2.757697   -0.419460
     85          1           0       -3.876506    0.299539    0.077065
     86          1           0        3.603442    0.146997   -0.067299
     87          1           0       -2.286440   -3.156746    1.677484
     88          1           0       -1.110330   -2.943888    0.353108
     89          1           0       -2.907248   -3.253423   -0.049342
     90          1           0        3.211204    3.633326   -1.440625
     91          1           0        3.203279    3.775082    0.437806
     92          1           0        1.470453    4.068780   -0.514914
     93          1           0       -0.316622   -1.060473    0.354783
     94          1           0        1.495930    0.015811    0.179660
     95          1           0       -1.931125    1.523793   -0.095787
     96          1           0        0.014112    2.900375    0.065467
 ---------------------------------------------------------------------

 SCF Done:  E(RB3LYP) =  -1557.53825713     A.U. after   16 cycles

 Excitation energies and oscillator strengths:

 Excited State   1:      Singlet-A      2.0773 eV  596.87 nm  f=2.9941  <S**2>=0.000
     148 ->149         0.70917
     148 <-149        -0.10997
 This state for optimization and/or second-order correction.
 Total Energy, E(TD-HF/TD-DFT) =  -1557.46191954
 Copying the excited state density for this state as the 1-particle RhoCI density.

 The electronic state is 1-A.
 Alpha  occ. eigenvalues --  -10.21266 -10.20830 -10.19890 -10.19871 -10.19809
 Alpha  occ. eigenvalues --  -10.19800 -10.19647 -10.19623 -10.19479 -10.19434
 Alpha  occ. eigenvalues --  -10.19398 -10.19340 -10.19339 -10.19273 -10.19105
 Alpha  occ. eigenvalues --  -10.19048 -10.18623 -10.18607 -10.18461 -10.18207
 Alpha  occ. eigenvalues --  -10.18179 -10.18096 -10.18093 -10.18049 -10.17988
 Alpha  occ. eigenvalues --  -10.17944 -10.17904 -10.17852 -10.17747 -10.17522
 Alpha  occ. eigenvalues --  -10.17439 -10.17394 -10.17344 -10.17174 -10.17158
 Alpha  occ. eigenvalues --  -10.17027 -10.16867 -10.16578 -10.16148 -10.14696
 Alpha  occ. eigenvalues --   -0.84850  -0.84791  -0.84481  -0.83692  -0.82134
 Alpha  occ. eigenvalues --   -0.81487  -0.79446  -0.78847  -0.78410  -0.78131
 Alpha  occ. eigenvalues --   -0.76664  -0.75999  -0.74824  -0.72605  -0.72056
 Alpha  occ. eigenvalues --   -0.69650  -0.69021  -0.68474  -0.68412  -0.67951
 Alpha  occ. eigenvalues --   -0.67661  -0.67403  -0.66960  -0.66729  -0.65872
 Alpha  occ. eigenvalues --   -0.62958  -0.62158  -0.60773  -0.59508  -0.57352
 Alpha  occ. eigenvalues --   -0.56673  -0.55643  -0.55349  -0.54981  -0.54471
 Alpha  occ. eigenvalues --   -0.53241  -0.52262  -0.50512  -0.49767  -0.48666
 Alpha  occ. eigenvalues --   -0.48304  -0.47530  -0.47396  -0.46602  -0.46488
 Alpha  occ. eigenvalues --   -0.45809  -0.45016  -0.44819  -0.44374  -0.43621
 Alpha  occ. eigenvalues --   -0.43434  -0.42954  -0.42809  -0.42750  -0.42503
 Alpha  occ. eigenvalues --   -0.42163  -0.41591  -0.41401  -0.41316  -0.41281
 Alpha  occ. eigenvalues --   -0.41114  -0.40585  -0.40417  -0.40141  -0.39613
 Alpha  occ. eigenvalues --   -0.39276  -0.39000  -0.38222  -0.38003  -0.37752
 Alpha  occ. eigenvalues --   -0.37461  -0.37425  -0.36996  -0.36464  -0.36286
 Alpha  occ. eigenvalues --   -0.36208  -0.36142  -0.36052  -0.35435  -0.35033
 Alpha  occ. eigenvalues --   -0.34831  -0.34692  -0.34547  -0.34369  -0.34089
 Alpha  occ. eigenvalues --   -0.33980  -0.33842  -0.33568  -0.33237  -0.32997
 Alpha  occ. eigenvalues --   -0.32723  -0.32017  -0.31318  -0.30932  -0.30905
 Alpha  occ. eigenvalues --   -0.30533  -0.30150  -0.29545  -0.29060  -0.28591
 Alpha  occ. eigenvalues --   -0.28197  -0.27531  -0.26590  -0.24041  -0.23064
 Alpha  occ. eigenvalues --   -0.21412  -0.18473  -0.15988
 Alpha virt. eigenvalues --   -0.08311  -0.05285  -0.01487   0.01510   0.02820
 Alpha virt. eigenvalues --    0.04379   0.05470   0.06386   0.07013   0.07241
 Alpha virt. eigenvalues --    0.07433   0.07871   0.08602   0.08823   0.09307

 Mulliken charges:
               1
     1  C    0.013595
     2  C    0.006200
     3  C   -0.158039
     4  C   -0.181081
     5  C   -0.177810
     6  C   -0.192334
     7  C    0.067577
     8  C    0.063259
     9  C   -0.222579
    10  C   -0.197009
    11  C    0.027723
    12  C    0.040930
    13  C   -0.307972
    14  C   -0.313933
    15  C   -0.290269
    16  C   -0.304677
    17  C   -0.122896
    18  C   -0.151971
    19  C   -0.350872
    20  C   -0.349971
    21  C   -0.076014
    22  C   -0.084460
    23  C    0.120638
    24  C    0.117174
    25  C   -0.376703
    26  C   -0.404369
    27  C   -0.134543
    28  C   -0.115970
    29  C   -0.050703
    30  C   -0.035447
    31  C   -0.074801
    32  C   -0.112831
    33  C    0.148174
    34  C    0.128775
    35  C   -0.398020
    36  C   -0.357044
    37  C   -0.124879
    38  C   -0.099666
    39  C   -0.086944
    40  C   -0.120594
    41  H    0.085495
    42  H    0.068562
    43  H    0.082844
    44  H    0.070928
    45  H    0.101885
    46  H    0.094619
    47  H    0.087253
    48  H    0.109655
    49  H    0.100191
    50  H    0.100354
    51  H    0.122248
    52  H    0.052959
    53  H    0.111673
    54  H    0.086153
    55  H    0.103600
    56  H    0.093768
    57  H    0.090958
    58  H    0.095811
    59  H    0.099252
    60  H    0.103681
    61  H    0.088542
    62  H    0.111010
    63  H    0.096153
    64  H    0.088406
    65  H    0.072158
    66  H    0.078834
    67  H    0.099330
    68  H    0.113776
    69  H    0.126650
    70  H    0.123541
    71  H    0.114169
    72  H    0.104996
    73  H    0.083257
    74  H    0.083818
    75  H    0.096369
    76  H    0.092824
    77  H    0.126184
    78  H    0.129100
    79  H    0.118785
    80  H    0.087532
    81  H    0.063941
    82  H    0.063849
    83  H    0.077501
    84  H    0.054039
    85  H    0.060532
    86  H    0.082114
    87  H    0.114266
    88  H    0.088321
    89  H    0.126203
    90  H    0.114265
    91  H    0.125002
    92  H    0.097951
    93  H    0.070822
    94  H    0.057684
    95  H    0.071557
    96  H    0.074985
 Sum of Mulliken charges =  -0.00000

 Dipole moment (field-independent basis, Debye):
    X=             -0.9125    Y=              0.2595    Z=              0.9492  Tot=              1.3420
 Quadrupole moment (field-independent basis, Debye-Ang):
   XX=           -220.7523   YY=           -232.0129   ZZ=           -254.9480
   XY=             -2.2028   XZ=              5.0164   YZ=              0.0535

 Normal termination of Gaussian 16 at Mon Jul 29 04:39:21 2019.
