 Gaussian 16, Revision A.03,
 Gaussian 16:  ES64L-G16RevA.03 25-Dec-2016

 ---------------------------------
 # td=(NStates=1) B3LYP/6-31G(d,p)
 ---------------------------------

 --
 TD
 --
 Symbolic Z-matrix:
 Charge =  0 Multiplicity = 1

                         Standard orientation:
 ---------------------------------------------------------------------
 Center     Atomic      Atomic             Coordinates (Angstroms)
 Number     Number       Type             X           Y           Z
 ---------------------------------------------------------------------
      1          6           0      -12.218209   -0.593471   -0.654315
      2          6           0       12.133141    0.062534    0.893227
      3          6           0      -13.417855    0.281017   -0.541783
      4          6           0       12.964016   -1.119901    1.363170
      5          6           0      -13.175841    1.726122   -0.523532
      6          6           0       13.362654   -2.096787    0.207932
      7          6           0      -11.077763   -0.004960    0.287237
      8          6           0       11.043150   -0.427649   -0.037027
      9          6           0      -12.228728    2.086370    0.637604
     10          6           0       12.060623   -2.716752   -0.351715
     11          6           0      -11.209854    1.115423    0.871612
     12          6           0       11.048779   -1.643997   -0.766801
     13          6           0      -11.692508   -0.546993   -2.166899
     14          6           0      -12.520000   -2.061443   -0.342477
     15          6           0       13.045896    1.154885    0.216867
     16          6           0       11.520783    0.620911    2.077404
     17          6           0       -9.874321   -0.884826    0.399669
     18          6           0        9.989161    0.533063   -0.296040
     19          6           0      -10.166866    1.735861    1.978410
     20          6           0       10.082343   -2.075858   -1.853213
     21          6           0       -8.606150   -0.457541    0.171849
     22          6           0        8.633449    0.329333   -0.328134
     23          6           0       -7.420433   -1.307238    0.412899
     24          6           0        7.559990    1.223223   -0.491894
     25          6           0       -7.512236   -2.748498    0.865316
     26          6           0        7.842384    2.757235   -0.713646
     27          6           0       -6.224263   -0.767365    0.224107
     28          6           0        6.225688    0.873893   -0.391324
     29          6           0       -4.916996   -1.327809    0.331345
     30          6           0        5.059649    1.662916   -0.411877
     31          6           0       -3.747287   -0.590691    0.077224
     32          6           0        3.796555    1.054128   -0.464147
     33          6           0       -2.428911   -1.256750    0.270872
     34          6           0        2.596057    1.906847   -0.423384
     35          6           0       -2.423622   -2.740544    0.425229
     36          6           0        2.634778    3.377222   -0.563722
     37          6           0       -1.283383   -0.516222    0.091064
     38          6           0        1.357671    1.128798   -0.173848
     39          6           0       -1.114360    0.917066   -0.106181
     40          6           0        0.024261    1.674696   -0.332759
     41          1           0      -13.884852    0.107596    0.446823
     42          1           0      -14.138083   -0.017970   -1.397750
     43          1           0       12.437630   -1.896398    1.893252
     44          1           0       13.983246   -0.989081    1.939930
     45          1           0      -14.193997    2.358347   -0.484177
     46          1           0      -12.742292    2.108015   -1.352547
     47          1           0       14.114824   -2.651788    0.543158
     48          1           0       14.163347   -1.459563   -0.384163
     49          1           0      -12.832249    2.104036    1.602768
     50          1           0      -11.925774    3.036750    0.581308
     51          1           0       11.601484   -3.387508    0.296166
     52          1           0       12.371426   -3.333612   -1.216624
     53          1           0      -11.640643    0.374891   -2.512855
     54          1           0      -12.362466   -1.133924   -2.767628
     55          1           0      -10.442047   -0.717791   -2.305167
     56          1           0      -12.776515   -2.082055    0.785326
     57          1           0      -11.637327   -2.581401   -0.569526
     58          1           0      -13.377025   -2.473712   -1.069582
     59          1           0       13.708511    0.627117   -0.607739
     60          1           0       13.763214    1.544301    0.738907
     61          1           0       12.358724    1.841199   -0.314403
     62          1           0       10.775026   -0.001288    2.441675
     63          1           0       11.127164    1.602963    2.023369
     64          1           0       12.157850    0.722340    2.877100
     65          1           0       -9.951591   -1.919680    0.703168
     66          1           0       10.512848    1.553724   -0.457116
     67          1           0       -9.256386    1.285238    2.225934
     68          1           0      -10.648893    2.156297    2.809777
     69          1           0       -9.788154    2.644861    1.370158
     70          1           0        9.333160   -1.218233   -2.134719
     71          1           0        9.533306   -2.887307   -1.567295
     72          1           0       10.596756   -2.284154   -2.664930
     73          1           0       -8.415082    0.435690   -0.253057
     74          1           0        8.373125   -0.762915   -0.334191
     75          1           0       -7.694410   -2.835305    1.923875
     76          1           0       -6.605331   -3.171677    0.887758
     77          1           0       -8.510293   -3.385053    0.371464
     78          1           0        8.664230    2.940949   -1.368135
     79          1           0        8.243072    3.102261    0.306196
     80          1           0        7.033715    3.260299   -0.992139
     81          1           0       -6.337539    0.168792   -0.188973
     82          1           0        6.108515   -0.195991   -0.077569
     83          1           0       -5.045406   -2.407576    0.227643
     84          1           0        5.134845    2.704456   -0.438753
     85          1           0       -3.810474    0.417053   -0.018747
     86          1           0        3.568161   -0.008602   -0.098316
     87          1           0       -2.661319   -3.089177    1.514763
     88          1           0       -1.314379   -3.265044   -0.055090
     89          1           0       -3.125712   -3.229850   -0.202609
     90          1           0        3.261083    3.546830   -1.298963
     91          1           0        3.021844    3.844845    0.367539
     92          1           0        1.477525    3.722469   -0.691303
     93          1           0       -0.184817   -1.016885    0.218515
     94          1           0        1.592566    0.160821    0.138099
     95          1           0       -2.114131    1.288245   -0.250456
     96          1           0        0.071337    2.725674   -0.370062
 ---------------------------------------------------------------------

 SCF Done:  E(RB3LYP) =  -1557.54394535     A.U. after   16 cycles

 Excitation energies and oscillator strengths:

 Excited State   1:      Singlet-A      2.0759 eV  597.25 nm  f=3.0073  <S**2>=0.000
     148 ->149         0.70708
     148 <-149        -0.12458
 This state for optimization and/or second-order correction.
 Total Energy, E(TD-HF/TD-DFT) =  -1557.46765719
 Copying the excited state density for this state as the 1-particle RhoCI density.

 The electronic state is 1-A.
 Alpha  occ. eigenvalues --  -10.20617 -10.20615 -10.20421 -10.19952 -10.19834
 Alpha  occ. eigenvalues --  -10.19820 -10.19780 -10.19613 -10.19517 -10.19376
 Alpha  occ. eigenvalues --  -10.19296 -10.19294 -10.19214 -10.19143 -10.19112
 Alpha  occ. eigenvalues --  -10.18983 -10.18969 -10.18880 -10.18766 -10.18732
 Alpha  occ. eigenvalues --  -10.18711 -10.18453 -10.18390 -10.18377 -10.18321
 Alpha  occ. eigenvalues --  -10.18259 -10.17775 -10.17623 -10.17569 -10.17546
 Alpha  occ. eigenvalues --  -10.17503 -10.17498 -10.17280 -10.17269 -10.17078
 Alpha  occ. eigenvalues --  -10.17078 -10.16967 -10.16849 -10.16704 -10.14222
 Alpha  occ. eigenvalues --   -0.85829  -0.85357  -0.83559  -0.82856  -0.81911
 Alpha  occ. eigenvalues --   -0.81045  -0.79066  -0.78664  -0.78478  -0.77735
 Alpha  occ. eigenvalues --   -0.76902  -0.74966  -0.74265  -0.72375  -0.72135
 Alpha  occ. eigenvalues --   -0.70303  -0.69285  -0.69195  -0.68921  -0.68258
 Alpha  occ. eigenvalues --   -0.68055  -0.67610  -0.67472  -0.67391  -0.65734
 Alpha  occ. eigenvalues --   -0.63265  -0.62212  -0.60319  -0.59579  -0.57754
 Alpha  occ. eigenvalues --   -0.57132  -0.56426  -0.54861  -0.54455  -0.53065
 Alpha  occ. eigenvalues --   -0.52731  -0.51982  -0.50928  -0.49635  -0.49065
 Alpha  occ. eigenvalues --   -0.48908  -0.48399  -0.47592  -0.46628  -0.46320
 Alpha  occ. eigenvalues --   -0.45970  -0.45199  -0.44877  -0.44671  -0.44443
 Alpha  occ. eigenvalues --   -0.44142  -0.43956  -0.43289  -0.42814  -0.42644
 Alpha  occ. eigenvalues --   -0.42494  -0.42075  -0.41387  -0.41226  -0.41150
 Alpha  occ. eigenvalues --   -0.41048  -0.40623  -0.40451  -0.39976  -0.39713
 Alpha  occ. eigenvalues --   -0.39570  -0.39440  -0.39224  -0.38882  -0.38706
 Alpha  occ. eigenvalues --   -0.38159  -0.37821  -0.37579  -0.37244  -0.37117
 Alpha  occ. eigenvalues --   -0.37033  -0.36428  -0.36175  -0.35723  -0.35650
 Alpha  occ. eigenvalues --   -0.34474  -0.34394  -0.34183  -0.34050  -0.33861
 Alpha  occ. eigenvalues --   -0.33619  -0.33420  -0.33241  -0.33066  -0.32431
 Alpha  occ. eigenvalues --   -0.32085  -0.31763  -0.31645  -0.31295  -0.30669
 Alpha  occ. eigenvalues --   -0.30286  -0.29931  -0.29603  -0.28635  -0.28116
 Alpha  occ. eigenvalues --   -0.27791  -0.27578  -0.25841  -0.24038  -0.22966
 Alpha  occ. eigenvalues --   -0.21066  -0.18991  -0.15965
 Alpha virt. eigenvalues --   -0.08456  -0.05132  -0.01877   0.00774   0.02507
 Alpha virt. eigenvalues --    0.04206   0.05653   0.06113   0.06907   0.07261
 Alpha virt. eigenvalues --    0.07472   0.08138   0.08303   0.08856   0.09342

 Mulliken charges:
               1
     1  C    0.002667
     2  C    0.024240
     3  C   -0.157188
     4  C   -0.194077
     5  C   -0.182148
     6  C   -0.181433
     7  C    0.039597
     8  C    0.046039
     9  C   -0.225967
    10  C   -0.229105
    11  C    0.082170
    12  C    0.052908
    13  C   -0.300751
    14  C   -0.289409
    15  C   -0.298288
    16  C   -0.288501
    17  C   -0.136614
    18  C   -0.124453
    19  C   -0.359232
    20  C   -0.359970
    21  C   -0.075061
    22  C   -0.120936
    23  C    0.129152
    24  C    0.116785
    25  C   -0.367140
    26  C   -0.363162
    27  C   -0.126503
    28  C   -0.122144
    29  C   -0.101568
    30  C   -0.088857
    31  C   -0.106233
    32  C   -0.115195
    33  C    0.113240
    34  C    0.082367
    35  C   -0.354763
    36  C   -0.356124
    37  C   -0.114462
    38  C   -0.106196
    39  C   -0.077412
    40  C   -0.094247
    41  H    0.088329
    42  H    0.069249
    43  H    0.097173
    44  H    0.064861
    45  H    0.065932
    46  H    0.108537
    47  H    0.093204
    48  H    0.066369
    49  H    0.092692
    50  H    0.109640
    51  H    0.123260
    52  H    0.090681
    53  H    0.114192
    54  H    0.098326
    55  H    0.066621
    56  H    0.090686
    57  H    0.117310
    58  H    0.081600
    59  H    0.081157
    60  H    0.117249
    61  H    0.098330
    62  H    0.107662
    63  H    0.092145
    64  H    0.098962
    65  H    0.082144
    66  H    0.071193
    67  H    0.122588
    68  H    0.114290
    69  H    0.088742
    70  H    0.105754
    71  H    0.122487
    72  H    0.126360
    73  H    0.073629
    74  H    0.081116
    75  H    0.126793
    76  H    0.109143
    77  H    0.083693
    78  H    0.116154
    79  H    0.110028
    80  H    0.111255
    81  H    0.063998
    82  H    0.067151
    83  H    0.093046
    84  H    0.086664
    85  H    0.091065
    86  H    0.086409
    87  H    0.114324
    88  H    0.069010
    89  H    0.134200
    90  H    0.134447
    91  H    0.129794
    92  H    0.091713
    93  H    0.057108
    94  H    0.077728
    95  H    0.067375
    96  H    0.084406
 Sum of Mulliken charges =  -0.00000

 Dipole moment (field-independent basis, Debye):
    X=              0.5644    Y=              0.3273    Z=              0.3944  Tot=              0.7624
 Quadrupole moment (field-independent basis, Debye-Ang):
   XX=           -219.6554   YY=           -232.5360   ZZ=           -254.7031
   XY=             -8.1435   XZ=              1.8641   YZ=             -1.8926

 Normal termination of Gaussian 16 at Sat Jul 27 14:09:05 2019.
