 Gaussian 16, Revision A.03,
 Gaussian 16:  ES64L-G16RevA.03 25-Dec-2016

 ---------------------------------
 # td=(NStates=1) B3LYP/6-31G(d,p)
 ---------------------------------

 --
 TD
 --
 Symbolic Z-matrix:
 Charge =  0 Multiplicity = 1

                         Standard orientation:
 ---------------------------------------------------------------------
 Center     Atomic      Atomic             Coordinates (Angstroms)
 Number     Number       Type             X           Y           Z
 ---------------------------------------------------------------------
      1          6           0       12.234627    0.408828   -0.733406
      2          6           0      -12.225077   -0.221926    0.796947
      3          6           0       13.473915   -0.454059   -0.630623
      4          6           0      -13.053952    1.043840    1.374504
      5          6           0       13.174793   -2.024473   -0.553532
      6          6           0      -13.451958    2.049492    0.193811
      7          6           0       11.085285   -0.065038    0.220421
      8          6           0      -11.101844    0.220228   -0.137541
      9          6           0       12.358005   -2.225986    0.790452
     10          6           0      -12.287366    2.566274   -0.544536
     11          6           0       11.187760   -1.253697    0.889385
     12          6           0      -11.148947    1.566647   -0.704928
     13          6           0       11.539084    0.399599   -2.156284
     14          6           0       12.628885    1.864079   -0.505465
     15          6           0      -13.111060   -1.255297    0.088430
     16          6           0      -11.573743   -0.818325    2.015004
     17          6           0        9.876302    0.843194    0.363479
     18          6           0       -9.964576   -0.605352   -0.334734
     19          6           0       10.249061   -1.569413    1.997119
     20          6           0      -10.119141    2.105280   -1.688281
     21          6           0        8.557032    0.612634    0.318029
     22          6           0       -8.612133   -0.153468   -0.265746
     23          6           0        7.403238    1.483699    0.222207
     24          6           0       -7.502671   -1.178890   -0.420763
     25          6           0        7.727219    2.991500    0.437313
     26          6           0       -7.804118   -2.652177   -0.897084
     27          6           0        6.126053    0.919453    0.311167
     28          6           0       -6.184109   -0.802996   -0.252182
     29          6           0        4.883883    1.508736    0.340219
     30          6           0       -5.109093   -1.522630   -0.439731
     31          6           0        3.739410    0.789036    0.342784
     32          6           0       -3.749727   -1.089792   -0.205176
     33          6           0        2.428501    1.364558    0.524749
     34          6           0       -2.505630   -1.818907   -0.314523
     35          6           0        2.325957    2.849730    0.544652
     36          6           0       -2.492399   -3.248040   -0.773978
     37          6           0        1.277805    0.567949    0.283275
     38          6           0       -1.357577   -1.053789   -0.074380
     39          6           0        1.234062   -0.812715    0.051984
     40          6           0       -0.009588   -1.461679   -0.209797
     41          1           0       14.100600   -0.340212    0.114977
     42          1           0       14.062845   -0.364059   -1.490582
     43          1           0      -12.473428    1.503586    2.329169
     44          1           0      -13.901164    0.701173    2.080768
     45          1           0       14.006553   -2.674338   -0.471844
     46          1           0       12.585633   -2.364390   -1.376337
     47          1           0      -14.058657    2.905012    0.755315
     48          1           0      -14.202185    1.689704   -0.641396
     49          1           0       12.934506   -1.821272    1.663374
     50          1           0       11.872646   -3.099163    0.803609
     51          1           0      -11.873535    3.590826   -0.126876
     52          1           0      -12.666022    2.800136   -1.615258
     53          1           0       11.588463   -0.695646   -2.792367
     54          1           0       12.444884    0.886795   -3.039463
     55          1           0       10.583174    0.798343   -2.460787
     56          1           0       12.755776    1.983435    0.582505
     57          1           0       11.886440    2.601871   -0.834408
     58          1           0       13.553572    2.131091   -1.029613
     59          1           0      -13.549194   -0.893539   -0.883869
     60          1           0      -13.850761   -1.613903    0.713971
     61          1           0      -12.349995   -2.051047   -0.388258
     62          1           0      -11.150259   -0.238504    2.869039
     63          1           0      -10.992462   -1.824709    1.792984
     64          1           0      -12.385946   -1.239819    2.696009
     65          1           0       10.084294    1.723862    0.600277
     66          1           0      -10.308208   -1.621844   -0.588016
     67          1           0        9.353262   -0.794695    2.268457
     68          1           0       10.737844   -1.672440    3.121666
     69          1           0        9.751889   -2.568112    1.950581
     70          1           0       -9.315695    1.303993   -1.888878
     71          1           0       -9.477994    2.945761   -1.349935
     72          1           0      -10.441433    2.447584   -2.427033
     73          1           0        8.381637   -0.388071    0.177309
     74          1           0       -8.304148    0.708636    0.220847
     75          1           0        8.450436    3.000561    1.320244
     76          1           0        6.921809    3.598097    0.460207
     77          1           0        8.550168    3.098238   -0.503055
     78          1           0       -8.428096   -2.597544   -1.949814
     79          1           0       -8.582963   -2.910781   -0.288950
     80          1           0       -7.012037   -3.236774   -1.107937
     81          1           0        6.382088   -0.020316    0.203995
     82          1           0       -6.116419    0.151486    0.045587
     83          1           0        4.827352    2.591988    0.129481
     84          1           0       -5.303116   -2.553016   -0.888338
     85          1           0        3.564766   -0.313259    0.552823
     86          1           0       -3.630239   -0.089377    0.059223
     87          1           0        3.038439    3.062206    1.509753
     88          1           0        1.340841    3.187503    0.489479
     89          1           0        2.600522    3.373427   -0.275122
     90          1           0       -3.423092   -3.501136   -1.544172
     91          1           0       -2.822095   -3.880094    0.177310
     92          1           0       -1.470451   -3.760222   -1.122779
     93          1           0        0.225124    1.162087    0.355699
     94          1           0       -1.609248   -0.127487    0.183183
     95          1           0        2.161167   -1.390262   -0.047467
     96          1           0        0.075116   -2.498012   -0.674730
 ---------------------------------------------------------------------

 SCF Done:  E(RB3LYP) =  -1557.43704017     A.U. after   17 cycles

 Excitation energies and oscillator strengths:

 Excited State   1:      Singlet-A      1.8469 eV  671.31 nm  f=3.3017  <S**2>=0.000
     148 ->149         0.71540
     148 <-149        -0.16395
 This state for optimization and/or second-order correction.
 Total Energy, E(TD-HF/TD-DFT) =  -1557.36916757
 Copying the excited state density for this state as the 1-particle RhoCI density.

 The electronic state is 1-A.
 Alpha  occ. eigenvalues --  -10.21487 -10.21063 -10.20873 -10.20810 -10.20711
 Alpha  occ. eigenvalues --  -10.20710 -10.20448 -10.20433 -10.20329 -10.20004
 Alpha  occ. eigenvalues --  -10.19939 -10.19932 -10.19860 -10.19777 -10.19695
 Alpha  occ. eigenvalues --  -10.19511 -10.19427 -10.19354 -10.19121 -10.19107
 Alpha  occ. eigenvalues --  -10.19054 -10.18998 -10.18756 -10.18718 -10.18647
 Alpha  occ. eigenvalues --  -10.18618 -10.18585 -10.18390 -10.18299 -10.17990
 Alpha  occ. eigenvalues --  -10.17561 -10.17545 -10.17491 -10.17236 -10.16991
 Alpha  occ. eigenvalues --  -10.16960 -10.16706 -10.16681 -10.16566 -10.15612
 Alpha  occ. eigenvalues --   -0.84531  -0.84398  -0.83544  -0.83242  -0.82001
 Alpha  occ. eigenvalues --   -0.81272  -0.78852  -0.78545  -0.78236  -0.77735
 Alpha  occ. eigenvalues --   -0.76524  -0.74835  -0.74268  -0.72286  -0.71778
 Alpha  occ. eigenvalues --   -0.70355  -0.69010  -0.68570  -0.68322  -0.67883
 Alpha  occ. eigenvalues --   -0.67595  -0.66862  -0.66345  -0.65902  -0.65236
 Alpha  occ. eigenvalues --   -0.63331  -0.62065  -0.60447  -0.59491  -0.57304
 Alpha  occ. eigenvalues --   -0.56575  -0.56112  -0.55623  -0.54915  -0.53334
 Alpha  occ. eigenvalues --   -0.52541  -0.52415  -0.50755  -0.50025  -0.49681
 Alpha  occ. eigenvalues --   -0.48592  -0.48115  -0.47293  -0.46790  -0.46215
 Alpha  occ. eigenvalues --   -0.45843  -0.45473  -0.45201  -0.44839  -0.44356
 Alpha  occ. eigenvalues --   -0.43959  -0.43430  -0.43362  -0.42706  -0.42591
 Alpha  occ. eigenvalues --   -0.42189  -0.41442  -0.41196  -0.41012  -0.40744
 Alpha  occ. eigenvalues --   -0.40518  -0.40125  -0.39616  -0.39314  -0.39179
 Alpha  occ. eigenvalues --   -0.39046  -0.38747  -0.38511  -0.38235  -0.37957
 Alpha  occ. eigenvalues --   -0.37898  -0.37442  -0.37289  -0.36808  -0.36425
 Alpha  occ. eigenvalues --   -0.36304  -0.35979  -0.35736  -0.35343  -0.34940
 Alpha  occ. eigenvalues --   -0.34810  -0.34503  -0.34352  -0.34242  -0.33736
 Alpha  occ. eigenvalues --   -0.33595  -0.33163  -0.33024  -0.32836  -0.32154
 Alpha  occ. eigenvalues --   -0.32030  -0.31273  -0.31225  -0.31127  -0.31030
 Alpha  occ. eigenvalues --   -0.30552  -0.30387  -0.29401  -0.28581  -0.28340
 Alpha  occ. eigenvalues --   -0.28117  -0.27355  -0.26379  -0.23517  -0.22113
 Alpha  occ. eigenvalues --   -0.20745  -0.18540  -0.15359
 Alpha virt. eigenvalues --   -0.09170  -0.05348  -0.02364   0.00415   0.01994
 Alpha virt. eigenvalues --    0.03717   0.04915   0.06360   0.06703   0.07205
 Alpha virt. eigenvalues --    0.07481   0.07623   0.08306   0.08740   0.08805

 Mulliken charges:
               1
     1  C    0.028331
     2  C    0.013712
     3  C   -0.182269
     4  C   -0.179894
     5  C   -0.212415
     6  C   -0.182068
     7  C    0.053484
     8  C    0.066290
     9  C   -0.204450
    10  C   -0.202861
    11  C    0.050767
    12  C    0.051538
    13  C   -0.274149
    14  C   -0.303877
    15  C   -0.286362
    16  C   -0.303172
    17  C   -0.124111
    18  C   -0.123585
    19  C   -0.360206
    20  C   -0.335889
    21  C   -0.085078
    22  C   -0.113694
    23  C    0.062110
    24  C    0.070799
    25  C   -0.353087
    26  C   -0.353350
    27  C   -0.057411
    28  C   -0.062913
    29  C   -0.118249
    30  C   -0.078095
    31  C   -0.071948
    32  C   -0.147617
    33  C    0.061380
    34  C    0.158001
    35  C   -0.351893
    36  C   -0.373682
    37  C   -0.101674
    38  C   -0.086038
    39  C   -0.088797
    40  C   -0.115149
    41  H    0.109746
    42  H    0.099781
    43  H    0.079653
    44  H    0.083419
    45  H    0.094336
    46  H    0.106627
    47  H    0.077435
    48  H    0.093355
    49  H    0.113071
    50  H    0.106571
    51  H    0.097097
    52  H    0.095238
    53  H    0.063342
    54  H    0.018012
    55  H    0.135779
    56  H    0.097058
    57  H    0.106035
    58  H    0.104646
    59  H    0.104883
    60  H    0.115179
    61  H    0.075658
    62  H    0.111378
    63  H    0.083785
    64  H    0.077145
    65  H    0.059891
    66  H    0.090560
    67  H    0.104490
    68  H    0.074310
    69  H    0.102052
    70  H    0.104778
    71  H    0.095544
    72  H    0.107120
    73  H    0.072202
    74  H    0.107485
    75  H    0.125199
    76  H    0.111783
    77  H    0.087434
    78  H    0.085964
    79  H    0.136056
    80  H    0.117305
    81  H    0.062047
    82  H    0.057845
    83  H    0.096376
    84  H    0.061148
    85  H    0.080695
    86  H    0.076551
    87  H    0.097957
    88  H    0.099646
    89  H    0.131474
    90  H    0.099784
    91  H    0.115290
    92  H    0.110796
    93  H    0.070974
    94  H    0.064240
    95  H    0.094743
    96  H    0.066602
 Sum of Mulliken charges =  -0.00000

 Dipole moment (field-independent basis, Debye):
    X=             -2.4552    Y=              0.0663    Z=              0.0424  Tot=              2.4564
 Quadrupole moment (field-independent basis, Debye-Ang):
   XX=           -206.2261   YY=           -236.7129   ZZ=           -254.9879
   XY=             -5.6294   XZ=              2.4982   YZ=              2.1630

 Normal termination of Gaussian 16 at Mon Jul 29 22:57:05 2019.
