 Gaussian 16, Revision A.03,
 Gaussian 16:  ES64L-G16RevA.03 25-Dec-2016

 ---------------------------------
 # td=(NStates=1) B3LYP/6-31G(d,p)
 ---------------------------------

 --
 TD
 --
 Symbolic Z-matrix:
 Charge =  0 Multiplicity = 1

                         Standard orientation:
 ---------------------------------------------------------------------
 Center     Atomic      Atomic             Coordinates (Angstroms)
 Number     Number       Type             X           Y           Z
 ---------------------------------------------------------------------
      1          6           0      -12.099908    0.499173    0.911938
      2          6           0       12.142722   -0.079428   -0.806317
      3          6           0      -13.395079   -0.298623    0.864920
      4          6           0       13.045313    1.098271   -1.239558
      5          6           0      -13.175192   -1.840681    0.861442
      6          6           0       13.412422    1.928087   -0.053975
      7          6           0      -11.050755   -0.130488   -0.065357
      8          6           0       11.043951    0.354516    0.222090
      9          6           0      -12.410797   -2.173437   -0.453771
     10          6           0       12.199828    2.709143    0.616060
     11          6           0      -11.185677   -1.298251   -0.710350
     12          6           0       11.057846    1.563971    0.833905
     13          6           0      -11.510668    0.548458    2.294299
     14          6           0      -12.598630    1.949114    0.536704
     15          6           0       12.988700   -1.166243   -0.028820
     16          6           0       11.483573   -0.784960   -2.013182
     17          6           0       -9.914211    0.945182   -0.431098
     18          6           0        9.936171   -0.633611    0.495667
     19          6           0      -10.144977   -1.768258   -1.768828
     20          6           0       10.067906    2.004706    1.889862
     21          6           0       -8.567651    0.416697   -0.407698
     22          6           0        8.661048   -0.313557    0.301585
     23          6           0       -7.491873    1.344919   -0.476648
     24          6           0        7.562923   -1.225196    0.425403
     25          6           0       -7.721625    2.773993   -0.857130
     26          6           0        7.873148   -2.754510    0.631250
     27          6           0       -6.221882    0.751574   -0.501659
     28          6           0        6.223157   -0.807588    0.274137
     29          6           0       -4.956432    1.415178   -0.631047
     30          6           0        5.051886   -1.591506    0.346213
     31          6           0       -3.740606    0.693539   -0.554215
     32          6           0        3.852351   -1.006731    0.203197
     33          6           0       -2.440970    1.260474   -0.552501
     34          6           0        2.537947   -1.638958    0.279171
     35          6           0       -2.300553    2.772793   -0.808234
     36          6           0        2.513792   -3.190515    0.416823
     37          6           0       -1.298795    0.607366   -0.373902
     38          6           0        1.377970   -0.924009   -0.004355
     39          6           0       -1.085802   -0.888273   -0.198209
     40          6           0        0.048766   -1.428111    0.095609
     41          1           0      -13.971287   -0.004050    0.016233
     42          1           0      -13.863600   -0.026039    1.657792
     43          1           0       12.533239    1.548699   -1.940118
     44          1           0       14.046946    0.761841   -1.649021
     45          1           0      -14.149763   -2.256518    0.743318
     46          1           0      -12.672978   -1.912893    1.755605
     47          1           0       14.197088    2.582824   -0.268732
     48          1           0       13.823551    1.463104    0.847619
     49          1           0      -13.157016   -2.170207   -1.146443
     50          1           0      -12.164983   -3.307594   -0.568556
     51          1           0       11.877312    3.498242   -0.035672
     52          1           0       12.304517    3.178002    1.615298
     53          1           0      -11.183574   -0.440149    2.608983
     54          1           0      -12.389738    0.815231    3.185105
     55          1           0      -10.865281    1.289573    2.288796
     56          1           0      -12.831149    1.822872   -0.518156
     57          1           0      -11.652928    2.710079    0.685984
     58          1           0      -13.433099    2.280768    1.012308
     59          1           0       12.983861   -0.653436    0.874997
     60          1           0       13.836745   -1.698024   -0.601951
     61          1           0       12.349200   -2.053283    0.528797
     62          1           0       10.710376   -0.237169   -2.392160
     63          1           0       10.919294   -1.789920   -1.903236
     64          1           0       12.497810   -0.942547   -2.620615
     65          1           0      -10.143157    1.895013   -0.742695
     66          1           0       10.169979   -1.656091    0.815718
     67          1           0       -9.408869   -0.993188   -1.858925
     68          1           0      -10.658221   -2.003861   -2.820408
     69          1           0       -9.693769   -2.765056   -1.541508
     70          1           0        9.441695    1.308814    2.514131
     71          1           0        9.290610    2.683719    1.520503
     72          1           0       10.520965    2.584281    2.618862
     73          1           0       -8.196100   -0.585479   -0.209921
     74          1           0        8.528220    0.651505   -0.018198
     75          1           0       -7.999445    2.973572   -1.804652
     76          1           0       -6.752363    3.345926   -0.783312
     77          1           0       -8.394345    3.108584    0.114242
     78          1           0        8.250530   -2.993077    1.667487
     79          1           0        8.647974   -3.078046   -0.010722
     80          1           0        7.068219   -3.335025    0.649105
     81          1           0       -5.937487   -0.161791   -0.046750
     82          1           0        6.186262    0.352835    0.064549
     83          1           0       -4.863334    2.474045   -0.796201
     84          1           0        5.149459   -2.551389    0.760456
     85          1           0       -3.817671   -0.290636   -0.173734
     86          1           0        3.807679    0.109239    0.093728
     87          1           0       -2.790122    3.084327   -1.791057
     88          1           0       -1.129518    3.025199   -0.965429
     89          1           0       -2.520904    3.379269    0.049370
     90          1           0        2.862585   -3.454158    1.508483
     91          1           0        3.321766   -3.685892   -0.350953
     92          1           0        1.505750   -3.458626    0.406971
     93          1           0       -0.403199    1.234660   -0.253923
     94          1           0        1.553840    0.177546   -0.101834
     95          1           0       -1.998146   -1.501627   -0.188739
     96          1           0        0.040557   -2.499319    0.118654
 ---------------------------------------------------------------------

 SCF Done:  E(RB3LYP) =  -1557.58414038     A.U. after   16 cycles

 Excitation energies and oscillator strengths:

 Excited State   1:      Singlet-A      2.2797 eV  543.86 nm  f=2.8463  <S**2>=0.000
     148 ->149         0.70775
 This state for optimization and/or second-order correction.
 Total Energy, E(TD-HF/TD-DFT) =  -1557.50036227
 Copying the excited state density for this state as the 1-particle RhoCI density.

 The electronic state is 1-A.
 Alpha  occ. eigenvalues --  -10.20416 -10.20201 -10.20050 -10.19927 -10.19836
 Alpha  occ. eigenvalues --  -10.19777 -10.19464 -10.19413 -10.19350 -10.19284
 Alpha  occ. eigenvalues --  -10.19267 -10.19251 -10.19245 -10.19219 -10.19146
 Alpha  occ. eigenvalues --  -10.19138 -10.19053 -10.18973 -10.18894 -10.18872
 Alpha  occ. eigenvalues --  -10.18659 -10.18582 -10.18560 -10.18558 -10.18437
 Alpha  occ. eigenvalues --  -10.18209 -10.18188 -10.18083 -10.17887 -10.17829
 Alpha  occ. eigenvalues --  -10.17750 -10.17565 -10.17482 -10.17362 -10.17323
 Alpha  occ. eigenvalues --  -10.17226 -10.17089 -10.16819 -10.16785 -10.14980
 Alpha  occ. eigenvalues --   -0.84496  -0.84370  -0.83577  -0.82979  -0.82191
 Alpha  occ. eigenvalues --   -0.81293  -0.79477  -0.78105  -0.77472  -0.76910
 Alpha  occ. eigenvalues --   -0.76461  -0.75324  -0.74584  -0.72132  -0.71032
 Alpha  occ. eigenvalues --   -0.69003  -0.68616  -0.68500  -0.68464  -0.67941
 Alpha  occ. eigenvalues --   -0.67280  -0.67203  -0.67089  -0.66758  -0.66240
 Alpha  occ. eigenvalues --   -0.63078  -0.62326  -0.60066  -0.59309  -0.57344
 Alpha  occ. eigenvalues --   -0.56684  -0.55412  -0.55220  -0.54314  -0.53621
 Alpha  occ. eigenvalues --   -0.52987  -0.52555  -0.51001  -0.50391  -0.49347
 Alpha  occ. eigenvalues --   -0.48677  -0.47280  -0.46996  -0.46557  -0.45935
 Alpha  occ. eigenvalues --   -0.45548  -0.45326  -0.44855  -0.44307  -0.44050
 Alpha  occ. eigenvalues --   -0.43623  -0.43353  -0.42842  -0.42688  -0.42479
 Alpha  occ. eigenvalues --   -0.42156  -0.41858  -0.41534  -0.41404  -0.41044
 Alpha  occ. eigenvalues --   -0.40756  -0.40418  -0.40242  -0.39977  -0.39597
 Alpha  occ. eigenvalues --   -0.39024  -0.38974  -0.38520  -0.38356  -0.38295
 Alpha  occ. eigenvalues --   -0.37829  -0.37270  -0.37183  -0.36975  -0.36702
 Alpha  occ. eigenvalues --   -0.36225  -0.36001  -0.35921  -0.35618  -0.35328
 Alpha  occ. eigenvalues --   -0.35265  -0.34835  -0.34411  -0.33880  -0.33614
 Alpha  occ. eigenvalues --   -0.33521  -0.33424  -0.33393  -0.33202  -0.33119
 Alpha  occ. eigenvalues --   -0.31944  -0.31855  -0.31785  -0.31592  -0.30607
 Alpha  occ. eigenvalues --   -0.30122  -0.29485  -0.28970  -0.28732  -0.28531
 Alpha  occ. eigenvalues --   -0.27880  -0.27234  -0.26048  -0.24092  -0.22905
 Alpha  occ. eigenvalues --   -0.21842  -0.18655  -0.16753
 Alpha virt. eigenvalues --   -0.08013  -0.05730  -0.01082   0.01105   0.02915
 Alpha virt. eigenvalues --    0.03389   0.05551   0.07037   0.07450   0.07878
 Alpha virt. eigenvalues --    0.08031   0.08245   0.08825   0.09127   0.09558

 Mulliken charges:
               1
     1  C   -0.027496
     2  C    0.003477
     3  C   -0.161834
     4  C   -0.151846
     5  C   -0.197145
     6  C   -0.198211
     7  C    0.041693
     8  C    0.006651
     9  C   -0.218028
    10  C   -0.230567
    11  C    0.089123
    12  C    0.053512
    13  C   -0.256973
    14  C   -0.299256
    15  C   -0.293608
    16  C   -0.288047
    17  C   -0.176516
    18  C   -0.130008
    19  C   -0.360053
    20  C   -0.373106
    21  C   -0.076073
    22  C   -0.061051
    23  C    0.096734
    24  C    0.094715
    25  C   -0.360607
    26  C   -0.374625
    27  C   -0.128312
    28  C   -0.126769
    29  C   -0.084731
    30  C   -0.073038
    31  C   -0.125412
    32  C   -0.103416
    33  C    0.135544
    34  C    0.096169
    35  C   -0.377603
    36  C   -0.356129
    37  C   -0.139606
    38  C   -0.104142
    39  C   -0.090019
    40  C   -0.079723
    41  H    0.079890
    42  H    0.087233
    43  H    0.111157
    44  H    0.088736
    45  H    0.091868
    46  H    0.104862
    47  H    0.087357
    48  H    0.111150
    49  H    0.117203
    50  H    0.071619
    51  H    0.109183
    52  H    0.096858
    53  H    0.104440
    54  H    0.042364
    55  H    0.113981
    56  H    0.106442
    57  H    0.061944
    58  H    0.116696
    59  H    0.120786
    60  H    0.097864
    61  H    0.059957
    62  H    0.109616
    63  H    0.091377
    64  H    0.074034
    65  H    0.116773
    66  H    0.085039
    67  H    0.129044
    68  H    0.084186
    69  H    0.106103
    70  H    0.111239
    71  H    0.109319
    72  H    0.105117
    73  H    0.104873
    74  H    0.078038
    75  H    0.141061
    76  H    0.102953
    77  H    0.101977
    78  H    0.104598
    79  H    0.126914
    80  H    0.110750
    81  H    0.080834
    82  H    0.066119
    83  H    0.079820
    84  H    0.092858
    85  H    0.075012
    86  H    0.074407
    87  H    0.115960
    88  H    0.080910
    89  H    0.129005
    90  H    0.102920
    91  H    0.109416
    92  H    0.115737
    93  H    0.077248
    94  H    0.074894
    95  H    0.082148
    96  H    0.074443
 Sum of Mulliken charges =  -0.00000

 Dipole moment (field-independent basis, Debye):
    X=             -0.2297    Y=              0.6575    Z=              0.2828  Tot=              0.7516
 Quadrupole moment (field-independent basis, Debye-Ang):
   XX=           -222.3668   YY=           -235.2769   ZZ=           -254.6960
   XY=              2.2649   XZ=              4.0098   YZ=             -2.7744

 Normal termination of Gaussian 16 at Mon Jul 29 17:38:31 2019.
