 Gaussian 16, Revision A.03,
 Gaussian 16:  ES64L-G16RevA.03 25-Dec-2016

 ---------------------------------
 # td=(NStates=1) B3LYP/6-31G(d,p)
 ---------------------------------

 --
 TD
 --
 Symbolic Z-matrix:
 Charge =  0 Multiplicity = 1

                         Standard orientation:
 ---------------------------------------------------------------------
 Center     Atomic      Atomic             Coordinates (Angstroms)
 Number     Number       Type             X           Y           Z
 ---------------------------------------------------------------------
      1          6           0      -12.117597    0.477977    0.866742
      2          6           0       12.093965   -0.095601   -0.749796
      3          6           0      -13.307467   -0.493789    0.736704
      4          6           0       12.928472    1.038978   -1.302005
      5          6           0      -13.053676   -1.933973    0.542373
      6          6           0       13.262978    2.127464   -0.201012
      7          6           0      -10.990996    0.040922   -0.115660
      8          6           0       10.944365    0.353524    0.266449
      9          6           0      -12.149385   -2.192790   -0.724583
     10          6           0       12.045086    2.631381    0.442809
     11          6           0      -11.068977   -1.137320   -0.834701
     12          6           0       10.955562    1.704607    0.676362
     13          6           0      -11.597057    0.502094    2.288992
     14          6           0      -12.583092    1.843251    0.404024
     15          6           0       13.181800   -1.063622    0.064021
     16          6           0       11.555498   -1.018365   -1.933543
     17          6           0       -9.817618    0.962334   -0.381247
     18          6           0        9.885773   -0.514471    0.347372
     19          6           0      -10.091457   -1.598920   -1.904594
     20          6           0        9.989570    2.147548    1.583189
     21          6           0       -8.626994    0.535131   -0.372279
     22          6           0        8.582570   -0.185772    0.323626
     23          6           0       -7.468581    1.371795   -0.411024
     24          6           0        7.534406   -1.250425    0.367154
     25          6           0       -7.569078    2.818071   -0.695072
     26          6           0        7.994669   -2.738719    0.754086
     27          6           0       -6.263367    0.809833   -0.248426
     28          6           0        6.111022   -0.832555    0.330618
     29          6           0       -4.942881    1.397430   -0.330424
     30          6           0        5.085043   -1.684485    0.542583
     31          6           0       -3.666466    0.705644   -0.316366
     32          6           0        3.710207   -1.258119    0.367310
     33          6           0       -2.383841    1.386322   -0.343754
     34          6           0        2.507572   -1.848341    0.353947
     35          6           0       -2.385568    2.858452   -0.637265
     36          6           0        2.479538   -3.338696    0.488909
     37          6           0       -1.208970    0.651035   -0.282391
     38          6           0        1.411242   -1.061830    0.167140
     39          6           0       -1.162775   -0.726067   -0.009478
     40          6           0       -0.025535   -1.554927    0.083776
     41          1           0      -14.009781   -0.058059   -0.085036
     42          1           0      -14.057197   -0.389821    1.492043
     43          1           0       12.405749    1.427517   -2.059181
     44          1           0       13.788488    0.859980   -1.926843
     45          1           0      -13.950876   -2.437651    0.256150
     46          1           0      -12.607927   -2.217939    1.480549
     47          1           0       13.822753    2.805454   -0.594182
     48          1           0       13.924281    1.611620    0.623195
     49          1           0      -12.738400   -2.426491   -1.637361
     50          1           0      -11.698951   -3.262682   -0.804662
     51          1           0       11.620560    3.689396   -0.117007
     52          1           0       12.184014    3.121830    1.514000
     53          1           0      -11.270768   -0.290505    2.732277
     54          1           0      -12.601761    0.807461    3.073424
     55          1           0      -10.843466    1.322651    2.533264
     56          1           0      -12.662627    1.679368   -0.618564
     57          1           0      -11.778141    2.545008    0.600283
     58          1           0      -13.446626    2.325397    0.890504
     59          1           0       13.517440   -0.471955    0.908767
     60          1           0       14.031742   -1.457263   -0.600581
     61          1           0       12.506472   -1.902668    0.635035
     62          1           0       10.757966   -0.338868   -2.622530
     63          1           0       10.822318   -1.887061   -1.609550
     64          1           0       12.371067   -1.358392   -2.647658
     65          1           0       -9.977028    2.003313   -0.689812
     66          1           0       10.078739   -1.590537    0.411466
     67          1           0       -9.329333   -0.918868   -2.232918
     68          1           0      -10.607236   -1.776485   -2.843305
     69          1           0       -9.747879   -2.524631   -1.428663
     70          1           0        9.377094    1.335966    1.880565
     71          1           0        9.241716    2.753588    0.939497
     72          1           0       10.332315    2.685720    2.487969
     73          1           0       -8.639606   -0.614143   -0.052295
     74          1           0        8.286997    0.888319   -0.190603
     75          1           0       -7.926693    2.957150   -1.630782
     76          1           0       -6.353000    3.077426   -0.815718
     77          1           0       -7.944273    3.426655    0.245788
     78          1           0        8.290275   -2.901972    1.869991
     79          1           0        8.763063   -2.647613   -0.111563
     80          1           0        7.273932   -3.373052    0.677148
     81          1           0       -6.237638   -0.222331   -0.323634
     82          1           0        5.809947    0.177338    0.081591
     83          1           0       -4.789249    2.418330   -0.470584
     84          1           0        5.415727   -2.735191    0.797533
     85          1           0       -3.873505   -0.332114   -0.134766
     86          1           0        3.791069   -0.350723   -0.165666
     87          1           0       -2.623902    2.985070   -1.569750
     88          1           0       -1.415964    3.045630   -0.523636
     89          1           0       -3.087273    3.583938   -0.123179
     90          1           0        3.137089   -3.674580    1.288249
     91          1           0        3.172757   -3.776774   -0.351090
     92          1           0        1.578384   -3.938907    0.514905
     93          1           0       -0.439777    1.140580   -0.389971
     94          1           0        1.740417    0.145554    0.086992
     95          1           0       -1.916860   -1.318016    0.002308
     96          1           0       -0.134419   -2.634994    0.120207
 ---------------------------------------------------------------------

 SCF Done:  E(RB3LYP) =  -1557.45480848     A.U. after   17 cycles

 Excitation energies and oscillator strengths:

 Excited State   1:      Singlet-A      1.9102 eV  649.07 nm  f=3.0334  <S**2>=0.000
     148 ->149         0.70774
     148 ->150         0.10957
     148 <-149        -0.14720
 This state for optimization and/or second-order correction.
 Total Energy, E(TD-HF/TD-DFT) =  -1557.38461052
 Copying the excited state density for this state as the 1-particle RhoCI density.

 The electronic state is 1-A.
 Alpha  occ. eigenvalues --  -10.21524 -10.20954 -10.20396 -10.20288 -10.20061
 Alpha  occ. eigenvalues --  -10.20016 -10.19907 -10.19860 -10.19814 -10.19448
 Alpha  occ. eigenvalues --  -10.19276 -10.19216 -10.19164 -10.19152 -10.19118
 Alpha  occ. eigenvalues --  -10.19055 -10.18951 -10.18944 -10.18853 -10.18760
 Alpha  occ. eigenvalues --  -10.18697 -10.18607 -10.18583 -10.18548 -10.17842
 Alpha  occ. eigenvalues --  -10.17816 -10.17708 -10.17700 -10.17690 -10.17598
 Alpha  occ. eigenvalues --  -10.17593 -10.17558 -10.17499 -10.17236 -10.17149
 Alpha  occ. eigenvalues --  -10.17019 -10.16724 -10.16687 -10.16562 -10.16280
 Alpha  occ. eigenvalues --   -0.85406  -0.85193  -0.83816  -0.83521  -0.82872
 Alpha  occ. eigenvalues --   -0.81143  -0.79053  -0.78868  -0.78562  -0.78230
 Alpha  occ. eigenvalues --   -0.77260  -0.75169  -0.74888  -0.72876  -0.72154
 Alpha  occ. eigenvalues --   -0.70656  -0.68815  -0.68757  -0.68460  -0.68254
 Alpha  occ. eigenvalues --   -0.67669  -0.66964  -0.66898  -0.65869  -0.65402
 Alpha  occ. eigenvalues --   -0.63046  -0.62553  -0.60347  -0.59604  -0.57072
 Alpha  occ. eigenvalues --   -0.56460  -0.55561  -0.55186  -0.54031  -0.53550
 Alpha  occ. eigenvalues --   -0.52874  -0.52062  -0.51419  -0.50477  -0.49673
 Alpha  occ. eigenvalues --   -0.48342  -0.47904  -0.47515  -0.46655  -0.46490
 Alpha  occ. eigenvalues --   -0.45686  -0.45644  -0.45372  -0.44892  -0.44622
 Alpha  occ. eigenvalues --   -0.44078  -0.43617  -0.43470  -0.42845  -0.42735
 Alpha  occ. eigenvalues --   -0.42344  -0.42343  -0.41724  -0.41218  -0.40625
 Alpha  occ. eigenvalues --   -0.40525  -0.40350  -0.40286  -0.39987  -0.39597
 Alpha  occ. eigenvalues --   -0.39275  -0.39018  -0.38517  -0.38500  -0.38079
 Alpha  occ. eigenvalues --   -0.38021  -0.37511  -0.37139  -0.36738  -0.36409
 Alpha  occ. eigenvalues --   -0.35983  -0.35761  -0.35672  -0.35322  -0.35277
 Alpha  occ. eigenvalues --   -0.35103  -0.34528  -0.34108  -0.33870  -0.33567
 Alpha  occ. eigenvalues --   -0.33219  -0.33190  -0.32588  -0.32208  -0.32143
 Alpha  occ. eigenvalues --   -0.32107  -0.31843  -0.31676  -0.31371  -0.30936
 Alpha  occ. eigenvalues --   -0.30661  -0.29944  -0.29669  -0.29436  -0.28966
 Alpha  occ. eigenvalues --   -0.28106  -0.27630  -0.26561  -0.24043  -0.22295
 Alpha  occ. eigenvalues --   -0.21115  -0.18438  -0.15352
 Alpha virt. eigenvalues --   -0.08749  -0.05533  -0.01673   0.00331   0.02043
 Alpha virt. eigenvalues --    0.04228   0.05013   0.06354   0.07180   0.07728
 Alpha virt. eigenvalues --    0.07772   0.08059   0.08600   0.09010   0.09163

 Mulliken charges:
               1
     1  C    0.009994
     2  C    0.010203
     3  C   -0.172347
     4  C   -0.178162
     5  C   -0.180015
     6  C   -0.168784
     7  C    0.011104
     8  C    0.072378
     9  C   -0.228887
    10  C   -0.207124
    11  C    0.070783
    12  C    0.107055
    13  C   -0.269594
    14  C   -0.302088
    15  C   -0.295909
    16  C   -0.290649
    17  C   -0.116796
    18  C   -0.135331
    19  C   -0.358159
    20  C   -0.373190
    21  C   -0.073436
    22  C   -0.082248
    23  C    0.107600
    24  C   -0.004628
    25  C   -0.364066
    26  C   -0.328223
    27  C   -0.109466
    28  C   -0.096293
    29  C   -0.100849
    30  C   -0.061771
    31  C   -0.114035
    32  C   -0.179135
    33  C    0.069755
    34  C    0.213931
    35  C   -0.367512
    36  C   -0.390130
    37  C   -0.052392
    38  C   -0.142072
    39  C   -0.030861
    40  C   -0.147831
    41  H    0.064853
    42  H    0.092836
    43  H    0.101472
    44  H    0.085542
    45  H    0.096054
    46  H    0.104762
    47  H    0.097740
    48  H    0.085663
    49  H    0.105152
    50  H    0.079415
    51  H    0.063986
    52  H    0.085831
    53  H    0.118246
    54  H    0.033681
    55  H    0.094341
    56  H    0.113896
    57  H    0.096304
    58  H    0.098600
    59  H    0.107030
    60  H    0.095825
    61  H    0.068666
    62  H    0.061422
    63  H    0.090129
    64  H    0.099272
    65  H    0.086620
    66  H    0.090076
    67  H    0.116757
    68  H    0.106139
    69  H    0.116266
    70  H    0.132544
    71  H    0.099904
    72  H    0.099991
    73  H    0.079192
    74  H    0.081658
    75  H    0.138001
    76  H    0.076725
    77  H    0.114435
    78  H    0.115430
    79  H    0.126990
    80  H    0.116162
    81  H    0.073393
    82  H    0.074558
    83  H    0.067694
    84  H    0.060952
    85  H    0.077714
    86  H    0.080757
    87  H    0.146267
    88  H    0.111236
    89  H    0.114136
    90  H    0.124406
    91  H    0.105518
    92  H    0.114153
    93  H    0.041293
    94  H    0.065093
    95  H    0.067433
    96  H    0.086966
 Sum of Mulliken charges =  -0.00000

 Dipole moment (field-independent basis, Debye):
    X=             -0.4073    Y=              0.1730    Z=             -1.0863  Tot=              1.1729
 Quadrupole moment (field-independent basis, Debye-Ang):
   XX=           -220.4632   YY=           -233.8741   ZZ=           -253.4576
   XY=              8.8384   XZ=              1.8878   YZ=             -3.0923

 Normal termination of Gaussian 16 at Sun Jul 28 20:55:20 2019.
