 Gaussian 16, Revision A.03,
 Gaussian 16:  ES64L-G16RevA.03 25-Dec-2016

 ---------------------------------
 # td=(NStates=1) B3LYP/6-31G(d,p)
 ---------------------------------

 --
 TD
 --
 Symbolic Z-matrix:
 Charge =  0 Multiplicity = 1

                         Standard orientation:
 ---------------------------------------------------------------------
 Center     Atomic      Atomic             Coordinates (Angstroms)
 Number     Number       Type             X           Y           Z
 ---------------------------------------------------------------------
      1          6           0      -12.145135   -0.594224   -0.694190
      2          6           0       12.097648   -0.061613    0.872813
      3          6           0      -13.422443    0.298160   -0.487961
      4          6           0       13.063099   -1.244951    1.239730
      5          6           0      -13.131556    1.828055   -0.619928
      6          6           0       13.368189   -2.044556   -0.046848
      7          6           0      -10.917678   -0.004811    0.222734
      8          6           0       10.879233   -0.437303   -0.090838
      9          6           0      -12.329065    2.076126    0.671364
     10          6           0       12.100608   -2.688613   -0.654818
     11          6           0      -11.021839    1.211509    0.934185
     12          6           0       10.866756   -1.672106   -0.640179
     13          6           0      -11.613224   -0.599560   -2.192403
     14          6           0      -12.600346   -1.946378   -0.129338
     15          6           0       12.880565    1.002596    0.009888
     16          6           0       11.584906    0.621301    2.131941
     17          6           0       -9.875259   -0.930007    0.364085
     18          6           0        9.924885    0.585948   -0.241092
     19          6           0      -10.166438    1.664375    1.953769
     20          6           0        9.793749   -2.234589   -1.597667
     21          6           0       -8.563241   -0.621533    0.225263
     22          6           0        8.591627    0.300406   -0.272543
     23          6           0       -7.449136   -1.438710    0.261049
     24          6           0        7.507569    1.307440   -0.350378
     25          6           0       -7.626879   -2.861483    0.415965
     26          6           0        7.951426    2.842953   -0.519299
     27          6           0       -6.127290   -0.841876    0.171485
     28          6           0        6.294175    0.951531   -0.136646
     29          6           0       -4.769978   -1.372863    0.233344
     30          6           0        4.974170    1.704020   -0.281500
     31          6           0       -3.592399   -0.642431    0.219421
     32          6           0        3.725760    1.240341   -0.193227
     33          6           0       -2.337813   -1.251505    0.313874
     34          6           0        2.532229    1.911813   -0.494519
     35          6           0       -2.191980   -2.650246    0.709167
     36          6           0        2.628067    3.378706   -0.867762
     37          6           0       -1.151359   -0.445277    0.152665
     38          6           0        1.395419    1.265943   -0.214373
     39          6           0       -1.102861    1.014503   -0.206407
     40          6           0        0.034879    1.768240   -0.225592
     41          1           0      -13.945982    0.128149    0.364046
     42          1           0      -14.125027    0.051503   -1.248888
     43          1           0       12.599730   -1.967081    1.839661
     44          1           0       13.726711   -0.832661    1.662314
     45          1           0      -14.081665    2.507936   -0.759736
     46          1           0      -12.300805    1.943774   -1.443100
     47          1           0       14.032959   -2.765049    0.322224
     48          1           0       13.878638   -1.434169   -0.749965
     49          1           0      -12.939368    1.739205    1.633741
     50          1           0      -12.054595    3.224971    0.724185
     51          1           0       11.786652   -3.579152   -0.097827
     52          1           0       12.286953   -3.017250   -1.618637
     53          1           0      -11.513677    0.392548   -2.619456
     54          1           0      -12.399033   -1.044696   -2.879240
     55          1           0      -10.760089   -1.070316   -2.316547
     56          1           0      -12.919016   -2.046714    0.880053
     57          1           0      -11.946223   -2.992769   -0.264208
     58          1           0      -13.504575   -2.366998   -0.638725
     59          1           0       13.211894    0.668565   -0.998092
     60          1           0       13.671363    1.395145    0.414661
     61          1           0       12.212983    1.837551   -0.318455
     62          1           0       10.930650   -0.185915    2.729430
     63          1           0       11.051629    1.591411    2.182667
     64          1           0       12.339273    0.860320    2.768422
     65          1           0      -10.321028   -1.987646    0.538229
     66          1           0       10.316739    1.572605   -0.185287
     67          1           0       -9.344745    0.960701    2.199835
     68          1           0      -10.689881    2.047141    2.711745
     69          1           0       -9.607505    2.597078    1.563186
     70          1           0        9.082341   -1.417734   -1.833433
     71          1           0        9.177336   -2.791001   -0.848385
     72          1           0       10.167377   -2.812642   -2.518396
     73          1           0       -8.289662    0.502482   -0.049212
     74          1           0        8.138924   -0.690489   -0.054268
     75          1           0       -7.944997   -2.990732    1.507633
     76          1           0       -6.757078   -3.384746    0.390392
     77          1           0       -8.332068   -3.053643   -0.285358
     78          1           0        8.168489    2.967838   -1.630752
     79          1           0        8.492443    3.214392    0.311532
     80          1           0        7.101815    3.499507   -0.525505
     81          1           0       -6.190948    0.231246    0.094574
     82          1           0        6.069726   -0.138374   -0.079350
     83          1           0       -4.567912   -2.497977    0.471778
     84          1           0        4.978484    2.686225   -0.642862
     85          1           0       -3.463767    0.502123   -0.132334
     86          1           0        3.507320    0.230618    0.306845
     87          1           0       -2.687290   -3.057758    1.531952
     88          1           0       -1.153200   -2.947703    1.015442
     89          1           0       -2.371706   -3.320669    0.025643
     90          1           0        3.442374    3.486400   -1.593972
     91          1           0        2.863365    3.854344    0.006380
     92          1           0        1.509391    3.868730   -1.213580
     93          1           0       -0.132455   -0.839065    0.175837
     94          1           0        1.533163    0.106213    0.019473
     95          1           0       -2.046655    1.520993   -0.119289
     96          1           0       -0.242020    2.707260   -0.398441
 ---------------------------------------------------------------------

 SCF Done:  E(RB3LYP) =  -1557.55933716     A.U. after   16 cycles

 Excitation energies and oscillator strengths:

 Excited State   1:      Singlet-A      2.1726 eV  570.67 nm  f=2.8640  <S**2>=0.000
     148 ->149         0.69849
     148 <-149        -0.10750
 This state for optimization and/or second-order correction.
 Total Energy, E(TD-HF/TD-DFT) =  -1557.47949579
 Copying the excited state density for this state as the 1-particle RhoCI density.

 The electronic state is 1-A.
 Alpha  occ. eigenvalues --  -10.21788 -10.20122 -10.20098 -10.20026 -10.19920
 Alpha  occ. eigenvalues --  -10.19827 -10.19613 -10.19354 -10.19290 -10.19241
 Alpha  occ. eigenvalues --  -10.19238 -10.19167 -10.19062 -10.19007 -10.18967
 Alpha  occ. eigenvalues --  -10.18956 -10.18812 -10.18758 -10.18561 -10.18541
 Alpha  occ. eigenvalues --  -10.18402 -10.18339 -10.18290 -10.18261 -10.18209
 Alpha  occ. eigenvalues --  -10.18168 -10.17913 -10.17903 -10.17891 -10.17807
 Alpha  occ. eigenvalues --  -10.17473 -10.17043 -10.16978 -10.16968 -10.16875
 Alpha  occ. eigenvalues --  -10.16685 -10.16302 -10.16246 -10.15977 -10.15285
 Alpha  occ. eigenvalues --   -0.84360  -0.84246  -0.83782  -0.82856  -0.82090
 Alpha  occ. eigenvalues --   -0.81447  -0.78822  -0.78697  -0.77810  -0.77136
 Alpha  occ. eigenvalues --   -0.76937  -0.74692  -0.73904  -0.72983  -0.71868
 Alpha  occ. eigenvalues --   -0.70228  -0.69266  -0.69075  -0.68806  -0.68638
 Alpha  occ. eigenvalues --   -0.68259  -0.67791  -0.67048  -0.66522  -0.65858
 Alpha  occ. eigenvalues --   -0.62493  -0.61579  -0.60011  -0.58706  -0.57857
 Alpha  occ. eigenvalues --   -0.56518  -0.56129  -0.55762  -0.54049  -0.52129
 Alpha  occ. eigenvalues --   -0.52053  -0.51302  -0.49679  -0.49535  -0.48686
 Alpha  occ. eigenvalues --   -0.48499  -0.47557  -0.47286  -0.46459  -0.46010
 Alpha  occ. eigenvalues --   -0.45477  -0.44831  -0.44601  -0.44365  -0.44174
 Alpha  occ. eigenvalues --   -0.43563  -0.43351  -0.43111  -0.42906  -0.42635
 Alpha  occ. eigenvalues --   -0.42450  -0.42309  -0.42071  -0.41849  -0.41670
 Alpha  occ. eigenvalues --   -0.41353  -0.41073  -0.40508  -0.40375  -0.39551
 Alpha  occ. eigenvalues --   -0.39208  -0.38970  -0.38888  -0.38746  -0.38143
 Alpha  occ. eigenvalues --   -0.37477  -0.37400  -0.37194  -0.37030  -0.36637
 Alpha  occ. eigenvalues --   -0.36253  -0.35893  -0.35856  -0.35571  -0.34582
 Alpha  occ. eigenvalues --   -0.34376  -0.34266  -0.33952  -0.33775  -0.33599
 Alpha  occ. eigenvalues --   -0.33479  -0.32971  -0.32905  -0.32705  -0.32342
 Alpha  occ. eigenvalues --   -0.32263  -0.31675  -0.31479  -0.31356  -0.31093
 Alpha  occ. eigenvalues --   -0.30964  -0.30399  -0.30147  -0.29226  -0.28811
 Alpha  occ. eigenvalues --   -0.28294  -0.27312  -0.25762  -0.24332  -0.22300
 Alpha  occ. eigenvalues --   -0.20564  -0.18465  -0.15974
 Alpha virt. eigenvalues --   -0.07894  -0.04682  -0.01622   0.00804   0.03331
 Alpha virt. eigenvalues --    0.05238   0.06978   0.07600   0.08059   0.08162
 Alpha virt. eigenvalues --    0.08473   0.08633   0.08946   0.09254   0.09643

 Mulliken charges:
               1
     1  C    0.017391
     2  C   -0.024709
     3  C   -0.168775
     4  C   -0.124267
     5  C   -0.189789
     6  C   -0.206691
     7  C    0.029841
     8  C    0.109092
     9  C   -0.207487
    10  C   -0.214449
    11  C    0.082014
    12  C    0.004027
    13  C   -0.303814
    14  C   -0.325940
    15  C   -0.314727
    16  C   -0.302964
    17  C   -0.137646
    18  C   -0.108199
    19  C   -0.360084
    20  C   -0.363901
    21  C   -0.108301
    22  C   -0.123728
    23  C    0.116791
    24  C    0.133849
    25  C   -0.350626
    26  C   -0.381187
    27  C   -0.137436
    28  C   -0.145958
    29  C   -0.110046
    30  C   -0.110807
    31  C   -0.091128
    32  C   -0.091486
    33  C    0.133701
    34  C    0.153452
    35  C   -0.399379
    36  C   -0.367701
    37  C   -0.137174
    38  C   -0.140040
    39  C   -0.098776
    40  C   -0.075620
    41  H    0.104675
    42  H    0.086670
    43  H    0.093837
    44  H    0.079641
    45  H    0.088482
    46  H    0.096453
    47  H    0.089495
    48  H    0.101830
    49  H    0.086365
    50  H    0.072205
    51  H    0.100294
    52  H    0.109651
    53  H    0.107562
    54  H    0.086122
    55  H    0.123946
    56  H    0.123426
    57  H    0.065362
    58  H    0.098570
    59  H    0.097946
    60  H    0.102892
    61  H    0.090390
    62  H    0.079303
    63  H    0.095406
    64  H    0.103770
    65  H    0.092178
    66  H    0.096163
    67  H    0.123552
    68  H    0.122223
    69  H    0.099558
    70  H    0.116186
    71  H    0.117195
    72  H    0.099438
    73  H    0.073757
    74  H    0.085767
    75  H    0.111104
    76  H    0.112941
    77  H    0.126714
    78  H    0.119297
    79  H    0.130633
    80  H    0.108087
    81  H    0.068341
    82  H    0.068341
    83  H    0.075570
    84  H    0.060873
    85  H    0.071046
    86  H    0.065083
    87  H    0.126210
    88  H    0.099892
    89  H    0.136883
    90  H    0.122579
    91  H    0.146887
    92  H    0.080543
    93  H    0.077200
    94  H    0.072704
    95  H    0.079764
    96  H    0.071679
 Sum of Mulliken charges =  -0.00000

 Dipole moment (field-independent basis, Debye):
    X=             -0.6383    Y=             -0.0243    Z=              0.5340  Tot=              0.8326
 Quadrupole moment (field-independent basis, Debye-Ang):
   XX=           -196.0918   YY=           -232.1151   ZZ=           -252.9323
   XY=              2.4234   XZ=             -0.5060   YZ=             -2.3110

 Normal termination of Gaussian 16 at Thu Aug  1 10:32:47 2019.
