 Gaussian 16, Revision A.03,
 Gaussian 16:  ES64L-G16RevA.03 25-Dec-2016

 ---------------------------------
 # td=(NStates=1) B3LYP/6-31G(d,p)
 ---------------------------------

 --
 TD
 --
 Symbolic Z-matrix:
 Charge =  0 Multiplicity = 1

                         Standard orientation:
 ---------------------------------------------------------------------
 Center     Atomic      Atomic             Coordinates (Angstroms)
 Number     Number       Type             X           Y           Z
 ---------------------------------------------------------------------
      1          6           0       12.133976    0.468107   -0.783083
      2          6           0      -12.108918   -0.156984    0.833744
      3          6           0       13.435356   -0.432855   -0.681904
      4          6           0      -13.083893    1.054886    1.326349
      5          6           0       13.154928   -1.964583   -0.522288
      6          6           0      -13.468453    2.029615    0.226684
      7          6           0       11.041495    0.026857    0.237404
      8          6           0      -11.013185    0.381612   -0.169430
      9          6           0       12.374167   -2.167487    0.715883
     10          6           0      -12.216144    2.650840   -0.520242
     11          6           0       11.223144   -1.139183    0.986341
     12          6           0      -11.079755    1.729957   -0.680450
     13          6           0       11.569640    0.294396   -2.181846
     14          6           0       12.627139    1.901132   -0.727860
     15          6           0      -12.983496   -1.147548   -0.012770
     16          6           0      -11.444920   -0.851488    1.981426
     17          6           0        9.905635    0.927614    0.294323
     18          6           0       -9.890227   -0.570253   -0.327929
     19          6           0       10.295574   -1.440720    2.213367
     20          6           0       -9.909712    2.260991   -1.639480
     21          6           0        8.583410    0.499710    0.304012
     22          6           0       -8.560949   -0.299278   -0.188861
     23          6           0        7.436759    1.340003    0.521102
     24          6           0       -7.519784   -1.330698   -0.450743
     25          6           0        7.636628    2.839057    0.505533
     26          6           0       -7.979991   -2.735882   -0.741561
     27          6           0        6.197213    0.834248    0.334708
     28          6           0       -6.223416   -0.860170   -0.275447
     29          6           0        4.865243    1.502792    0.569271
     30          6           0       -5.048897   -1.625563   -0.377754
     31          6           0        3.680663    0.795380    0.288986
     32          6           0       -3.769947   -1.123948   -0.111659
     33          6           0        2.356140    1.328927    0.279745
     34          6           0       -2.559177   -1.838451   -0.360375
     35          6           0        2.226254    2.794722    0.560005
     36          6           0       -2.562578   -3.345672   -0.736747
     37          6           0        1.196972    0.553163    0.173142
     38          6           0       -1.400017   -1.036699   -0.202517
     39          6           0        1.089903   -0.824106   -0.148867
     40          6           0       -0.142385   -1.499242   -0.289200
     41          1           0       13.867309   -0.055058    0.195215
     42          1           0       14.109923   -0.072564   -1.515461
     43          1           0      -12.597441    1.562334    2.198247
     44          1           0      -13.905697    0.465582    1.860970
     45          1           0       13.946041   -2.518726   -0.454380
     46          1           0       12.696270   -2.382334   -1.557666
     47          1           0      -14.035201    2.733854    0.530781
     48          1           0      -13.897010    1.512573   -0.565697
     49          1           0       12.936490   -2.108233    1.592854
     50          1           0       11.785924   -3.190151    0.826964
     51          1           0      -11.883489    3.311166    0.143603
     52          1           0      -12.426912    3.336747   -1.439804
     53          1           0       11.523906   -0.727964   -2.495846
     54          1           0       12.231965    0.669510   -2.993533
     55          1           0       10.638227    0.860417   -2.152634
     56          1           0       12.934242    2.244455    0.250817
     57          1           0       11.830514    2.459429   -1.143036
     58          1           0       13.494309    2.025785   -1.398218
     59          1           0      -13.440911   -0.618979   -0.746628
     60          1           0      -13.716657   -1.698271    0.751127
     61          1           0      -12.259521   -2.001767   -0.522971
     62          1           0      -10.879385   -0.363839    2.598242
     63          1           0      -10.797621   -1.668452    1.533661
     64          1           0      -12.324380   -1.363704    2.493227
     65          1           0       10.005511    2.133758    0.261860
     66          1           0      -10.219829   -1.560149   -0.733317
     67          1           0        9.701075   -0.592480    2.478049
     68          1           0       10.934950   -1.702631    3.058157
     69          1           0        9.627136   -2.420481    2.229612
     70          1           0       -9.312014    1.351913   -1.875818
     71          1           0       -9.335873    3.140055   -1.045203
     72          1           0      -10.383104    2.623065   -2.422303
     73          1           0        8.540872   -0.528744    0.197335
     74          1           0       -8.072602    0.595696   -0.152303
     75          1           0        8.391961    2.865657    1.569144
     76          1           0        6.697524    3.471478    0.738526
     77          1           0        8.243903    2.984310   -0.538641
     78          1           0       -8.556511   -2.731429   -1.538974
     79          1           0       -8.582283   -3.200438    0.031032
     80          1           0       -6.972503   -3.290913   -0.883038
     81          1           0        6.179898   -0.293426    0.318464
     82          1           0       -6.042353    0.165937   -0.000748
     83          1           0        5.088954    2.664274    0.743470
     84          1           0       -5.090453   -2.549430   -0.824921
     85          1           0        3.786420   -0.229193    0.018528
     86          1           0       -3.637266   -0.090043    0.166823
     87          1           0        2.562210    3.018621    1.584623
     88          1           0        1.052245    2.982739    0.667181
     89          1           0        2.568449    3.321632   -0.182016
     90          1           0       -3.111591   -3.416732   -1.761383
     91          1           0       -3.337159   -3.893525   -0.205150
     92          1           0       -1.627103   -3.759403   -0.570990
     93          1           0        0.300989    1.261963    0.315664
     94          1           0       -1.661867   -0.075050    0.045128
     95          1           0        2.010145   -1.182773   -0.298775
     96          1           0        0.033004   -2.415260   -0.705910
 ---------------------------------------------------------------------

 SCF Done:  E(RB3LYP) =  -1557.58411641     A.U. after   17 cycles

 Excitation energies and oscillator strengths:

 Excited State   1:      Singlet-A      1.9649 eV  631.01 nm  f=3.3175  <S**2>=0.000
     148 ->149         0.70955
     148 <-149        -0.14550
 This state for optimization and/or second-order correction.
 Total Energy, E(TD-HF/TD-DFT) =  -1557.51190915
 Copying the excited state density for this state as the 1-particle RhoCI density.

 The electronic state is 1-A.
 Alpha  occ. eigenvalues --  -10.21646 -10.20787 -10.20449 -10.20211 -10.19970
 Alpha  occ. eigenvalues --  -10.19965 -10.19909 -10.19255 -10.19242 -10.19219
 Alpha  occ. eigenvalues --  -10.19144 -10.19126 -10.19115 -10.19091 -10.18893
 Alpha  occ. eigenvalues --  -10.18892 -10.18820 -10.18815 -10.18799 -10.18690
 Alpha  occ. eigenvalues --  -10.18681 -10.18672 -10.18586 -10.18268 -10.18206
 Alpha  occ. eigenvalues --  -10.18187 -10.18136 -10.18046 -10.17973 -10.17940
 Alpha  occ. eigenvalues --  -10.17846 -10.17835 -10.17796 -10.17784 -10.17366
 Alpha  occ. eigenvalues --  -10.17356 -10.16756 -10.16315 -10.16184 -10.15699
 Alpha  occ. eigenvalues --   -0.84221  -0.83900  -0.83561  -0.82718  -0.82099
 Alpha  occ. eigenvalues --   -0.81467  -0.78871  -0.78376  -0.78330  -0.77102
 Alpha  occ. eigenvalues --   -0.76519  -0.74913  -0.73825  -0.72169  -0.71457
 Alpha  occ. eigenvalues --   -0.71003  -0.69678  -0.68322  -0.67754  -0.67652
 Alpha  occ. eigenvalues --   -0.67214  -0.66926  -0.66857  -0.66721  -0.65440
 Alpha  occ. eigenvalues --   -0.63107  -0.62172  -0.60868  -0.59589  -0.57573
 Alpha  occ. eigenvalues --   -0.56207  -0.55403  -0.54559  -0.54416  -0.53757
 Alpha  occ. eigenvalues --   -0.52552  -0.51029  -0.50542  -0.49961  -0.48640
 Alpha  occ. eigenvalues --   -0.48217  -0.47689  -0.47124  -0.46651  -0.46173
 Alpha  occ. eigenvalues --   -0.45906  -0.45425  -0.44877  -0.44637  -0.44417
 Alpha  occ. eigenvalues --   -0.44040  -0.43807  -0.43264  -0.42812  -0.42445
 Alpha  occ. eigenvalues --   -0.41871  -0.41632  -0.41547  -0.41360  -0.41166
 Alpha  occ. eigenvalues --   -0.40766  -0.40564  -0.40078  -0.39791  -0.39741
 Alpha  occ. eigenvalues --   -0.39673  -0.39213  -0.38932  -0.38701  -0.38070
 Alpha  occ. eigenvalues --   -0.37886  -0.37651  -0.37288  -0.36921  -0.36340
 Alpha  occ. eigenvalues --   -0.36255  -0.36194  -0.35907  -0.35563  -0.35311
 Alpha  occ. eigenvalues --   -0.35238  -0.34989  -0.34688  -0.34578  -0.34050
 Alpha  occ. eigenvalues --   -0.33651  -0.33602  -0.33150  -0.33074  -0.32563
 Alpha  occ. eigenvalues --   -0.32142  -0.32073  -0.31532  -0.31422  -0.30879
 Alpha  occ. eigenvalues --   -0.30380  -0.30173  -0.30013  -0.28974  -0.28349
 Alpha  occ. eigenvalues --   -0.27946  -0.27274  -0.25954  -0.23735  -0.22069
 Alpha  occ. eigenvalues --   -0.20447  -0.18745  -0.15562
 Alpha virt. eigenvalues --   -0.08765  -0.04889  -0.01848   0.00477   0.02254
 Alpha virt. eigenvalues --    0.04081   0.05491   0.05909   0.06721   0.07464
 Alpha virt. eigenvalues --    0.08162   0.08415   0.08688   0.09040   0.09236

 Mulliken charges:
               1
     1  C   -0.022119
     2  C   -0.013896
     3  C   -0.188097
     4  C   -0.183249
     5  C   -0.160848
     6  C   -0.177221
     7  C    0.079904
     8  C    0.051539
     9  C   -0.219031
    10  C   -0.241621
    11  C    0.040604
    12  C    0.037181
    13  C   -0.286152
    14  C   -0.294707
    15  C   -0.271902
    16  C   -0.275494
    17  C   -0.167458
    18  C   -0.179292
    19  C   -0.364492
    20  C   -0.344740
    21  C   -0.071849
    22  C   -0.055016
    23  C    0.102031
    24  C    0.089953
    25  C   -0.338071
    26  C   -0.366999
    27  C   -0.120025
    28  C   -0.122434
    29  C   -0.095486
    30  C   -0.080270
    31  C   -0.104663
    32  C   -0.127297
    33  C    0.075633
    34  C    0.118233
    35  C   -0.355228
    36  C   -0.376042
    37  C   -0.095860
    38  C   -0.079611
    39  C   -0.087478
    40  C   -0.100736
    41  H    0.095711
    42  H    0.075772
    43  H    0.085931
    44  H    0.080604
    45  H    0.104248
    46  H    0.073909
    47  H    0.098293
    48  H    0.112049
    49  H    0.121636
    50  H    0.090894
    51  H    0.130849
    52  H    0.086956
    53  H    0.099013
    54  H    0.081160
    55  H    0.100238
    56  H    0.099440
    57  H    0.099510
    58  H    0.096924
    59  H    0.119513
    60  H    0.076363
    61  H    0.067402
    62  H    0.115433
    63  H    0.093123
    64  H    0.076920
    65  H    0.078191
    66  H    0.090676
    67  H    0.129928
    68  H    0.104432
    69  H    0.088010
    70  H    0.118343
    71  H    0.087509
    72  H    0.119603
    73  H    0.086093
    74  H    0.082075
    75  H    0.081910
    76  H    0.106525
    77  H    0.121215
    78  H    0.137553
    79  H    0.129558
    80  H    0.092556
    81  H    0.067901
    82  H    0.078201
    83  H    0.071998
    84  H    0.067178
    85  H    0.085230
    86  H    0.074797
    87  H    0.124757
    88  H    0.074033
    89  H    0.135743
    90  H    0.116470
    91  H    0.126750
    92  H    0.123454
    93  H    0.063787
    94  H    0.075531
    95  H    0.072799
    96  H    0.077609
 Sum of Mulliken charges =  -0.00000

 Dipole moment (field-independent basis, Debye):
    X=             -1.3108    Y=             -0.1479    Z=             -0.2007  Tot=              1.3343
 Quadrupole moment (field-independent basis, Debye-Ang):
   XX=           -215.8348   YY=           -234.3034   ZZ=           -253.7131
   XY=            -11.0785   XZ=              4.6049   YZ=              2.4629

 Normal termination of Gaussian 16 at Wed Jul 31 15:53:37 2019.
