 Gaussian 16, Revision A.03,
 Gaussian 16:  ES64L-G16RevA.03 25-Dec-2016

 ---------------------------------
 # td=(NStates=1) B3LYP/6-31G(d,p)
 ---------------------------------

 --
 TD
 --
 Symbolic Z-matrix:
 Charge =  0 Multiplicity = 1

                         Standard orientation:
 ---------------------------------------------------------------------
 Center     Atomic      Atomic             Coordinates (Angstroms)
 Number     Number       Type             X           Y           Z
 ---------------------------------------------------------------------
      1          6           0       12.098856    0.486896   -0.759126
      2          6           0      -12.032833   -0.042448    0.801347
      3          6           0       13.277122   -0.439403   -0.682307
      4          6           0      -13.057247    1.157932    1.243657
      5          6           0       13.056117   -1.867151   -0.381293
      6          6           0      -13.263771    2.231314    0.137521
      7          6           0       10.989588    0.171774    0.248443
      8          6           0      -10.891966    0.482815   -0.024670
      9          6           0       12.360115   -1.884920    0.941292
     10          6           0      -11.977085    2.702981   -0.309839
     11          6           0       11.168220   -0.921041    1.103036
     12          6           0      -10.867153    1.718013   -0.609570
     13          6           0       11.366222    0.208454   -2.168971
     14          6           0       12.580813    1.888662   -0.680179
     15          6           0      -12.996836   -1.053931   -0.009350
     16          6           0      -11.567677   -0.715018    2.049042
     17          6           0        9.833864    1.076909    0.390483
     18          6           0       -9.877913   -0.416742   -0.281166
     19          6           0       10.251504   -1.253853    2.229075
     20          6           0       -9.932539    2.226238   -1.555769
     21          6           0        8.592911    0.588171    0.361333
     22          6           0       -8.551130   -0.355315   -0.156591
     23          6           0        7.375457    1.362525    0.255595
     24          6           0       -7.522283   -1.304023   -0.388612
     25          6           0        7.626644    2.912917    0.307223
     26          6           0       -7.823411   -2.709586   -0.788829
     27          6           0        6.167653    0.712924    0.151962
     28          6           0       -6.213291   -0.905553   -0.150290
     29          6           0        4.874669    1.296882    0.167705
     30          6           0       -4.995968   -1.746384   -0.516450
     31          6           0        3.696472    0.611418    0.286819
     32          6           0       -3.793456   -1.251794   -0.274058
     33          6           0        2.263486    1.204793    0.259098
     34          6           0       -2.508224   -1.953734   -0.446463
     35          6           0        2.189996    2.601487    0.541973
     36          6           0       -2.725394   -3.455421   -0.637027
     37          6           0        1.195630    0.362708    0.085945
     38          6           0       -1.346650   -1.283058   -0.256176
     39          6           0        1.207550   -1.067952   -0.082685
     40          6           0        0.024455   -1.786796   -0.374370
     41          1           0       13.961810   -0.026842    0.135680
     42          1           0       13.866536   -0.347321   -1.687990
     43          1           0      -12.464429    1.671798    2.118676
     44          1           0      -14.054650    0.751315    1.746213
     45          1           0       14.144627   -2.419328   -0.329354
     46          1           0       12.653227   -2.499051   -1.144164
     47          1           0      -13.931280    3.017710    0.455421
     48          1           0      -13.685796    1.654580   -0.795850
     49          1           0       12.963330   -1.483728    1.793894
     50          1           0       11.984393   -2.974213    1.232284
     51          1           0      -11.686332    3.535563    0.421637
     52          1           0      -12.207632    3.305399   -1.388505
     53          1           0       10.986374   -0.853917   -2.125095
     54          1           0       12.143507    0.305000   -2.850679
     55          1           0       10.406688    0.885333   -2.296206
     56          1           0       13.135910    2.015741    0.267116
     57          1           0       11.851290    2.746896   -0.780252
     58          1           0       13.487845    2.125244   -1.403153
     59          1           0      -13.520836   -0.501568   -0.919516
     60          1           0      -13.824614   -1.641519    0.449650
     61          1           0      -12.609330   -1.927915   -0.567551
     62          1           0      -10.954522    0.092995    2.605514
     63          1           0      -10.803305   -1.560358    1.662858
     64          1           0      -12.327169   -1.182966    2.752647
     65          1           0       10.066710    2.298352    0.359493
     66          1           0      -10.207269   -1.503033   -0.562550
     67          1           0        9.673734   -0.308524    2.623148
     68          1           0       10.793149   -1.416349    2.975258
     69          1           0        9.501454   -1.938036    1.920209
     70          1           0       -9.358528    1.569476   -2.295261
     71          1           0       -9.263395    3.034958   -1.024963
     72          1           0      -10.559139    2.965368   -2.299936
     73          1           0        8.612626   -0.529457    0.313825
     74          1           0       -8.207208    0.620564    0.114246
     75          1           0        8.277341    3.039969    1.249871
     76          1           0        6.434098    3.415494    0.336073
     77          1           0        8.296245    3.265681   -0.493007
     78          1           0       -8.399009   -2.807221   -1.657177
     79          1           0       -8.733108   -3.238538   -0.086711
     80          1           0       -7.047961   -3.295053   -0.778189
     81          1           0        6.056298   -0.349328   -0.004773
     82          1           0       -5.972126    0.119024    0.152608
     83          1           0        4.948391    2.302499    0.159318
     84          1           0       -5.160717   -2.885115   -0.538556
     85          1           0        3.824560   -0.541460    0.014559
     86          1           0       -3.735376   -0.193567    0.042183
     87          1           0        2.791437    2.809869    1.484066
     88          1           0        1.230973    3.066289    0.802671
     89          1           0        2.523541    3.387233   -0.124085
     90          1           0       -3.255462   -3.589325   -1.535668
     91          1           0       -3.251163   -3.879525    0.346382
     92          1           0       -1.779909   -3.956731   -0.646440
     93          1           0        0.220044    0.995101    0.196174
     94          1           0       -1.467662   -0.227169   -0.144034
     95          1           0        2.168183   -1.574534   -0.139438
     96          1           0       -0.051499   -2.895894   -0.279127
 ---------------------------------------------------------------------

 SCF Done:  E(RB3LYP) =  -1557.60071595     A.U. after   14 cycles

 Excitation energies and oscillator strengths:

 Excited State   1:      Singlet-A      2.3701 eV  523.12 nm  f=2.6657  <S**2>=0.000
     148 ->149         0.70501
 This state for optimization and/or second-order correction.
 Total Energy, E(TD-HF/TD-DFT) =  -1557.51361607
 Copying the excited state density for this state as the 1-particle RhoCI density.

 The electronic state is 1-A.
 Alpha  occ. eigenvalues --  -10.21353 -10.21073 -10.20816 -10.20644 -10.20262
 Alpha  occ. eigenvalues --  -10.20249 -10.19948 -10.19928 -10.19752 -10.19711
 Alpha  occ. eigenvalues --  -10.19606 -10.19555 -10.19537 -10.19534 -10.19521
 Alpha  occ. eigenvalues --  -10.19395 -10.19347 -10.19270 -10.19238 -10.18967
 Alpha  occ. eigenvalues --  -10.18929 -10.18680 -10.18676 -10.18638 -10.18575
 Alpha  occ. eigenvalues --  -10.18546 -10.18525 -10.18451 -10.18406 -10.18328
 Alpha  occ. eigenvalues --  -10.18325 -10.18308 -10.18254 -10.18124 -10.18037
 Alpha  occ. eigenvalues --  -10.17913 -10.17881 -10.17457 -10.17412 -10.16119
 Alpha  occ. eigenvalues --   -0.85719  -0.85428  -0.83300  -0.82955  -0.82056
 Alpha  occ. eigenvalues --   -0.81522  -0.79052  -0.78761  -0.78505  -0.78046
 Alpha  occ. eigenvalues --   -0.77269  -0.75804  -0.74606  -0.72833  -0.72135
 Alpha  occ. eigenvalues --   -0.70488  -0.69107  -0.68027  -0.67809  -0.67652
 Alpha  occ. eigenvalues --   -0.67486  -0.66845  -0.66530  -0.65787  -0.65069
 Alpha  occ. eigenvalues --   -0.62325  -0.61666  -0.59725  -0.58914  -0.56370
 Alpha  occ. eigenvalues --   -0.56187  -0.55648  -0.54868  -0.54111  -0.53003
 Alpha  occ. eigenvalues --   -0.52580  -0.51842  -0.50388  -0.49886  -0.48733
 Alpha  occ. eigenvalues --   -0.48674  -0.48002  -0.47114  -0.46593  -0.45918
 Alpha  occ. eigenvalues --   -0.45617  -0.45299  -0.45042  -0.44758  -0.44570
 Alpha  occ. eigenvalues --   -0.44025  -0.43138  -0.42816  -0.42711  -0.42443
 Alpha  occ. eigenvalues --   -0.41976  -0.41628  -0.41230  -0.41163  -0.40687
 Alpha  occ. eigenvalues --   -0.40528  -0.40208  -0.39756  -0.39501  -0.39410
 Alpha  occ. eigenvalues --   -0.39000  -0.38946  -0.38451  -0.38121  -0.37894
 Alpha  occ. eigenvalues --   -0.37717  -0.37643  -0.37285  -0.37098  -0.36846
 Alpha  occ. eigenvalues --   -0.36737  -0.36235  -0.36014  -0.35307  -0.34971
 Alpha  occ. eigenvalues --   -0.34447  -0.34342  -0.33994  -0.33910  -0.33598
 Alpha  occ. eigenvalues --   -0.33385  -0.33086  -0.32836  -0.32795  -0.32340
 Alpha  occ. eigenvalues --   -0.32245  -0.31853  -0.31730  -0.30937  -0.30660
 Alpha  occ. eigenvalues --   -0.30623  -0.29470  -0.29088  -0.28860  -0.28769
 Alpha  occ. eigenvalues --   -0.28554  -0.27983  -0.26549  -0.23986  -0.22669
 Alpha  occ. eigenvalues --   -0.20740  -0.18836  -0.17092
 Alpha virt. eigenvalues --   -0.07693  -0.05065  -0.02535   0.00731   0.02100
 Alpha virt. eigenvalues --    0.03576   0.05471   0.06174   0.06253   0.06729
 Alpha virt. eigenvalues --    0.06787   0.07534   0.08025   0.08546   0.08933

 Mulliken charges:
               1
     1  C    0.010031
     2  C   -0.003585
     3  C   -0.174019
     4  C   -0.169905
     5  C   -0.167452
     6  C   -0.164174
     7  C    0.069446
     8  C    0.103584
     9  C   -0.212338
    10  C   -0.200994
    11  C    0.017514
    12  C    0.113014
    13  C   -0.291645
    14  C   -0.302641
    15  C   -0.313701
    16  C   -0.279797
    17  C   -0.132963
    18  C   -0.161712
    19  C   -0.338563
    20  C   -0.367274
    21  C   -0.066828
    22  C   -0.077323
    23  C    0.093977
    24  C    0.149452
    25  C   -0.355893
    26  C   -0.356737
    27  C   -0.110546
    28  C   -0.151424
    29  C   -0.038274
    30  C   -0.101512
    31  C   -0.139865
    32  C   -0.091575
    33  C    0.132043
    34  C    0.105160
    35  C   -0.401121
    36  C   -0.371067
    37  C   -0.113686
    38  C   -0.107385
    39  C   -0.085293
    40  C   -0.113870
    41  H    0.085599
    42  H    0.073220
    43  H    0.066502
    44  H    0.077503
    45  H    0.066000
    46  H    0.110543
    47  H    0.098135
    48  H    0.084992
    49  H    0.112921
    50  H    0.078764
    51  H    0.094863
    52  H    0.056224
    53  H    0.096404
    54  H    0.100819
    55  H    0.093261
    56  H    0.100544
    57  H    0.095810
    58  H    0.080526
    59  H    0.080893
    60  H    0.101539
    61  H    0.093167
    62  H    0.090297
    63  H    0.086385
    64  H    0.100160
    65  H    0.061741
    66  H    0.063020
    67  H    0.096251
    68  H    0.111997
    69  H    0.122913
    70  H    0.122386
    71  H    0.108534
    72  H    0.081252
    73  H    0.084312
    74  H    0.065076
    75  H    0.123661
    76  H    0.077138
    77  H    0.134225
    78  H    0.132214
    79  H    0.073477
    80  H    0.111968
    81  H    0.071332
    82  H    0.082083
    83  H    0.058295
    84  H    0.089853
    85  H    0.064674
    86  H    0.073239
    87  H    0.118821
    88  H    0.108177
    89  H    0.127181
    90  H    0.136267
    91  H    0.110069
    92  H    0.106493
    93  H    0.077156
    94  H    0.074446
    95  H    0.095687
    96  H    0.079929
 Sum of Mulliken charges =  -0.00000

 Dipole moment (field-independent basis, Debye):
    X=              1.1721    Y=              0.1447    Z=              0.1694  Tot=              1.1931
 Quadrupole moment (field-independent basis, Debye-Ang):
   XX=           -226.0559   YY=           -234.2619   ZZ=           -257.0688
   XY=             -1.0710   XZ=              2.8104   YZ=              3.0273

 Normal termination of Gaussian 16 at Mon Jul 29 22:00:37 2019.
