 Gaussian 16, Revision A.03,
 Gaussian 16:  ES64L-G16RevA.03 25-Dec-2016

 ---------------------------------
 # td=(NStates=1) B3LYP/6-31G(d,p)
 ---------------------------------

 --
 TD
 --
 Symbolic Z-matrix:
 Charge =  0 Multiplicity = 1

                         Standard orientation:
 ---------------------------------------------------------------------
 Center     Atomic      Atomic             Coordinates (Angstroms)
 Number     Number       Type             X           Y           Z
 ---------------------------------------------------------------------
      1          6           0      -12.137119    0.473277    0.861591
      2          6           0       12.099882   -0.134010   -0.874336
      3          6           0      -13.322874   -0.252971    0.827846
      4          6           0       13.214471    0.999666   -1.167416
      5          6           0      -13.073094   -1.786283    0.642242
      6          6           0       13.514732    1.848879    0.092669
      7          6           0      -10.988891   -0.073455   -0.193944
      8          6           0       11.036252    0.409107    0.118500
      9          6           0      -12.414997   -2.158994   -0.658593
     10          6           0       12.265028    2.548732    0.716517
     11          6           0      -11.220114   -1.203895   -0.861929
     12          6           0       11.070903    1.605959    0.842792
     13          6           0      -11.522008    0.142170    2.306663
     14          6           0      -12.356362    1.999334    0.571028
     15          6           0       12.782059   -1.380790   -0.203906
     16          6           0       11.503910   -0.593608   -2.210574
     17          6           0       -9.935745    0.840126   -0.429708
     18          6           0        9.920236   -0.624271    0.207445
     19          6           0      -10.214792   -1.800069   -1.826071
     20          6           0       10.103457    1.950402    1.839604
     21          6           0       -8.575700    0.570178   -0.383634
     22          6           0        8.582484   -0.256791    0.287064
     23          6           0       -7.454752    1.424808   -0.539342
     24          6           0        7.385444   -1.197610    0.422124
     25          6           0       -7.723875    2.906429   -0.694538
     26          6           0        7.830181   -2.643260    0.737079
     27          6           0       -6.177088    0.827507   -0.475683
     28          6           0        6.144658   -0.695855    0.246549
     29          6           0       -4.954105    1.502537   -0.650840
     30          6           0        4.996838   -1.510871    0.443964
     31          6           0       -3.765608    0.809841   -0.315785
     32          6           0        3.761650   -0.958847    0.157858
     33          6           0       -2.398661    1.304700   -0.478734
     34          6           0        2.547451   -1.670323    0.309973
     35          6           0       -2.230320    2.786868   -0.655019
     36          6           0        2.606353   -3.135928    0.658528
     37          6           0       -1.223467    0.559591   -0.244247
     38          6           0        1.343499   -1.070609    0.145223
     39          6           0       -1.135351   -0.869746    0.050766
     40          6           0       -0.055165   -1.543579    0.261649
     41          1           0      -14.148794   -0.083103   -0.024936
     42          1           0      -14.134162    0.010274    1.486699
     43          1           0       12.676808    1.602068   -1.977783
     44          1           0       14.069312    0.329691   -1.665285
     45          1           0      -14.152860   -2.429992    0.671261
     46          1           0      -12.434345   -2.210692    1.568233
     47          1           0       14.098938    2.704424   -0.020797
     48          1           0       14.022249    1.048608    0.701221
     49          1           0      -13.033061   -2.171219   -1.643069
     50          1           0      -12.128322   -3.374056   -0.687810
     51          1           0       12.046671    3.436539   -0.003998
     52          1           0       12.582076    2.864770    1.686910
     53          1           0      -11.321971   -0.914100    2.282784
     54          1           0      -12.167363    0.552833    3.196370
     55          1           0      -10.564515    0.589401    2.468783
     56          1           0      -12.895920    2.092121   -0.503393
     57          1           0      -11.418416    2.602037    0.777823
     58          1           0      -13.159717    2.394116    1.279227
     59          1           0       13.258956   -1.231048    0.839487
     60          1           0       13.399733   -1.544200   -1.097283
     61          1           0       12.188896   -2.190532    0.021960
     62          1           0       10.848789    0.324156   -2.493105
     63          1           0       10.837116   -1.472556   -2.306329
     64          1           0       12.300516   -0.802711   -3.001722
     65          1           0      -10.042221    2.047134   -0.488348
     66          1           0       10.160823   -1.614537    0.240760
     67          1           0       -9.449514   -1.139468   -2.348491
     68          1           0      -10.649904   -2.223684   -2.662444
     69          1           0       -9.402338   -2.510631   -1.455294
     70          1           0        9.586097    1.206858    2.217921
     71          1           0        9.205280    2.660867    1.387973
     72          1           0       10.669486    2.447753    2.575602
     73          1           0       -8.456750   -0.547037   -0.279183
     74          1           0        8.389722    0.786105    0.102285
     75          1           0       -8.779819    3.025589   -1.301830
     76          1           0       -6.714614    3.366628   -1.083865
     77          1           0       -8.071711    3.269488    0.315633
     78          1           0        8.683600   -2.617932    1.442135
     79          1           0        8.336134   -3.142580   -0.059736
     80          1           0        6.943142   -3.225663    0.907174
     81          1           0       -6.096836   -0.250180   -0.315496
     82          1           0        6.016004    0.296933    0.079666
     83          1           0       -4.781724    2.685437   -0.949090
     84          1           0        4.982399   -2.563092    0.905563
     85          1           0       -3.983382   -0.212974   -0.399253
     86          1           0        3.768620    0.071357   -0.361236
     87          1           0       -2.567817    3.224653   -1.744905
     88          1           0       -1.179337    3.073035   -0.230716
     89          1           0       -2.808342    3.341635    0.070312
     90          1           0        3.192542   -3.292777    1.625386
     91          1           0        2.834079   -3.650922   -0.258694
     92          1           0        1.601395   -3.376559    1.057763
     93          1           0       -0.309192    1.314437   -0.277749
     94          1           0        1.289918   -0.207802   -0.174140
     95          1           0       -2.077926   -1.362872    0.236896
     96          1           0       -0.034821   -2.696105    0.369905
 ---------------------------------------------------------------------

 SCF Done:  E(RB3LYP) =  -1557.55900716     A.U. after   16 cycles

 Excitation energies and oscillator strengths:

 Excited State   1:      Singlet-A      2.2010 eV  563.30 nm  f=2.6897  <S**2>=0.000
     147 ->149         0.12089
     148 ->149         0.69858
 This state for optimization and/or second-order correction.
 Total Energy, E(TD-HF/TD-DFT) =  -1557.47812027
 Copying the excited state density for this state as the 1-particle RhoCI density.

 The electronic state is 1-A.
 Alpha  occ. eigenvalues --  -10.20862 -10.20856 -10.20798 -10.20645 -10.20495
 Alpha  occ. eigenvalues --  -10.20454 -10.20440 -10.20302 -10.20231 -10.20156
 Alpha  occ. eigenvalues --  -10.19712 -10.19633 -10.19589 -10.19472 -10.19471
 Alpha  occ. eigenvalues --  -10.19336 -10.19305 -10.19261 -10.19081 -10.19077
 Alpha  occ. eigenvalues --  -10.18925 -10.18836 -10.18827 -10.18798 -10.18668
 Alpha  occ. eigenvalues --  -10.18643 -10.18602 -10.18456 -10.18432 -10.18430
 Alpha  occ. eigenvalues --  -10.18205 -10.18147 -10.18097 -10.18065 -10.17947
 Alpha  occ. eigenvalues --  -10.17507 -10.17371 -10.17165 -10.16508 -10.16385
 Alpha  occ. eigenvalues --   -0.85315  -0.83929  -0.83657  -0.82989  -0.81988
 Alpha  occ. eigenvalues --   -0.81034  -0.79236  -0.78842  -0.78543  -0.77126
 Alpha  occ. eigenvalues --   -0.76645  -0.75015  -0.74487  -0.71976  -0.71204
 Alpha  occ. eigenvalues --   -0.69795  -0.69018  -0.68007  -0.67718  -0.67667
 Alpha  occ. eigenvalues --   -0.67485  -0.67236  -0.66651  -0.66528  -0.66084
 Alpha  occ. eigenvalues --   -0.62382  -0.61797  -0.59247  -0.58389  -0.56922
 Alpha  occ. eigenvalues --   -0.56249  -0.55368  -0.54969  -0.53847  -0.53397
 Alpha  occ. eigenvalues --   -0.52573  -0.52407  -0.50241  -0.49730  -0.49352
 Alpha  occ. eigenvalues --   -0.48409  -0.47648  -0.47187  -0.46518  -0.45981
 Alpha  occ. eigenvalues --   -0.45824  -0.45215  -0.44805  -0.44520  -0.44342
 Alpha  occ. eigenvalues --   -0.44045  -0.43304  -0.42651  -0.42205  -0.41882
 Alpha  occ. eigenvalues --   -0.41736  -0.41271  -0.41132  -0.41039  -0.40725
 Alpha  occ. eigenvalues --   -0.40634  -0.40005  -0.39892  -0.39795  -0.39731
 Alpha  occ. eigenvalues --   -0.39329  -0.38993  -0.38789  -0.38045  -0.37837
 Alpha  occ. eigenvalues --   -0.37735  -0.37402  -0.37006  -0.36993  -0.36751
 Alpha  occ. eigenvalues --   -0.36419  -0.36361  -0.35610  -0.35399  -0.35022
 Alpha  occ. eigenvalues --   -0.34775  -0.34630  -0.34201  -0.34058  -0.33968
 Alpha  occ. eigenvalues --   -0.33760  -0.33328  -0.32680  -0.32542  -0.32378
 Alpha  occ. eigenvalues --   -0.32084  -0.31983  -0.31506  -0.31391  -0.30612
 Alpha  occ. eigenvalues --   -0.30197  -0.30146  -0.29435  -0.28753  -0.28193
 Alpha  occ. eigenvalues --   -0.27472  -0.27051  -0.25914  -0.24516  -0.22730
 Alpha  occ. eigenvalues --   -0.21066  -0.18616  -0.16620
 Alpha virt. eigenvalues --   -0.08148  -0.05466  -0.01624   0.00280   0.02147
 Alpha virt. eigenvalues --    0.03675   0.05593   0.06129   0.07033   0.07194
 Alpha virt. eigenvalues --    0.07495   0.07636   0.08342   0.08719   0.09105

 Mulliken charges:
               1
     1  C    0.019093
     2  C   -0.027994
     3  C   -0.148360
     4  C   -0.169837
     5  C   -0.188520
     6  C   -0.176989
     7  C    0.050066
     8  C    0.059993
     9  C   -0.187858
    10  C   -0.230871
    11  C    0.086079
    12  C    0.063532
    13  C   -0.298923
    14  C   -0.303788
    15  C   -0.284432
    16  C   -0.301081
    17  C   -0.132444
    18  C   -0.117571
    19  C   -0.378947
    20  C   -0.339034
    21  C   -0.091566
    22  C   -0.118594
    23  C    0.123616
    24  C    0.107537
    25  C   -0.373639
    26  C   -0.380893
    27  C   -0.119519
    28  C   -0.103361
    29  C   -0.075360
    30  C   -0.088831
    31  C   -0.123722
    32  C   -0.109114
    33  C    0.104577
    34  C    0.101217
    35  C   -0.376307
    36  C   -0.380394
    37  C   -0.121613
    38  C   -0.069482
    39  C   -0.093817
    40  C   -0.085538
    41  H    0.059082
    42  H    0.104238
    43  H    0.081986
    44  H    0.070412
    45  H    0.050706
    46  H    0.091240
    47  H    0.098780
    48  H    0.097533
    49  H    0.104347
    50  H    0.080801
    51  H    0.097985
    52  H    0.107921
    53  H    0.110477
    54  H    0.085013
    55  H    0.105144
    56  H    0.093612
    57  H    0.103855
    58  H    0.086219
    59  H    0.088713
    60  H    0.094645
    61  H    0.106833
    62  H    0.099120
    63  H    0.106768
    64  H    0.090744
    65  H    0.058597
    66  H    0.073226
    67  H    0.104973
    68  H    0.108715
    69  H    0.107007
    70  H    0.132147
    71  H    0.077108
    72  H    0.098303
    73  H    0.070628
    74  H    0.076383
    75  H    0.108186
    76  H    0.108542
    77  H    0.132023
    78  H    0.121704
    79  H    0.127926
    80  H    0.107012
    81  H    0.089674
    82  H    0.083398
    83  H    0.075655
    84  H    0.089299
    85  H    0.084501
    86  H    0.074378
    87  H    0.099813
    88  H    0.095631
    89  H    0.128600
    90  H    0.111182
    91  H    0.137694
    92  H    0.107810
    93  H    0.079840
    94  H    0.037928
    95  H    0.091765
    96  H    0.066872
 Sum of Mulliken charges =  -0.00000

 Dipole moment (field-independent basis, Debye):
    X=              0.1208    Y=             -0.1831    Z=              0.2124  Tot=              0.3053
 Quadrupole moment (field-independent basis, Debye-Ang):
   XX=           -229.3091   YY=           -236.5187   ZZ=           -255.3757
   XY=             -2.0263   XZ=              2.6952   YZ=              0.8287

 Normal termination of Gaussian 16 at Thu Aug  1 02:57:31 2019.
