 Gaussian 16, Revision A.03,
 Gaussian 16:  ES64L-G16RevA.03 25-Dec-2016

 ---------------------------------
 # td=(NStates=1) B3LYP/6-31G(d,p)
 ---------------------------------

 --
 TD
 --
 Symbolic Z-matrix:
 Charge =  0 Multiplicity = 1

                         Standard orientation:
 ---------------------------------------------------------------------
 Center     Atomic      Atomic             Coordinates (Angstroms)
 Number     Number       Type             X           Y           Z
 ---------------------------------------------------------------------
      1          6           0       12.192532    0.534872   -0.751571
      2          6           0      -12.076987   -0.096462    0.890908
      3          6           0       13.436708   -0.314043   -0.676325
      4          6           0      -13.078611    1.006436    1.361917
      5          6           0       13.139605   -1.708102   -0.527539
      6          6           0      -13.500559    1.851113    0.168852
      7          6           0       11.053049   -0.090863    0.313570
      8          6           0      -10.996607    0.534983   -0.168107
      9          6           0       12.280660   -2.189953    0.651955
     10          6           0      -12.160555    2.642677   -0.368139
     11          6           0       11.112206   -1.205067    0.933708
     12          6           0      -11.051226    1.706494   -0.721251
     13          6           0       11.495282    0.406774   -2.283800
     14          6           0       12.501792    2.088221   -0.600479
     15          6           0      -12.902536   -1.288215    0.057773
     16          6           0      -11.360533   -0.721907    2.121838
     17          6           0        9.837517    0.780751    0.395772
     18          6           0       -9.880490   -0.503758   -0.329577
     19          6           0       10.214749   -1.651592    2.062564
     20          6           0      -10.105493    2.206033   -1.733107
     21          6           0        8.553837    0.390382    0.374019
     22          6           0       -8.572615   -0.329204   -0.436037
     23          6           0        7.430963    1.273913    0.528047
     24          6           0       -7.493900   -1.331034   -0.506350
     25          6           0        7.685862    2.854082    0.742688
     26          6           0       -7.891207   -2.744450   -0.823677
     27          6           0        6.230061    0.682296    0.395140
     28          6           0       -6.268321   -0.771497   -0.295089
     29          6           0        4.931256    1.368851    0.406036
     30          6           0       -5.065131   -1.655995   -0.220000
     31          6           0        3.728885    0.765511    0.297175
     32          6           0       -3.843132   -1.187108   -0.286605
     33          6           0        2.343478    1.298530    0.381116
     34          6           0       -2.604077   -1.741304   -0.314663
     35          6           0        2.377980    2.835706    0.489421
     36          6           0       -2.522637   -3.250738   -0.743444
     37          6           0        1.225171    0.540758    0.120356
     38          6           0       -1.430736   -1.033682   -0.220153
     39          6           0        1.113328   -0.830572   -0.229718
     40          6           0       -0.048284   -1.526034   -0.348250
     41          1           0       14.214352   -0.068371    0.042414
     42          1           0       13.967498    0.012169   -1.638431
     43          1           0      -12.376161    1.739245    1.785105
     44          1           0      -13.884724    0.506145    1.886866
     45          1           0       14.108047   -2.471944   -0.580864
     46          1           0       12.662303   -1.978972   -1.414932
     47          1           0      -14.368680    2.558744    0.660967
     48          1           0      -13.878832    1.463508   -0.710779
     49          1           0       13.199452   -1.863228    1.327926
     50          1           0       12.062235   -3.258861    0.656151
     51          1           0      -11.858430    3.420623    0.415764
     52          1           0      -12.427104    3.453855   -1.085535
     53          1           0       11.405053   -0.700007   -2.585101
     54          1           0       12.037326    0.906830   -3.154337
     55          1           0       10.571726    1.167673   -2.335758
     56          1           0       12.854324    2.244973    0.436323
     57          1           0       11.618466    2.519045   -0.663554
     58          1           0       13.426746    2.271050   -1.352271
     59          1           0      -13.212576   -0.923399   -0.882274
     60          1           0      -13.755052   -1.486661    0.918353
     61          1           0      -12.154473   -2.130082    0.110465
     62          1           0      -10.874127    0.156909    2.531674
     63          1           0      -10.602744   -1.533001    1.980413
     64          1           0      -12.167346   -1.173515    2.993073
     65          1           0        9.941058    1.703459    0.559938
     66          1           0      -10.354254   -1.454324   -0.610436
     67          1           0        9.464213   -0.938770    2.599862
     68          1           0       10.854196   -1.941319    3.022534
     69          1           0        9.512559   -2.605779    1.974871
     70          1           0       -9.291834    1.453323   -1.885262
     71          1           0       -9.679010    3.239603   -1.604364
     72          1           0      -10.680692    2.370140   -2.720176
     73          1           0        8.341853   -0.782211    0.115002
     74          1           0       -8.163667    0.687551   -0.087722
     75          1           0        7.949308    3.158141    1.823162
     76          1           0        6.799092    3.363004    0.738484
     77          1           0        8.274167    3.403603   -0.107258
     78          1           0       -8.631113   -2.648955   -1.635543
     79          1           0       -8.410019   -3.218394   -0.048383
     80          1           0       -7.186300   -3.367860   -0.904126
     81          1           0        6.189499   -0.361528    0.136998
     82          1           0       -6.111203    0.320975   -0.141276
     83          1           0        4.929740    2.409920    0.683811
     84          1           0       -5.145932   -2.749476   -0.456194
     85          1           0        3.607944   -0.340986    0.004456
     86          1           0       -3.797649   -0.023116   -0.218904
     87          1           0        2.942322    3.186089    1.343064
     88          1           0        1.409227    3.219576    0.575049
     89          1           0        2.816375    3.136462   -0.333029
     90          1           0       -3.160924   -3.365205   -1.713861
     91          1           0       -2.609512   -3.863304    0.118733
     92          1           0       -1.494385   -3.712596   -0.968896
     93          1           0        0.338686    1.114678    0.266481
     94          1           0       -1.579035    0.102973    0.166237
     95          1           0        2.036633   -1.469788   -0.089803
     96          1           0        0.133659   -2.439435   -0.598966
 ---------------------------------------------------------------------

 SCF Done:  E(RB3LYP) =  -1557.52186141     A.U. after   15 cycles

 Excitation energies and oscillator strengths:

 Excited State   1:      Singlet-A      2.4430 eV  507.50 nm  f=2.9362  <S**2>=0.000
     148 ->149         0.70433
 This state for optimization and/or second-order correction.
 Total Energy, E(TD-HF/TD-DFT) =  -1557.43208107
 Copying the excited state density for this state as the 1-particle RhoCI density.

 The electronic state is 1-A.
 Alpha  occ. eigenvalues --  -10.21646 -10.20649 -10.20390 -10.20300 -10.20209
 Alpha  occ. eigenvalues --  -10.20163 -10.19946 -10.19831 -10.19627 -10.19605
 Alpha  occ. eigenvalues --  -10.19370 -10.19296 -10.19254 -10.19074 -10.19037
 Alpha  occ. eigenvalues --  -10.18988 -10.18975 -10.18907 -10.18861 -10.18857
 Alpha  occ. eigenvalues --  -10.18845 -10.18821 -10.18779 -10.18675 -10.18565
 Alpha  occ. eigenvalues --  -10.18536 -10.18435 -10.18430 -10.18391 -10.18322
 Alpha  occ. eigenvalues --  -10.18157 -10.18150 -10.18103 -10.18087 -10.17819
 Alpha  occ. eigenvalues --  -10.17700 -10.17516 -10.17057 -10.16433 -10.16280
 Alpha  occ. eigenvalues --   -0.84569  -0.84318  -0.83705  -0.82871  -0.82164
 Alpha  occ. eigenvalues --   -0.81537  -0.79196  -0.78271  -0.78010  -0.76775
 Alpha  occ. eigenvalues --   -0.76335  -0.75041  -0.74292  -0.72478  -0.71705
 Alpha  occ. eigenvalues --   -0.70807  -0.69553  -0.68981  -0.67752  -0.67661
 Alpha  occ. eigenvalues --   -0.67134  -0.66703  -0.66581  -0.66148  -0.65770
 Alpha  occ. eigenvalues --   -0.62944  -0.61831  -0.59583  -0.58689  -0.57632
 Alpha  occ. eigenvalues --   -0.56855  -0.55308  -0.54461  -0.53795  -0.52975
 Alpha  occ. eigenvalues --   -0.52653  -0.51733  -0.50554  -0.49951  -0.49175
 Alpha  occ. eigenvalues --   -0.48533  -0.47672  -0.47334  -0.47132  -0.46188
 Alpha  occ. eigenvalues --   -0.45343  -0.45144  -0.44627  -0.43867  -0.43727
 Alpha  occ. eigenvalues --   -0.43387  -0.43237  -0.42927  -0.42580  -0.42451
 Alpha  occ. eigenvalues --   -0.42043  -0.41740  -0.41390  -0.41314  -0.41064
 Alpha  occ. eigenvalues --   -0.40492  -0.40359  -0.39948  -0.39709  -0.39352
 Alpha  occ. eigenvalues --   -0.39165  -0.38794  -0.38327  -0.38074  -0.37942
 Alpha  occ. eigenvalues --   -0.37802  -0.36895  -0.36851  -0.36698  -0.36369
 Alpha  occ. eigenvalues --   -0.36169  -0.36061  -0.35840  -0.35516  -0.34975
 Alpha  occ. eigenvalues --   -0.34900  -0.34830  -0.33996  -0.33884  -0.33806
 Alpha  occ. eigenvalues --   -0.33627  -0.33349  -0.32979  -0.32828  -0.32294
 Alpha  occ. eigenvalues --   -0.32077  -0.31299  -0.31245  -0.31101  -0.30653
 Alpha  occ. eigenvalues --   -0.30343  -0.29839  -0.29022  -0.28536  -0.28257
 Alpha  occ. eigenvalues --   -0.27500  -0.27092  -0.26104  -0.24478  -0.23334
 Alpha  occ. eigenvalues --   -0.21729  -0.19516  -0.17175
 Alpha virt. eigenvalues --   -0.07746  -0.04472  -0.01330   0.01190   0.03246
 Alpha virt. eigenvalues --    0.04386   0.06244   0.06797   0.07197   0.07833
 Alpha virt. eigenvalues --    0.08057   0.08499   0.08706   0.08857   0.09190

 Mulliken charges:
               1
     1  C   -0.004380
     2  C   -0.016538
     3  C   -0.157942
     4  C   -0.156497
     5  C   -0.190647
     6  C   -0.173731
     7  C    0.051441
     8  C    0.024048
     9  C   -0.216457
    10  C   -0.277103
    11  C    0.103592
    12  C    0.137089
    13  C   -0.306942
    14  C   -0.294641
    15  C   -0.294277
    16  C   -0.284973
    17  C   -0.121239
    18  C   -0.133981
    19  C   -0.366848
    20  C   -0.376637
    21  C   -0.082037
    22  C   -0.116103
    23  C    0.116453
    24  C    0.128078
    25  C   -0.375846
    26  C   -0.354523
    27  C   -0.116086
    28  C   -0.137565
    29  C   -0.093730
    30  C   -0.100807
    31  C   -0.096654
    32  C   -0.097364
    33  C    0.070669
    34  C    0.140253
    35  C   -0.368625
    36  C   -0.380327
    37  C   -0.105239
    38  C   -0.127417
    39  C   -0.107420
    40  C   -0.053363
    41  H    0.088551
    42  H    0.085125
    43  H    0.107852
    44  H    0.091573
    45  H    0.052096
    46  H    0.098713
    47  H    0.059572
    48  H    0.110605
    49  H    0.093313
    50  H    0.108957
    51  H    0.096020
    52  H    0.090488
    53  H    0.104382
    54  H    0.087745
    55  H    0.091903
    56  H    0.101934
    57  H    0.116171
    58  H    0.093517
    59  H    0.118125
    60  H    0.073742
    61  H    0.103612
    62  H    0.111216
    63  H    0.107397
    64  H    0.057526
    65  H    0.065109
    66  H    0.080579
    67  H    0.112663
    68  H    0.090555
    69  H    0.092856
    70  H    0.116780
    71  H    0.105686
    72  H    0.098988
    73  H    0.067518
    74  H    0.077861
    75  H    0.114624
    76  H    0.120973
    77  H    0.114326
    78  H    0.124211
    79  H    0.127048
    80  H    0.111337
    81  H    0.083691
    82  H    0.092565
    83  H    0.075031
    84  H    0.078489
    85  H    0.057894
    86  H    0.055536
    87  H    0.114828
    88  H    0.102023
    89  H    0.144202
    90  H    0.115065
    91  H    0.132176
    92  H    0.097185
    93  H    0.075328
    94  H    0.065815
    95  H    0.087785
    96  H    0.065459
 Sum of Mulliken charges =  -0.00000

 Dipole moment (field-independent basis, Debye):
    X=             -0.1839    Y=              0.3124    Z=             -0.1522  Tot=              0.3931
 Quadrupole moment (field-independent basis, Debye-Ang):
   XX=           -239.7881   YY=           -231.0092   ZZ=           -255.7060
   XY=              6.1809   XZ=              1.3390   YZ=              1.8219

 Normal termination of Gaussian 16 at Sun Jul 28 16:07:21 2019.
