 Gaussian 16, Revision A.03,
 Gaussian 16:  ES64L-G16RevA.03 25-Dec-2016

 ---------------------------------
 # td=(NStates=1) B3LYP/6-31G(d,p)
 ---------------------------------

 --
 TD
 --
 Symbolic Z-matrix:
 Charge =  0 Multiplicity = 1

                         Standard orientation:
 ---------------------------------------------------------------------
 Center     Atomic      Atomic             Coordinates (Angstroms)
 Number     Number       Type             X           Y           Z
 ---------------------------------------------------------------------
      1          6           0       12.244416   -0.622514    0.651592
      2          6           0      -12.223866    0.031265   -0.845519
      3          6           0       13.528536    0.162788    0.541889
      4          6           0      -13.007047   -1.161570   -1.354063
      5          6           0       13.238878    1.596861    0.691410
      6          6           0      -13.361205   -2.109136   -0.115802
      7          6           0       11.115231    0.040987   -0.237597
      8          6           0      -11.022764   -0.462744    0.046446
      9          6           0       12.472224    2.095235   -0.488160
     10          6           0      -12.196036   -2.643982    0.483312
     11          6           0       11.313635    1.270708   -0.791452
     12          6           0      -11.091633   -1.603220    0.778189
     13          6           0       11.694000   -0.900260    2.042741
     14          6           0       12.414446   -2.164993    0.068546
     15          6           0      -12.980948    1.062846   -0.130433
     16          6           0      -11.533548    0.839487   -1.996943
     17          6           0        9.795562   -0.829764   -0.415605
     18          6           0      -10.030342    0.517969    0.348695
     19          6           0       10.149996    1.915211   -1.629876
     20          6           0      -10.098434   -2.104900    1.794920
     21          6           0        8.572704   -0.379764   -0.117826
     22          6           0       -8.628684    0.233136    0.318626
     23          6           0        7.393299   -1.203861   -0.253283
     24          6           0       -7.517985    1.136099    0.448272
     25          6           0        7.605237   -2.661382   -0.646855
     26          6           0       -7.886920    2.656739    0.838314
     27          6           0        6.147798   -0.639108   -0.061894
     28          6           0       -6.220251    0.832352    0.197225
     29          6           0        4.833679   -1.264737   -0.431442
     30          6           0       -5.080578    1.591156    0.327378
     31          6           0        3.720913   -0.580233   -0.205527
     32          6           0       -3.782697    1.114585    0.101821
     33          6           0        2.363067   -1.181089   -0.427827
     34          6           0       -2.524454    1.856079    0.217895
     35          6           0        2.347637   -2.608191   -0.832075
     36          6           0       -2.569850    3.373294    0.507194
     37          6           0        1.212310   -0.465197   -0.221073
     38          6           0       -1.388592    1.173531    0.206381
     39          6           0        1.108990    0.897184    0.220315
     40          6           0       -0.050134    1.593187    0.358251
     41          1           0       14.152864    0.092334   -0.408755
     42          1           0       14.210648   -0.109301    1.163344
     43          1           0      -12.601234   -1.870616   -1.892519
     44          1           0      -13.721990   -0.706639   -1.736772
     45          1           0       14.301854    1.992985    0.543844
     46          1           0       12.785193    1.973894    1.508752
     47          1           0      -13.891151   -2.880400   -0.436742
     48          1           0      -14.052763   -1.546631    0.755346
     49          1           0       13.050663    2.134742   -1.469982
     50          1           0       12.224041    3.127987   -0.202272
     51          1           0      -11.882477   -3.443340   -0.090831
     52          1           0      -12.295671   -3.344296    1.443518
     53          1           0       11.376666   -0.099731    2.739705
     54          1           0       12.465496   -1.314781    2.759268
     55          1           0       10.978467   -1.800494    2.292280
     56          1           0       12.635066   -2.191953   -1.071205
     57          1           0       11.680087   -3.047052    0.337011
     58          1           0       13.500006   -2.538734    0.214456
     59          1           0      -13.498312    0.529244    0.829232
     60          1           0      -13.855007    1.166903   -0.909419
     61          1           0      -12.418047    1.951185    0.285701
     62          1           0      -10.808512    0.226713   -2.629479
     63          1           0      -11.101713    1.776418   -1.802391
     64          1           0      -12.231227    1.131667   -2.681340
     65          1           0       10.188531   -1.800579   -0.808450
     66          1           0      -10.453513    1.453169    0.588683
     67          1           0        9.416051    1.288514   -2.209245
     68          1           0       10.500633    2.572417   -2.537953
     69          1           0        9.567785    2.584192   -1.021444
     70          1           0       -9.434484   -1.364624    2.087118
     71          1           0       -9.432759   -2.901684    1.279739
     72          1           0      -10.560470   -2.539401    2.815547
     73          1           0        8.542255    0.648643    0.012794
     74          1           0       -8.426795   -0.628966   -0.130921
     75          1           0        7.948034   -2.762778   -1.606659
     76          1           0        6.608226   -3.081428   -0.618004
     77          1           0        8.171269   -3.365650    0.070114
     78          1           0       -8.160129    2.769472    1.884651
     79          1           0       -8.662923    3.123530    0.144617
     80          1           0       -7.100116    3.371195    0.569134
     81          1           0        6.052745    0.367590    0.307628
     82          1           0       -6.205664   -0.164719   -0.191761
     83          1           0        4.656281   -2.149376   -1.017572
     84          1           0       -5.136633    2.779912    0.759766
     85          1           0        3.750450    0.352850    0.344237
     86          1           0       -3.627800    0.117140   -0.073053
     87          1           0        2.780295   -2.649846   -1.742049
     88          1           0        1.407863   -2.829510   -0.879132
     89          1           0        2.775848   -3.216648   -0.165338
     90          1           0       -3.184391    3.705270    1.547892
     91          1           0       -3.017925    3.946655   -0.234714
     92          1           0       -1.546910    3.871706    0.694683
     93          1           0        0.261887   -0.919998   -0.480809
     94          1           0       -1.412317    0.042586   -0.129668
     95          1           0        2.068434    1.136167    0.539941
     96          1           0        0.203768    2.609783    0.742532
 ---------------------------------------------------------------------

 SCF Done:  E(RB3LYP) =  -1557.53519654     A.U. after   15 cycles

 Excitation energies and oscillator strengths:

 Excited State   1:      Singlet-A      2.3275 eV  532.69 nm  f=3.0302  <S**2>=0.000
     148 ->149         0.69858
 This state for optimization and/or second-order correction.
 Total Energy, E(TD-HF/TD-DFT) =  -1557.44966148
 Copying the excited state density for this state as the 1-particle RhoCI density.

 The electronic state is 1-A.
 Alpha  occ. eigenvalues --  -10.21483 -10.20109 -10.20053 -10.19911 -10.19837
 Alpha  occ. eigenvalues --  -10.19808 -10.19681 -10.19574 -10.19528 -10.19392
 Alpha  occ. eigenvalues --  -10.19163 -10.19090 -10.18735 -10.18717 -10.18710
 Alpha  occ. eigenvalues --  -10.18710 -10.18655 -10.18518 -10.18447 -10.18430
 Alpha  occ. eigenvalues --  -10.18238 -10.18086 -10.18073 -10.18031 -10.18009
 Alpha  occ. eigenvalues --  -10.18005 -10.17916 -10.17879 -10.17801 -10.17756
 Alpha  occ. eigenvalues --  -10.17713 -10.17678 -10.17580 -10.17490 -10.17470
 Alpha  occ. eigenvalues --  -10.16886 -10.16833 -10.16017 -10.16012 -10.14960
 Alpha  occ. eigenvalues --   -0.85879  -0.85125  -0.83721  -0.82830  -0.81859
 Alpha  occ. eigenvalues --   -0.81351  -0.79478  -0.79040  -0.78135  -0.77588
 Alpha  occ. eigenvalues --   -0.77048  -0.75502  -0.74609  -0.72016  -0.71723
 Alpha  occ. eigenvalues --   -0.70337  -0.69389  -0.68431  -0.68073  -0.68039
 Alpha  occ. eigenvalues --   -0.67814  -0.67505  -0.66844  -0.66391  -0.65867
 Alpha  occ. eigenvalues --   -0.62984  -0.61628  -0.60131  -0.59071  -0.57766
 Alpha  occ. eigenvalues --   -0.56671  -0.56236  -0.56032  -0.54977  -0.53681
 Alpha  occ. eigenvalues --   -0.52767  -0.51901  -0.50647  -0.50441  -0.49627
 Alpha  occ. eigenvalues --   -0.49120  -0.48207  -0.47643  -0.47180  -0.46556
 Alpha  occ. eigenvalues --   -0.45572  -0.45368  -0.44869  -0.44541  -0.44428
 Alpha  occ. eigenvalues --   -0.44151  -0.43560  -0.42358  -0.42280  -0.41934
 Alpha  occ. eigenvalues --   -0.41708  -0.41574  -0.41458  -0.41341  -0.41130
 Alpha  occ. eigenvalues --   -0.40600  -0.40310  -0.40120  -0.39917  -0.39639
 Alpha  occ. eigenvalues --   -0.39395  -0.38885  -0.38622  -0.38182  -0.37941
 Alpha  occ. eigenvalues --   -0.37580  -0.37526  -0.37081  -0.36810  -0.36571
 Alpha  occ. eigenvalues --   -0.36296  -0.35913  -0.35700  -0.35569  -0.35294
 Alpha  occ. eigenvalues --   -0.35113  -0.34708  -0.34561  -0.34443  -0.33829
 Alpha  occ. eigenvalues --   -0.33492  -0.33377  -0.32810  -0.32604  -0.32470
 Alpha  occ. eigenvalues --   -0.32066  -0.31819  -0.31607  -0.31573  -0.31131
 Alpha  occ. eigenvalues --   -0.30379  -0.29787  -0.29223  -0.28676  -0.28101
 Alpha  occ. eigenvalues --   -0.27729  -0.27644  -0.26093  -0.23608  -0.22515
 Alpha  occ. eigenvalues --   -0.21127  -0.18910  -0.16404
 Alpha virt. eigenvalues --   -0.07652  -0.04647  -0.01577   0.01618   0.03163
 Alpha virt. eigenvalues --    0.04250   0.05729   0.06764   0.07037   0.07447
 Alpha virt. eigenvalues --    0.08033   0.08565   0.08748   0.09019   0.09146

 Mulliken charges:
               1
     1  C    0.040385
     2  C   -0.027099
     3  C   -0.163165
     4  C   -0.123070
     5  C   -0.191635
     6  C   -0.189762
     7  C    0.021582
     8  C    0.061716
     9  C   -0.218012
    10  C   -0.204373
    11  C    0.075608
    12  C    0.079852
    13  C   -0.309124
    14  C   -0.335675
    15  C   -0.277315
    16  C   -0.306148
    17  C   -0.116909
    18  C   -0.122911
    19  C   -0.373033
    20  C   -0.356281
    21  C   -0.073974
    22  C   -0.114880
    23  C    0.104187
    24  C    0.107466
    25  C   -0.371571
    26  C   -0.376131
    27  C   -0.140159
    28  C   -0.100880
    29  C   -0.081183
    30  C   -0.082875
    31  C   -0.091881
    32  C   -0.110933
    33  C    0.050874
    34  C    0.149365
    35  C   -0.356769
    36  C   -0.371598
    37  C   -0.119837
    38  C   -0.123614
    39  C   -0.064034
    40  C   -0.099181
    41  H    0.087142
    42  H    0.099733
    43  H    0.107548
    44  H    0.078559
    45  H    0.076875
    46  H    0.111783
    47  H    0.092399
    48  H    0.059497
    49  H    0.094389
    50  H    0.097047
    51  H    0.110654
    52  H    0.073008
    53  H    0.097581
    54  H    0.086313
    55  H    0.102475
    56  H    0.088162
    57  H    0.104137
    58  H    0.083263
    59  H    0.081636
    60  H    0.087844
    61  H    0.114098
    62  H    0.089981
    63  H    0.108333
    64  H    0.092524
    65  H    0.098173
    66  H    0.084431
    67  H    0.116925
    68  H    0.076132
    69  H    0.118314
    70  H    0.125899
    71  H    0.101110
    72  H    0.085150
    73  H    0.083852
    74  H    0.076829
    75  H    0.132296
    76  H    0.105446
    77  H    0.109864
    78  H    0.120828
    79  H    0.099018
    80  H    0.104669
    81  H    0.083913
    82  H    0.071226
    83  H    0.086286
    84  H    0.069828
    85  H    0.079252
    86  H    0.073466
    87  H    0.129572
    88  H    0.108308
    89  H    0.131663
    90  H    0.084220
    91  H    0.136286
    92  H    0.103637
    93  H    0.063764
    94  H    0.069633
    95  H    0.074108
    96  H    0.073899
 Sum of Mulliken charges =  -0.00000

 Dipole moment (field-independent basis, Debye):
    X=              0.2750    Y=             -0.6316    Z=             -0.5990  Tot=              0.9128
 Quadrupole moment (field-independent basis, Debye-Ang):
   XX=           -209.7126   YY=           -233.3544   ZZ=           -252.4214
   XY=              2.4175   XZ=              9.3508   YZ=              5.5647

 Normal termination of Gaussian 16 at Tue Jul 23 08:45:26 2019.
