 Gaussian 16, Revision A.03,
 Gaussian 16:  ES64L-G16RevA.03 25-Dec-2016

 ---------------------------------
 # td=(NStates=1) B3LYP/6-31G(d,p)
 ---------------------------------

 --
 TD
 --
 Symbolic Z-matrix:
 Charge =  0 Multiplicity = 1

                         Standard orientation:
 ---------------------------------------------------------------------
 Center     Atomic      Atomic             Coordinates (Angstroms)
 Number     Number       Type             X           Y           Z
 ---------------------------------------------------------------------
      1          6           0       12.182386    0.447746   -0.571092
      2          6           0      -12.141613   -0.230461    0.914629
      3          6           0       13.554488   -0.373559   -0.256036
      4          6           0      -13.002556    0.940441    1.459650
      5          6           0       13.336514   -1.936471   -0.182456
      6          6           0      -13.479865    1.811241    0.334618
      7          6           0       11.001221   -0.027572    0.297739
      8          6           0      -11.115401    0.303211   -0.077919
      9          6           0       12.333360   -2.141729    1.024298
     10          6           0      -12.263504    2.510240   -0.294301
     11          6           0       11.145419   -1.260618    0.964896
     12          6           0      -11.193053    1.660889   -0.527887
     13          6           0       11.814331    0.172011   -2.110824
     14          6           0       12.467521    1.910566   -0.366728
     15          6           0      -13.071404   -1.261782    0.201330
     16          6           0      -11.424888   -0.918750    2.080235
     17          6           0        9.877305    0.797144    0.367413
     18          6           0      -10.004764   -0.617528   -0.307970
     19          6           0       10.071675   -1.719706    1.923956
     20          6           0      -10.118407    2.225907   -1.561433
     21          6           0        8.577275    0.465682    0.145537
     22          6           0       -8.667714   -0.392120   -0.192030
     23          6           0        7.389509    1.296078    0.335585
     24          6           0       -7.511926   -1.295174   -0.372146
     25          6           0        7.647934    2.842769    0.484909
     26          6           0       -7.807396   -2.689108   -0.743900
     27          6           0        6.138885    0.779499    0.133711
     28          6           0       -6.234193   -0.629704   -0.314063
     29          6           0        4.849440    1.393359    0.290563
     30          6           0       -5.033491   -1.475331   -0.518430
     31          6           0        3.745712    0.671106   -0.038041
     32          6           0       -3.753116   -0.921305   -0.335385
     33          6           0        2.446318    1.379259    0.136485
     34          6           0       -2.543161   -1.580009   -0.546160
     35          6           0        2.401643    2.826243    0.482945
     36          6           0       -2.569966   -3.073954   -0.832995
     37          6           0        1.288932    0.762917   -0.011888
     38          6           0       -1.434743   -0.844869   -0.303796
     39          6           0        1.103748   -0.660739   -0.504942
     40          6           0       -0.063552   -1.384983   -0.614015
     41          1           0       14.011262   -0.074320    0.654712
     42          1           0       14.273062   -0.079017   -1.146546
     43          1           0      -12.337216    1.440201    2.206769
     44          1           0      -13.871553    0.329908    1.940643
     45          1           0       14.316208   -2.476432    0.014612
     46          1           0       13.063699   -2.072005   -1.289245
     47          1           0      -14.326488    2.689347    0.739557
     48          1           0      -14.191060    1.540183   -0.501362
     49          1           0       12.841555   -1.836528    2.130483
     50          1           0       11.979939   -3.283491    1.046976
     51          1           0      -11.973032    3.439029    0.384000
     52          1           0      -12.373596    2.942102   -1.125001
     53          1           0       11.797741   -0.997476   -2.438971
     54          1           0       12.678238    0.527787   -2.732462
     55          1           0       10.933080    0.784725   -2.294300
     56          1           0       12.420304    2.078769    0.845255
     57          1           0       11.725835    2.734656   -0.644796
     58          1           0       13.487741    2.181229   -0.747562
     59          1           0      -13.579793   -0.883000   -0.892648
     60          1           0      -13.703531   -1.635347    0.939992
     61          1           0      -12.322123   -2.184684   -0.138340
     62          1           0      -10.729421   -0.295856    2.729128
     63          1           0      -10.722579   -1.890498    1.718977
     64          1           0      -12.174937   -1.361799    2.756097
     65          1           0       10.108207    2.023011    0.494915
     66          1           0      -10.355554   -1.673439   -0.549754
     67          1           0        9.265700   -0.723967    2.056569
     68          1           0       10.639245   -1.930204    2.927714
     69          1           0        9.693343   -2.643456    1.309903
     70          1           0       -9.262660    1.429309   -1.758117
     71          1           0       -9.646576    3.082030   -1.166232
     72          1           0      -10.464039    2.490314   -2.592649
     73          1           0        8.309468   -0.538488    0.043215
     74          1           0       -8.608222    0.570340    0.100191
     75          1           0        8.405368    3.038380    1.351564
     76          1           0        6.742620    3.301328    0.194727
     77          1           0        8.448103    3.032689   -0.401774
     78          1           0       -8.711715   -2.954291   -1.376879
     79          1           0       -8.140704   -3.172498    0.109711
     80          1           0       -7.052739   -3.325416   -1.245322
     81          1           0        6.093359   -0.364943   -0.300314
     82          1           0       -6.066364    0.346957    0.098428
     83          1           0        4.794648    2.407629    0.503769
     84          1           0       -5.090215   -2.407244   -0.762660
     85          1           0        3.733540   -0.294155   -0.350135
     86          1           0       -3.743188    0.232858   -0.178824
     87          1           0        2.615608    3.131132    1.646980
     88          1           0        1.249292    3.231544    0.482246
     89          1           0        2.831658    3.655232   -0.228174
     90          1           0       -3.251170   -3.410247   -1.792023
     91          1           0       -2.723810   -3.342404   -0.008173
     92          1           0       -1.472102   -3.394741   -1.344088
     93          1           0        0.290651    1.272996   -0.087181
     94          1           0       -1.370179    0.224819   -0.006124
     95          1           0        2.060236   -1.016552   -0.421528
     96          1           0       -0.178569   -2.461009   -0.870336
 ---------------------------------------------------------------------

 SCF Done:  E(RB3LYP) =  -1557.44492953     A.U. after   15 cycles

 Excitation energies and oscillator strengths:

 Excited State   1:      Singlet-A      2.2947 eV  540.31 nm  f=2.7392  <S**2>=0.000
     148 ->149         0.69729
     148 ->150         0.10111
 This state for optimization and/or second-order correction.
 Total Energy, E(TD-HF/TD-DFT) =  -1557.36060113
 Copying the excited state density for this state as the 1-particle RhoCI density.

 The electronic state is 1-A.
 Alpha  occ. eigenvalues --  -10.21676 -10.21202 -10.20943 -10.20574 -10.20276
 Alpha  occ. eigenvalues --  -10.19987 -10.19943 -10.19941 -10.19936 -10.19785
 Alpha  occ. eigenvalues --  -10.19728 -10.19705 -10.19682 -10.19681 -10.19674
 Alpha  occ. eigenvalues --  -10.19634 -10.19595 -10.19463 -10.19459 -10.19425
 Alpha  occ. eigenvalues --  -10.19250 -10.19113 -10.19025 -10.18989 -10.18843
 Alpha  occ. eigenvalues --  -10.18787 -10.18736 -10.18707 -10.18637 -10.18579
 Alpha  occ. eigenvalues --  -10.18526 -10.18493 -10.18475 -10.18413 -10.18405
 Alpha  occ. eigenvalues --  -10.18118 -10.18059 -10.17926 -10.17264 -10.16989
 Alpha  occ. eigenvalues --   -0.85433  -0.84425  -0.83839  -0.83347  -0.81567
 Alpha  occ. eigenvalues --   -0.81205  -0.79474  -0.78209  -0.77860  -0.77234
 Alpha  occ. eigenvalues --   -0.76228  -0.74903  -0.73886  -0.71905  -0.71579
 Alpha  occ. eigenvalues --   -0.70283  -0.68846  -0.67614  -0.67446  -0.67305
 Alpha  occ. eigenvalues --   -0.66823  -0.66674  -0.66532  -0.65557  -0.65101
 Alpha  occ. eigenvalues --   -0.62226  -0.61470  -0.59935  -0.58750  -0.56963
 Alpha  occ. eigenvalues --   -0.55711  -0.55609  -0.55111  -0.54269  -0.53797
 Alpha  occ. eigenvalues --   -0.53045  -0.52074  -0.50144  -0.49645  -0.48725
 Alpha  occ. eigenvalues --   -0.48168  -0.47999  -0.47171  -0.46520  -0.46033
 Alpha  occ. eigenvalues --   -0.45827  -0.44940  -0.44621  -0.43951  -0.43745
 Alpha  occ. eigenvalues --   -0.43501  -0.43245  -0.43012  -0.42837  -0.42335
 Alpha  occ. eigenvalues --   -0.41771  -0.41365  -0.41156  -0.41074  -0.40473
 Alpha  occ. eigenvalues --   -0.40355  -0.40072  -0.39765  -0.39499  -0.39408
 Alpha  occ. eigenvalues --   -0.38910  -0.38527  -0.38503  -0.38153  -0.37812
 Alpha  occ. eigenvalues --   -0.37513  -0.37072  -0.36726  -0.36573  -0.36555
 Alpha  occ. eigenvalues --   -0.36205  -0.35762  -0.35406  -0.34979  -0.34635
 Alpha  occ. eigenvalues --   -0.34089  -0.33938  -0.33888  -0.33822  -0.33554
 Alpha  occ. eigenvalues --   -0.33386  -0.33376  -0.33130  -0.32887  -0.32490
 Alpha  occ. eigenvalues --   -0.32196  -0.31808  -0.31570  -0.30735  -0.30272
 Alpha  occ. eigenvalues --   -0.30040  -0.29728  -0.29509  -0.29174  -0.28571
 Alpha  occ. eigenvalues --   -0.27766  -0.27269  -0.26068  -0.23847  -0.22104
 Alpha  occ. eigenvalues --   -0.20620  -0.18394  -0.16472
 Alpha virt. eigenvalues --   -0.07484  -0.05375  -0.01796   0.00107   0.01657
 Alpha virt. eigenvalues --    0.03614   0.05405   0.06326   0.06533   0.06730
 Alpha virt. eigenvalues --    0.07263   0.07417   0.07559   0.07862   0.08160

 Mulliken charges:
               1
     1  C    0.013055
     2  C   -0.011680
     3  C   -0.188370
     4  C   -0.160505
     5  C   -0.182064
     6  C   -0.178844
     7  C    0.102727
     8  C    0.070710
     9  C   -0.203722
    10  C   -0.193414
    11  C    0.055810
    12  C    0.063474
    13  C   -0.292935
    14  C   -0.305396
    15  C   -0.270510
    16  C   -0.290844
    17  C   -0.152645
    18  C   -0.142497
    19  C   -0.327434
    20  C   -0.380467
    21  C   -0.084608
    22  C   -0.078139
    23  C    0.108593
    24  C    0.109672
    25  C   -0.369095
    26  C   -0.395128
    27  C   -0.135124
    28  C   -0.127168
    29  C   -0.064376
    30  C   -0.060954
    31  C   -0.086873
    32  C   -0.120186
    33  C    0.143593
    34  C    0.099564
    35  C   -0.382104
    36  C   -0.330487
    37  C   -0.148071
    38  C   -0.104386
    39  C   -0.093229
    40  C   -0.096722
    41  H    0.098061
    42  H    0.067130
    43  H    0.105409
    44  H    0.077360
    45  H    0.089560
    46  H    0.100562
    47  H    0.038759
    48  H    0.109684
    49  H    0.090631
    50  H    0.089279
    51  H    0.085150
    52  H    0.110145
    53  H    0.082402
    54  H    0.091630
    55  H    0.113014
    56  H    0.076048
    57  H    0.100066
    58  H    0.100213
    59  H    0.086156
    60  H    0.110014
    61  H    0.069968
    62  H    0.105138
    63  H    0.073749
    64  H    0.093554
    65  H    0.054641
    66  H    0.064232
    67  H    0.096201
    68  H    0.093745
    69  H    0.108005
    70  H    0.107307
    71  H    0.118035
    72  H    0.103730
    73  H    0.081517
    74  H    0.073989
    75  H    0.123425
    76  H    0.119055
    77  H    0.102211
    78  H    0.116087
    79  H    0.141949
    80  H    0.115055
    81  H    0.060209
    82  H    0.094265
    83  H    0.094601
    84  H    0.061818
    85  H    0.090321
    86  H    0.068114
    87  H    0.102173
    88  H    0.086604
    89  H    0.112047
    90  H    0.104957
    91  H    0.147267
    92  H    0.087919
    93  H    0.074056
    94  H    0.081674
    95  H    0.070673
    96  H    0.071217
 Sum of Mulliken charges =  -0.00000

 Dipole moment (field-independent basis, Debye):
    X=             -0.5164    Y=             -0.2997    Z=             -0.1294  Tot=              0.6109
 Quadrupole moment (field-independent basis, Debye-Ang):
   XX=           -219.8628   YY=           -235.5935   ZZ=           -255.9351
   XY=              1.0922   XZ=              0.6277   YZ=              2.5654

 Normal termination of Gaussian 16 at Tue Jul 30 07:01:09 2019.
