 Gaussian 16, Revision A.03,
 Gaussian 16:  ES64L-G16RevA.03 25-Dec-2016

 ---------------------------------
 # td=(NStates=1) B3LYP/6-31G(d,p)
 ---------------------------------

 --
 TD
 --
 Symbolic Z-matrix:
 Charge =  0 Multiplicity = 1

                         Standard orientation:
 ---------------------------------------------------------------------
 Center     Atomic      Atomic             Coordinates (Angstroms)
 Number     Number       Type             X           Y           Z
 ---------------------------------------------------------------------
      1          6           0       12.144676    0.430903   -0.934028
      2          6           0      -12.150926   -0.019803    0.856802
      3          6           0       13.419902   -0.370033   -0.725673
      4          6           0      -13.139171    1.016820    1.345185
      5          6           0       13.181857   -1.822388   -0.518303
      6          6           0      -13.486390    2.045875    0.221458
      7          6           0       11.041362    0.073054    0.183592
      8          6           0      -11.064378    0.436014   -0.083547
      9          6           0       12.383365   -2.061508    0.758679
     10          6           0      -12.203912    2.593078   -0.454667
     11          6           0       11.286421   -1.058545    0.905849
     12          6           0      -11.094507    1.630191   -0.783506
     13          6           0       11.398122    0.210935   -2.338258
     14          6           0       12.597585    1.903682   -0.773710
     15          6           0      -13.132443   -1.003225    0.059013
     16          6           0      -11.489869   -0.725559    2.000619
     17          6           0        9.944119    0.975182    0.255503
     18          6           0       -9.921898   -0.578685   -0.339301
     19          6           0       10.408989   -1.368756    2.127543
     20          6           0      -10.153630    2.118166   -1.779197
     21          6           0        8.581122    0.566670    0.248561
     22          6           0       -8.636927   -0.259206   -0.411182
     23          6           0        7.435988    1.426886    0.452029
     24          6           0       -7.558268   -1.317240   -0.581290
     25          6           0        7.638987    2.923349    0.639451
     26          6           0       -7.963492   -2.695958   -0.902085
     27          6           0        6.221091    0.813590    0.391172
     28          6           0       -6.197698   -0.892321   -0.406196
     29          6           0        4.884095    1.385982    0.479885
     30          6           0       -4.998507   -1.545154   -0.371045
     31          6           0        3.758494    0.643049    0.355124
     32          6           0       -3.737264   -1.044156   -0.227114
     33          6           0        2.396993    1.155003    0.388274
     34          6           0       -2.471312   -1.849528   -0.242777
     35          6           0        2.332569    2.666604    0.612716
     36          6           0       -2.601927   -3.248671   -0.523969
     37          6           0        1.254658    0.443717    0.324767
     38          6           0       -1.248667   -1.121020   -0.012932
     39          6           0        1.179964   -1.009316    0.093718
     40          6           0        0.079862   -1.710947   -0.165749
     41          1           0       13.831526    0.063358    0.251144
     42          1           0       14.126376   -0.204835   -1.613242
     43          1           0      -12.677499    1.655633    2.129106
     44          1           0      -13.761685    0.498545    1.916955
     45          1           0       14.267460   -2.246683   -0.516859
     46          1           0       12.554986   -2.392073   -1.395191
     47          1           0      -13.996681    2.963158    0.687117
     48          1           0      -14.093841    1.385323   -0.437990
     49          1           0       13.030964   -2.044477    1.795535
     50          1           0       11.883308   -3.008340    0.796591
     51          1           0      -11.620124    3.638160   -0.109206
     52          1           0      -12.609996    2.760845   -1.629087
     53          1           0       11.458645   -0.977857   -2.290175
     54          1           0       12.069870    0.780279   -3.126485
     55          1           0       10.509553    0.697409   -2.603434
     56          1           0       12.541031    2.088859    0.425815
     57          1           0       11.690652    2.575406   -1.215123
     58          1           0       13.462407    2.313437   -1.263348
     59          1           0      -13.554654   -0.822222   -0.922483
     60          1           0      -13.735705   -1.418789    0.862719
     61          1           0      -12.664238   -1.987652   -0.250105
     62          1           0      -10.929856   -0.136430    2.452444
     63          1           0      -11.131454   -1.673483    1.826374
     64          1           0      -12.167082   -0.998471    2.736529
     65          1           0       10.054767    2.066786    0.363822
     66          1           0      -10.284719   -1.502501   -0.560746
     67          1           0        9.928399   -0.577592    2.581685
     68          1           0       11.182696   -1.796881    2.946532
     69          1           0        9.554791   -2.095623    1.829804
     70          1           0       -9.451638    1.364796   -2.172532
     71          1           0       -9.484326    3.059900   -1.502946
     72          1           0      -11.038413    2.425627   -2.749119
     73          1           0        8.596994   -0.517348    0.030168
     74          1           0       -8.389190    0.906353   -0.016086
     75          1           0        8.097918    2.865290    1.651719
     76          1           0        6.550399    3.445930    0.865512
     77          1           0        8.171961    3.482213   -0.127114
     78          1           0       -8.478493   -2.811008   -1.826252
     79          1           0       -8.443691   -3.099514    0.069839
     80          1           0       -6.940261   -3.394672   -0.933645
     81          1           0        6.114866   -0.318705    0.332203
     82          1           0       -6.271260    0.078415   -0.161086
     83          1           0        5.003626    2.539852    0.445471
     84          1           0       -4.920148   -2.670054   -0.455527
     85          1           0        3.768520   -0.533715    0.090202
     86          1           0       -3.551959   -0.117202   -0.082894
     87          1           0        2.894672    3.073032    1.536352
     88          1           0        1.204374    2.917287    0.910349
     89          1           0        2.453960    3.595985   -0.289439
     90          1           0       -3.191716   -3.574085   -1.489184
     91          1           0       -3.311137   -3.702788    0.305519
     92          1           0       -1.612280   -3.735106   -0.389897
     93          1           0        0.445219    1.009738    0.192998
     94          1           0       -1.381613   -0.117690    0.126627
     95          1           0        2.110800   -1.525734   -0.066439
     96          1           0        0.218706   -2.790468   -0.715978
 ---------------------------------------------------------------------

 SCF Done:  E(RB3LYP) =  -1557.48874485     A.U. after   15 cycles

 Excitation energies and oscillator strengths:

 Excited State   1:      Singlet-A      2.2816 eV  543.42 nm  f=2.7598  <S**2>=0.000
     148 ->149         0.70494
 This state for optimization and/or second-order correction.
 Total Energy, E(TD-HF/TD-DFT) =  -1557.40489861
 Copying the excited state density for this state as the 1-particle RhoCI density.

 The electronic state is 1-A.
 Alpha  occ. eigenvalues --  -10.21017 -10.20963 -10.20778 -10.20533 -10.20490
 Alpha  occ. eigenvalues --  -10.20459 -10.20259 -10.20209 -10.20132 -10.20097
 Alpha  occ. eigenvalues --  -10.20081 -10.19904 -10.19866 -10.19786 -10.19767
 Alpha  occ. eigenvalues --  -10.19737 -10.19623 -10.19593 -10.19557 -10.19282
 Alpha  occ. eigenvalues --  -10.19135 -10.19101 -10.19027 -10.18784 -10.18776
 Alpha  occ. eigenvalues --  -10.18724 -10.18685 -10.18682 -10.18608 -10.18555
 Alpha  occ. eigenvalues --  -10.18494 -10.18251 -10.18215 -10.18163 -10.17884
 Alpha  occ. eigenvalues --  -10.17740 -10.17715 -10.17477 -10.16553 -10.14211
 Alpha  occ. eigenvalues --   -0.85127  -0.84767  -0.83540  -0.82869  -0.82065
 Alpha  occ. eigenvalues --   -0.81173  -0.79220  -0.78802  -0.77767  -0.77497
 Alpha  occ. eigenvalues --   -0.76806  -0.75208  -0.74394  -0.72340  -0.71573
 Alpha  occ. eigenvalues --   -0.69927  -0.69374  -0.68623  -0.68067  -0.67219
 Alpha  occ. eigenvalues --   -0.67039  -0.66708  -0.66461  -0.66272  -0.65783
 Alpha  occ. eigenvalues --   -0.62317  -0.61949  -0.59472  -0.58845  -0.56427
 Alpha  occ. eigenvalues --   -0.56405  -0.56227  -0.54290  -0.53930  -0.52690
 Alpha  occ. eigenvalues --   -0.52193  -0.51587  -0.50837  -0.49293  -0.48903
 Alpha  occ. eigenvalues --   -0.48333  -0.47878  -0.47491  -0.47231  -0.46019
 Alpha  occ. eigenvalues --   -0.45702  -0.45172  -0.44733  -0.44364  -0.44177
 Alpha  occ. eigenvalues --   -0.44093  -0.43719  -0.43416  -0.43018  -0.42756
 Alpha  occ. eigenvalues --   -0.42409  -0.41699  -0.41277  -0.40727  -0.40655
 Alpha  occ. eigenvalues --   -0.40271  -0.40253  -0.40222  -0.39408  -0.39097
 Alpha  occ. eigenvalues --   -0.38834  -0.38775  -0.38554  -0.38006  -0.37879
 Alpha  occ. eigenvalues --   -0.37677  -0.37509  -0.37308  -0.36367  -0.36164
 Alpha  occ. eigenvalues --   -0.35891  -0.35830  -0.35556  -0.35165  -0.34997
 Alpha  occ. eigenvalues --   -0.34415  -0.34138  -0.34030  -0.33961  -0.33435
 Alpha  occ. eigenvalues --   -0.33265  -0.33053  -0.32750  -0.32642  -0.32268
 Alpha  occ. eigenvalues --   -0.32131  -0.31958  -0.31752  -0.31388  -0.31007
 Alpha  occ. eigenvalues --   -0.30154  -0.29559  -0.29052  -0.28699  -0.28193
 Alpha  occ. eigenvalues --   -0.28032  -0.27403  -0.25997  -0.23793  -0.22374
 Alpha  occ. eigenvalues --   -0.21097  -0.18756  -0.16811
 Alpha virt. eigenvalues --   -0.07898  -0.05557  -0.01790   0.00376   0.02036
 Alpha virt. eigenvalues --    0.03419   0.04806   0.05421   0.06171   0.06377
 Alpha virt. eigenvalues --    0.06817   0.07106   0.07902   0.08086   0.08168

 Mulliken charges:
               1
     1  C    0.009563
     2  C   -0.028117
     3  C   -0.162538
     4  C   -0.153552
     5  C   -0.178326
     6  C   -0.194824
     7  C    0.060101
     8  C    0.057607
     9  C   -0.207205
    10  C   -0.191517
    11  C    0.053017
    12  C    0.083904
    13  C   -0.284533
    14  C   -0.300141
    15  C   -0.321417
    16  C   -0.291339
    17  C   -0.144556
    18  C   -0.113370
    19  C   -0.341866
    20  C   -0.327622
    21  C   -0.086878
    22  C   -0.100187
    23  C    0.089018
    24  C    0.081493
    25  C   -0.366221
    26  C   -0.371836
    27  C   -0.108726
    28  C   -0.088825
    29  C   -0.078630
    30  C   -0.071932
    31  C   -0.109779
    32  C   -0.073607
    33  C    0.118812
    34  C    0.129849
    35  C   -0.360881
    36  C   -0.394214
    37  C   -0.099576
    38  C   -0.112275
    39  C   -0.076744
    40  C   -0.107714
    41  H    0.098084
    42  H    0.086009
    43  H    0.071698
    44  H    0.093536
    45  H    0.082358
    46  H    0.080237
    47  H    0.095141
    48  H    0.111413
    49  H    0.083473
    50  H    0.119401
    51  H    0.083743
    52  H    0.065917
    53  H    0.085110
    54  H    0.067280
    55  H    0.122406
    56  H    0.081914
    57  H    0.064985
    58  H    0.110902
    59  H    0.117447
    60  H    0.101819
    61  H    0.076377
    62  H    0.117562
    63  H    0.106173
    64  H    0.085712
    65  H    0.084463
    66  H    0.091062
    67  H    0.127421
    68  H    0.073900
    69  H    0.100160
    70  H    0.126665
    71  H    0.099564
    72  H    0.044102
    73  H    0.082414
    74  H    0.077139
    75  H    0.137493
    76  H    0.086120
    77  H    0.135703
    78  H    0.134939
    79  H    0.121377
    80  H    0.084596
    81  H    0.071828
    82  H    0.065335
    83  H    0.086677
    84  H    0.059526
    85  H    0.072486
    86  H    0.046477
    87  H    0.117970
    88  H    0.081168
    89  H    0.078773
    90  H    0.120499
    91  H    0.111499
    92  H    0.106731
    93  H    0.080532
    94  H    0.086248
    95  H    0.077734
    96  H    0.086283
 Sum of Mulliken charges =  -0.00000

 Dipole moment (field-independent basis, Debye):
    X=             -0.4636    Y=             -0.5625    Z=              0.4800  Tot=              0.8727
 Quadrupole moment (field-independent basis, Debye-Ang):
   XX=           -223.2585   YY=           -237.4260   ZZ=           -256.4504
   XY=             10.4473   XZ=             -4.1495   YZ=              3.2738

 Normal termination of Gaussian 16 at Tue Jul 30 13:57:13 2019.
