 Gaussian 16, Revision A.03,
 Gaussian 16:  ES64L-G16RevA.03 25-Dec-2016

 ---------------------------------
 # td=(NStates=1) B3LYP/6-31G(d,p)
 ---------------------------------

 --
 TD
 --
 Symbolic Z-matrix:
 Charge =  0 Multiplicity = 1

                         Standard orientation:
 ---------------------------------------------------------------------
 Center     Atomic      Atomic             Coordinates (Angstroms)
 Number     Number       Type             X           Y           Z
 ---------------------------------------------------------------------
      1          6           0      -12.182183   -0.570894   -0.507118
      2          6           0       11.995263    0.063155    1.026946
      3          6           0      -13.487439    0.226938   -0.487094
      4          6           0       12.930094   -1.098751    1.495250
      5          6           0      -13.209686    1.774467   -0.457851
      6          6           0       13.505542   -1.987198    0.364208
      7          6           0      -11.010873    0.023554    0.389697
      8          6           0       10.975761   -0.416818   -0.030869
      9          6           0      -12.428919    2.218977    0.809907
     10          6           0       12.202285   -2.621005   -0.386890
     11          6           0      -11.213167    1.242995    1.017322
     12          6           0       10.995882   -1.635322   -0.611592
     13          6           0      -11.691324   -0.728411   -1.999534
     14          6           0      -12.573070   -1.943211   -0.033643
     15          6           0       13.082674    1.121358    0.369296
     16          6           0       11.301526    0.702863    2.227196
     17          6           0       -9.920151   -0.782360    0.372725
     18          6           0        9.934902    0.507427   -0.168899
     19          6           0      -10.213623    1.715664    2.028969
     20          6           0       10.016964   -2.091925   -1.685669
     21          6           0       -8.558167   -0.303482    0.431480
     22          6           0        8.552668    0.269980   -0.228805
     23          6           0       -7.405152   -1.206010    0.358794
     24          6           0        7.539489    1.356521   -0.429314
     25          6           0       -7.568183   -2.617459    0.739293
     26          6           0        8.009392    2.770610   -0.684839
     27          6           0       -6.157439   -0.662178    0.198576
     28          6           0        6.229466    0.842985   -0.354890
     29          6           0       -4.870362   -1.424414   -0.052986
     30          6           0        5.087474    1.648007   -0.458500
     31          6           0       -3.635150   -0.778089   -0.170282
     32          6           0        3.788980    1.067474   -0.401404
     33          6           0       -2.364379   -1.343383    0.028219
     34          6           0        2.559177    1.815840   -0.727680
     35          6           0       -2.136580   -2.861531    0.285996
     36          6           0        2.617089    3.224360   -1.097158
     37          6           0       -1.173401   -0.612823   -0.117625
     38          6           0        1.392221    1.048645   -0.454671
     39          6           0       -1.074438    0.808375   -0.231767
     40          6           0        0.013387    1.551401   -0.471162
     41          1           0      -14.068736   -0.102798    0.358932
     42          1           0      -13.993761   -0.055749   -1.508860
     43          1           0       12.366652   -1.826518    2.156021
     44          1           0       13.802283   -0.399576    2.087445
     45          1           0      -14.218300    2.207845   -0.253014
     46          1           0      -12.859134    2.182800   -1.516330
     47          1           0       14.080721   -2.866701    0.586120
     48          1           0       14.001667   -1.458055   -0.616113
     49          1           0      -12.960554    2.221953    1.755956
     50          1           0      -12.021362    3.234892    0.570903
     51          1           0       11.592091   -3.317030    0.225527
     52          1           0       12.319126   -3.115156   -1.420356
     53          1           0      -11.323124    0.180522   -2.280607
     54          1           0      -12.481367   -1.342111   -2.541041
     55          1           0      -10.857750   -1.496075   -2.095671
     56          1           0      -12.887911   -1.948444    1.066072
     57          1           0      -11.763665   -2.810568   -0.104640
     58          1           0      -13.262118   -2.387965   -0.507615
     59          1           0       13.779011    0.654211   -0.612045
     60          1           0       13.563441    1.611324    1.128227
     61          1           0       12.310354    2.015515   -0.172527
     62          1           0       10.648980    0.034557    2.660563
     63          1           0       10.816778    1.772971    1.915137
     64          1           0       12.216701    0.935371    2.963430
     65          1           0       -9.796416   -1.962005    0.354274
     66          1           0       10.283480    1.651664   -0.100748
     67          1           0       -9.607528    0.993728    2.591578
     68          1           0      -10.503424    2.422676    2.685514
     69          1           0       -9.479359    2.526731    1.592629
     70          1           0        9.277386   -1.369169   -2.040703
     71          1           0        9.552936   -2.798404   -1.248854
     72          1           0       10.702350   -2.491697   -2.501804
     73          1           0       -8.298079    0.693657    0.071576
     74          1           0        8.269600   -0.677491   -0.192556
     75          1           0       -8.233265   -2.707644    1.456817
     76          1           0       -6.680314   -3.155741    1.135124
     77          1           0       -7.991773   -3.075345   -0.158154
     78          1           0        8.454937    3.036964   -1.582383
     79          1           0        8.431442    3.369182    0.283061
     80          1           0        6.883445    3.244966   -0.670843
     81          1           0       -5.938866    0.440059   -0.046800
     82          1           0        6.142845   -0.130595    0.032336
     83          1           0       -4.952294   -2.516953   -0.222056
     84          1           0        5.083791    2.704584   -0.956039
     85          1           0       -3.628440    0.172034   -0.366572
     86          1           0        3.810106    0.009925    0.160988
     87          1           0       -2.668189   -3.184632    1.093504
     88          1           0       -1.055476   -3.156505    0.178008
     89          1           0       -2.652766   -3.431120   -0.471929
     90          1           0        3.280338    3.405637   -1.933706
     91          1           0        3.046029    3.792026   -0.288515
     92          1           0        1.447660    3.724179   -1.062428
     93          1           0       -0.264268   -1.094539    0.143373
     94          1           0        1.483352   -0.040966   -0.363167
     95          1           0       -2.315185    1.125261   -0.466070
     96          1           0       -0.023361    2.656312   -0.312757
 ---------------------------------------------------------------------

 SCF Done:  E(RB3LYP) =  -1557.48289288     A.U. after   16 cycles

 Excitation energies and oscillator strengths:

 Excited State   1:      Singlet-A      1.8904 eV  655.86 nm  f=2.6945  <S**2>=0.000
     148 ->149         0.70519
     148 <-149        -0.10776
 This state for optimization and/or second-order correction.
 Total Energy, E(TD-HF/TD-DFT) =  -1557.41342160
 Copying the excited state density for this state as the 1-particle RhoCI density.

 The electronic state is 1-A.
 Alpha  occ. eigenvalues --  -10.20663 -10.20612 -10.20588 -10.20570 -10.20402
 Alpha  occ. eigenvalues --  -10.20318 -10.20079 -10.20009 -10.20009 -10.19956
 Alpha  occ. eigenvalues --  -10.19907 -10.19842 -10.19797 -10.19739 -10.19681
 Alpha  occ. eigenvalues --  -10.19637 -10.19553 -10.19463 -10.19446 -10.19324
 Alpha  occ. eigenvalues --  -10.19267 -10.19150 -10.19003 -10.18851 -10.18816
 Alpha  occ. eigenvalues --  -10.18815 -10.18506 -10.18388 -10.18370 -10.18305
 Alpha  occ. eigenvalues --  -10.18062 -10.17696 -10.17539 -10.17206 -10.17187
 Alpha  occ. eigenvalues --  -10.17122 -10.17068 -10.17067 -10.16745 -10.16377
 Alpha  occ. eigenvalues --   -0.84585  -0.84287  -0.83034  -0.82338  -0.81734
 Alpha  occ. eigenvalues --   -0.80688  -0.78476  -0.78148  -0.77891  -0.77018
 Alpha  occ. eigenvalues --   -0.76520  -0.74372  -0.73665  -0.72078  -0.71490
 Alpha  occ. eigenvalues --   -0.70060  -0.69412  -0.68511  -0.68204  -0.67864
 Alpha  occ. eigenvalues --   -0.67415  -0.67044  -0.66595  -0.65799  -0.65148
 Alpha  occ. eigenvalues --   -0.62591  -0.61450  -0.59501  -0.58539  -0.57409
 Alpha  occ. eigenvalues --   -0.56634  -0.55246  -0.54615  -0.53607  -0.52618
 Alpha  occ. eigenvalues --   -0.52125  -0.51726  -0.50127  -0.48953  -0.48874
 Alpha  occ. eigenvalues --   -0.47663  -0.47257  -0.46688  -0.45937  -0.45760
 Alpha  occ. eigenvalues --   -0.45722  -0.44642  -0.44395  -0.44172  -0.43636
 Alpha  occ. eigenvalues --   -0.43480  -0.43313  -0.43206  -0.42797  -0.42715
 Alpha  occ. eigenvalues --   -0.42490  -0.42231  -0.41998  -0.41483  -0.41127
 Alpha  occ. eigenvalues --   -0.40543  -0.39985  -0.39815  -0.39587  -0.39108
 Alpha  occ. eigenvalues --   -0.38937  -0.38843  -0.38601  -0.38156  -0.37824
 Alpha  occ. eigenvalues --   -0.37639  -0.37135  -0.36983  -0.36798  -0.36357
 Alpha  occ. eigenvalues --   -0.36092  -0.35687  -0.35517  -0.35400  -0.35092
 Alpha  occ. eigenvalues --   -0.34815  -0.34653  -0.34070  -0.33830  -0.33744
 Alpha  occ. eigenvalues --   -0.33312  -0.33037  -0.32695  -0.32471  -0.31841
 Alpha  occ. eigenvalues --   -0.31795  -0.31777  -0.31441  -0.31141  -0.30904
 Alpha  occ. eigenvalues --   -0.29966  -0.29660  -0.29237  -0.28590  -0.28296
 Alpha  occ. eigenvalues --   -0.28088  -0.27283  -0.26086  -0.24306  -0.22273
 Alpha  occ. eigenvalues --   -0.20278  -0.17711  -0.15439
 Alpha virt. eigenvalues --   -0.08368  -0.05554  -0.02371   0.00030   0.02712
 Alpha virt. eigenvalues --    0.04492   0.05245   0.05379   0.06455   0.07005
 Alpha virt. eigenvalues --    0.07367   0.07530   0.07784   0.08132   0.08332

 Mulliken charges:
               1
     1  C   -0.007406
     2  C   -0.021286
     3  C   -0.164933
     4  C   -0.147260
     5  C   -0.199872
     6  C   -0.170860
     7  C    0.108439
     8  C    0.133461
     9  C   -0.218848
    10  C   -0.237318
    11  C    0.038432
    12  C   -0.007289
    13  C   -0.295465
    14  C   -0.291199
    15  C   -0.271760
    16  C   -0.273320
    17  C   -0.138516
    18  C   -0.149525
    19  C   -0.356552
    20  C   -0.341832
    21  C   -0.106959
    22  C   -0.094803
    23  C    0.108241
    24  C    0.103951
    25  C   -0.379560
    26  C   -0.369075
    27  C   -0.139464
    28  C   -0.102076
    29  C   -0.109345
    30  C   -0.099608
    31  C   -0.081544
    32  C   -0.121233
    33  C    0.111458
    34  C    0.118779
    35  C   -0.376205
    36  C   -0.383927
    37  C   -0.122330
    38  C   -0.115836
    39  C   -0.063840
    40  C   -0.108632
    41  H    0.096883
    42  H    0.080118
    43  H    0.091043
    44  H    0.056989
    45  H    0.090990
    46  H    0.093209
    47  H    0.113736
    48  H    0.085476
    49  H    0.120479
    50  H    0.110887
    51  H    0.107364
    52  H    0.087038
    53  H    0.113206
    54  H    0.090205
    55  H    0.091652
    56  H    0.085366
    57  H    0.063762
    58  H    0.110809
    59  H    0.084027
    60  H    0.119747
    61  H    0.048388
    62  H    0.123006
    63  H    0.089653
    64  H    0.072188
    65  H    0.085694
    66  H    0.067167
    67  H    0.123637
    68  H    0.105262
    69  H    0.082767
    70  H    0.123026
    71  H    0.131677
    72  H    0.094958
    73  H    0.085802
    74  H    0.062684
    75  H    0.137039
    76  H    0.111446
    77  H    0.122362
    78  H    0.140876
    79  H    0.109690
    80  H    0.080842
    81  H    0.072794
    82  H    0.085460
    83  H    0.084586
    84  H    0.074466
    85  H    0.063917
    86  H    0.074081
    87  H    0.126642
    88  H    0.107727
    89  H    0.116232
    90  H    0.134993
    91  H    0.137786
    92  H    0.087467
    93  H    0.076312
    94  H    0.086119
    95  H    0.044271
    96  H    0.080912
 Sum of Mulliken charges =  -0.00000

 Dipole moment (field-independent basis, Debye):
    X=             -0.8595    Y=             -0.6620    Z=              0.4117  Tot=              1.1603
 Quadrupole moment (field-independent basis, Debye-Ang):
   XX=           -212.2638   YY=           -232.0085   ZZ=           -255.5517
   XY=             -7.6535   XZ=             -1.4711   YZ=             -0.5518

 Normal termination of Gaussian 16 at Tue Jul 23 06:21:24 2019.
