 Gaussian 16, Revision A.03,
 Gaussian 16:  ES64L-G16RevA.03 25-Dec-2016

 ---------------------------------
 # td=(NStates=1) B3LYP/6-31G(d,p)
 ---------------------------------

 --
 TD
 --
 Symbolic Z-matrix:
 Charge =  0 Multiplicity = 1

                         Standard orientation:
 ---------------------------------------------------------------------
 Center     Atomic      Atomic             Coordinates (Angstroms)
 Number     Number       Type             X           Y           Z
 ---------------------------------------------------------------------
      1          6           0       12.181860    0.577156   -0.694073
      2          6           0      -12.182601   -0.179380    0.773413
      3          6           0       13.500939   -0.322756   -0.603225
      4          6           0      -13.235626    0.864909    1.218672
      5          6           0       13.210766   -1.872827   -0.667153
      6          6           0      -13.547279    1.903224    0.046924
      7          6           0       11.014049   -0.093123    0.150257
      8          6           0      -11.100717    0.431116   -0.083146
      9          6           0       12.348516   -2.279809    0.520989
     10          6           0      -12.292558    2.590204   -0.511524
     11          6           0       11.192000   -1.345284    0.709846
     12          6           0      -11.134505    1.603613   -0.699990
     13          6           0       11.653859    0.691982   -2.188934
     14          6           0       12.523850    1.902763   -0.186223
     15          6           0      -12.956801   -1.314628    0.074183
     16          6           0      -11.471590   -0.719937    2.160002
     17          6           0        9.878586    0.818990    0.439180
     18          6           0       -9.951282   -0.469494   -0.272363
     19          6           0       10.299092   -1.906992    1.726956
     20          6           0      -10.121429    2.152208   -1.638010
     21          6           0        8.578662    0.468470    0.394355
     22          6           0       -8.551197   -0.183991   -0.224836
     23          6           0        7.371830    1.360983    0.603668
     24          6           0       -7.484847   -1.266786   -0.343382
     25          6           0        7.735270    2.821683    0.944283
     26          6           0       -7.839355   -2.649122   -0.691335
     27          6           0        6.178792    0.809459    0.330258
     28          6           0       -6.216508   -0.795654   -0.341695
     29          6           0        4.897445    1.566170    0.351492
     30          6           0       -5.033842   -1.674692   -0.448517
     31          6           0        3.762040    0.748951    0.214993
     32          6           0       -3.801243   -0.993702   -0.261020
     33          6           0        2.441543    1.304515    0.205160
     34          6           0       -2.525624   -1.788630   -0.260760
     35          6           0        2.303800    2.849000    0.333526
     36          6           0       -2.520230   -3.264242   -0.580799
     37          6           0        1.355693    0.603656    0.071437
     38          6           0       -1.342836   -1.068662   -0.253615
     39          6           0        1.165287   -0.749312   -0.095842
     40          6           0        0.009982   -1.525607   -0.289187
     41          1           0       14.013386    0.012527    0.303533
     42          1           0       14.307742    0.152841   -1.388762
     43          1           0      -12.928624    1.513990    2.230193
     44          1           0      -14.166670    0.481910    1.474786
     45          1           0       14.222594   -2.352723   -0.783712
     46          1           0       12.635598   -1.964132   -1.699823
     47          1           0      -14.294771    2.656471    0.519571
     48          1           0      -14.057422    1.217081   -0.797347
     49          1           0       12.877124   -1.972599    1.583410
     50          1           0       12.044314   -3.294627    0.221718
     51          1           0      -12.165047    3.449000    0.236732
     52          1           0      -12.478685    3.243306   -1.249687
     53          1           0       11.289002   -0.255740   -2.639876
     54          1           0       12.402566    1.316437   -2.802639
     55          1           0       10.849982    1.371591   -1.966805
     56          1           0       12.732581    1.621989    0.903251
     57          1           0       11.712764    2.635271   -0.455086
     58          1           0       13.556151    2.043219   -0.834637
     59          1           0      -13.529120   -0.560110   -0.783175
     60          1           0      -13.752825   -1.567791    0.657883
     61          1           0      -12.300218   -2.022402   -0.394482
     62          1           0      -11.095103    0.225554    2.741571
     63          1           0      -10.533792   -1.524723    2.018671
     64          1           0      -12.416672   -1.272358    2.667234
     65          1           0       10.163537    1.892509    0.628555
     66          1           0      -10.230690   -1.586740   -0.521732
     67          1           0        9.751368   -1.177849    2.215115
     68          1           0       10.891572   -2.461650    2.398500
     69          1           0        9.397898   -2.536986    1.291711
     70          1           0       -9.436089    1.467103   -2.150226
     71          1           0       -9.494342    2.922352   -1.267770
     72          1           0      -10.604837    2.562246   -2.452996
     73          1           0        8.210543   -0.557891    0.124212
     74          1           0       -8.323791    0.713980    0.131197
     75          1           0        8.346106    2.947999    2.010405
     76          1           0        6.709652    3.178449    1.256782
     77          1           0        8.192194    3.471600    0.184780
     78          1           0       -8.241005   -2.589352   -1.902252
     79          1           0       -8.836453   -3.024253   -0.170480
     80          1           0       -7.030223   -3.395616   -0.221655
     81          1           0        5.994686   -0.281293    0.079980
     82          1           0       -6.017383    0.244245   -0.094387
     83          1           0        4.900247    2.713792    0.564898
     84          1           0       -5.319947   -2.670923   -0.595492
     85          1           0        3.804560   -0.398053    0.306410
     86          1           0       -3.914695   -0.013450   -0.216470
     87          1           0        2.765085    3.171092    1.219426
     88          1           0        1.437886    3.161142    0.318933
     89          1           0        2.947390    3.393047   -0.346119
     90          1           0       -3.043850   -3.632105   -1.581730
     91          1           0       -3.223969   -3.920974    0.215633
     92          1           0       -1.535957   -3.610547   -0.556986
     93          1           0        0.293835    1.192554    0.487050
     94          1           0       -1.551497    0.019492   -0.163222
     95          1           0        2.068861   -1.386108   -0.210047
     96          1           0        0.241709   -2.588331   -0.348325
 ---------------------------------------------------------------------

 SCF Done:  E(RB3LYP) =  -1557.52925340     A.U. after   15 cycles

 Excitation energies and oscillator strengths:

 Excited State   1:      Singlet-A      2.2289 eV  556.26 nm  f=2.9092  <S**2>=0.000
     148 ->149         0.70358
 This state for optimization and/or second-order correction.
 Total Energy, E(TD-HF/TD-DFT) =  -1557.44734317
 Copying the excited state density for this state as the 1-particle RhoCI density.

 The electronic state is 1-A.
 Alpha  occ. eigenvalues --  -10.21811 -10.20970 -10.20676 -10.20553 -10.20430
 Alpha  occ. eigenvalues --  -10.20379 -10.20224 -10.20144 -10.20027 -10.20009
 Alpha  occ. eigenvalues --  -10.19809 -10.19791 -10.19778 -10.19603 -10.19562
 Alpha  occ. eigenvalues --  -10.19486 -10.19374 -10.19229 -10.19202 -10.19140
 Alpha  occ. eigenvalues --  -10.19050 -10.19002 -10.19000 -10.18904 -10.18820
 Alpha  occ. eigenvalues --  -10.18750 -10.18741 -10.18741 -10.18718 -10.18611
 Alpha  occ. eigenvalues --  -10.18505 -10.18459 -10.18262 -10.18208 -10.18180
 Alpha  occ. eigenvalues --  -10.17772 -10.17125 -10.16504 -10.16079 -10.16034
 Alpha  occ. eigenvalues --   -0.84677  -0.84330  -0.83970  -0.82620  -0.81711
 Alpha  occ. eigenvalues --   -0.81001  -0.79308  -0.78352  -0.78017  -0.76863
 Alpha  occ. eigenvalues --   -0.76253  -0.74673  -0.73919  -0.72009  -0.71558
 Alpha  occ. eigenvalues --   -0.70751  -0.68584  -0.68221  -0.67617  -0.67314
 Alpha  occ. eigenvalues --   -0.67269  -0.66863  -0.66205  -0.65936  -0.65578
 Alpha  occ. eigenvalues --   -0.62538  -0.61166  -0.59317  -0.58355  -0.56972
 Alpha  occ. eigenvalues --   -0.56914  -0.55130  -0.54996  -0.53848  -0.53461
 Alpha  occ. eigenvalues --   -0.52548  -0.51473  -0.49572  -0.49380  -0.48205
 Alpha  occ. eigenvalues --   -0.47919  -0.47277  -0.47140  -0.46507  -0.45991
 Alpha  occ. eigenvalues --   -0.45746  -0.45484  -0.44907  -0.44185  -0.43769
 Alpha  occ. eigenvalues --   -0.43450  -0.43243  -0.42449  -0.42252  -0.42062
 Alpha  occ. eigenvalues --   -0.41544  -0.41436  -0.41211  -0.41115  -0.40765
 Alpha  occ. eigenvalues --   -0.40428  -0.40109  -0.39838  -0.39533  -0.39350
 Alpha  occ. eigenvalues --   -0.39241  -0.39153  -0.38396  -0.38091  -0.38028
 Alpha  occ. eigenvalues --   -0.37733  -0.37233  -0.37135  -0.36988  -0.36702
 Alpha  occ. eigenvalues --   -0.36379  -0.36031  -0.35915  -0.35734  -0.35234
 Alpha  occ. eigenvalues --   -0.35090  -0.34873  -0.34452  -0.33926  -0.33881
 Alpha  occ. eigenvalues --   -0.33540  -0.32750  -0.32649  -0.32226  -0.32163
 Alpha  occ. eigenvalues --   -0.32112  -0.31588  -0.31174  -0.30929  -0.30732
 Alpha  occ. eigenvalues --   -0.30257  -0.29545  -0.29399  -0.28830  -0.28014
 Alpha  occ. eigenvalues --   -0.27693  -0.27225  -0.26226  -0.24192  -0.22774
 Alpha  occ. eigenvalues --   -0.20853  -0.19057  -0.16599
 Alpha virt. eigenvalues --   -0.08147  -0.04693  -0.01859   0.00417   0.02184
 Alpha virt. eigenvalues --    0.04099   0.05013   0.05821   0.06167   0.06521
 Alpha virt. eigenvalues --    0.06650   0.06849   0.07570   0.07750   0.07941

 Mulliken charges:
               1
     1  C   -0.015237
     2  C   -0.019173
     3  C   -0.178754
     4  C   -0.165774
     5  C   -0.191606
     6  C   -0.196587
     7  C    0.067058
     8  C    0.095521
     9  C   -0.199694
    10  C   -0.197834
    11  C    0.045489
    12  C    0.076204
    13  C   -0.284269
    14  C   -0.278203
    15  C   -0.274728
    16  C   -0.278215
    17  C   -0.152800
    18  C   -0.146904
    19  C   -0.345994
    20  C   -0.380975
    21  C   -0.079764
    22  C   -0.087017
    23  C    0.105725
    24  C    0.106453
    25  C   -0.366623
    26  C   -0.367340
    27  C   -0.116672
    28  C   -0.107997
    29  C   -0.094568
    30  C   -0.062302
    31  C   -0.124662
    32  C   -0.112045
    33  C    0.133372
    34  C    0.111567
    35  C   -0.347846
    36  C   -0.352326
    37  C   -0.123296
    38  C   -0.102113
    39  C   -0.089667
    40  C   -0.105622
    41  H    0.085142
    42  H    0.055091
    43  H    0.059768
    44  H    0.100648
    45  H    0.091208
    46  H    0.090262
    47  H    0.078486
    48  H    0.076522
    49  H    0.102634
    50  H    0.116802
    51  H    0.087991
    52  H    0.105095
    53  H    0.102948
    54  H    0.080498
    55  H    0.102434
    56  H    0.103483
    57  H    0.095583
    58  H    0.077703
    59  H    0.058520
    60  H    0.119093
    61  H    0.110392
    62  H    0.099885
    63  H    0.084233
    64  H    0.073448
    65  H    0.086380
    66  H    0.062433
    67  H    0.123688
    68  H    0.101638
    69  H    0.090546
    70  H    0.113726
    71  H    0.117579
    72  H    0.111313
    73  H    0.070609
    74  H    0.080223
    75  H    0.100005
    76  H    0.098064
    77  H    0.133723
    78  H    0.109363
    79  H    0.103536
    80  H    0.108645
    81  H    0.088822
    82  H    0.074038
    83  H    0.097982
    84  H    0.078849
    85  H    0.091737
    86  H    0.080366
    87  H    0.116062
    88  H    0.102329
    89  H    0.116079
    90  H    0.111759
    91  H    0.079700
    92  H    0.118756
    93  H    0.048914
    94  H    0.078805
    95  H    0.069160
    96  H    0.082522
 Sum of Mulliken charges =  -0.00000

 Dipole moment (field-independent basis, Debye):
    X=             -0.3908    Y=              0.3622    Z=              0.3742  Tot=              0.6511
 Quadrupole moment (field-independent basis, Debye-Ang):
   XX=           -237.3224   YY=           -233.3121   ZZ=           -258.7279
   XY=             -4.2610   XZ=              5.5427   YZ=              2.6594

 Normal termination of Gaussian 16 at Sun Jul 28 00:47:38 2019.
