 Gaussian 16, Revision A.03,
 Gaussian 16:  ES64L-G16RevA.03 25-Dec-2016

 ---------------------------------
 # td=(NStates=1) B3LYP/6-31G(d,p)
 ---------------------------------

 --
 TD
 --
 Symbolic Z-matrix:
 Charge =  0 Multiplicity = 1

                         Standard orientation:
 ---------------------------------------------------------------------
 Center     Atomic      Atomic             Coordinates (Angstroms)
 Number     Number       Type             X           Y           Z
 ---------------------------------------------------------------------
      1          6           0       12.207941    0.468100   -0.630508
      2          6           0      -12.139268   -0.152437    0.993656
      3          6           0       13.451035   -0.452453   -0.542350
      4          6           0      -13.114759    1.149475    1.390102
      5          6           0       13.115615   -1.923597   -0.366344
      6          6           0      -13.520680    1.929517    0.218059
      7          6           0       11.037286   -0.002941    0.352729
      8          6           0      -11.112004    0.368647    0.056367
      9          6           0       12.379335   -2.061833    0.901885
     10          6           0      -12.215984    2.505759   -0.474936
     11          6           0       11.232249   -1.156742    1.093856
     12          6           0      -11.017304    1.508269   -0.726113
     13          6           0       11.536829    0.474811   -2.058014
     14          6           0       12.630894    1.949417   -0.209471
     15          6           0      -12.964658   -1.254971    0.343121
     16          6           0      -11.427084   -0.591142    2.275805
     17          6           0        9.899628    0.822512    0.314476
     18          6           0       -9.910149   -0.617361   -0.184858
     19          6           0       10.154039   -1.631392    2.024076
     20          6           0      -10.097861    2.043099   -1.675032
     21          6           0        8.588073    0.501972    0.227717
     22          6           0       -8.630665   -0.347026   -0.221689
     23          6           0        7.336709    1.355561    0.392390
     24          6           0       -7.487092   -1.319123   -0.350830
     25          6           0        7.671704    2.852802    0.579806
     26          6           0       -7.694666   -2.722237   -0.848263
     27          6           0        6.136243    0.782885    0.265046
     28          6           0       -6.190700   -0.795416   -0.294014
     29          6           0        4.921289    1.502991    0.235310
     30          6           0       -4.974267   -1.598907   -0.444957
     31          6           0        3.698095    0.788045    0.016922
     32          6           0       -3.818310   -0.975398   -0.428530
     33          6           0        2.392430    1.386311    0.066297
     34          6           0       -2.566654   -1.697740   -0.421753
     35          6           0        2.267929    2.822964    0.289526
     36          6           0       -2.545725   -3.207390   -0.840081
     37          6           0        1.239583    0.587964   -0.071832
     38          6           0       -1.414465   -1.073972   -0.418004
     39          6           0        1.100004   -0.806652   -0.342696
     40          6           0       -0.062190   -1.588465   -0.502121
     41          1           0       14.045257   -0.192086    0.363919
     42          1           0       13.935146   -0.385590   -1.491499
     43          1           0      -12.622916    1.980379    1.936933
     44          1           0      -14.047649    0.813577    1.836976
     45          1           0       14.012903   -2.548176   -0.300014
     46          1           0       12.400140   -2.121637   -1.169861
     47          1           0      -14.201240    2.835685    0.424008
     48          1           0      -13.903109    1.465333   -0.588906
     49          1           0       13.078977   -1.788774    1.654341
     50          1           0       12.094343   -3.167487    1.121523
     51          1           0      -11.890845    3.304962    0.242610
     52          1           0      -12.470936    3.081396   -1.340950
     53          1           0       11.451226   -0.780263   -2.379188
     54          1           0       12.222264    0.813689   -2.914332
     55          1           0       10.510130    0.672096   -2.359628
     56          1           0       12.995023    1.803661    0.801345
     57          1           0       11.794894    2.710670   -0.309720
     58          1           0       13.444826    2.344356   -0.855562
     59          1           0      -13.510058   -0.896559   -0.523124
     60          1           0      -13.731174   -1.676701    0.986637
     61          1           0      -12.227986   -2.153224    0.077468
     62          1           0      -10.901943    0.345467    2.781343
     63          1           0      -10.495568   -1.343240    1.993509
     64          1           0      -12.185207   -1.063183    2.957763
     65          1           0       10.010359    1.893602    0.412953
     66          1           0      -10.270004   -1.592825   -0.146698
     67          1           0        9.511763   -0.999820    2.424421
     68          1           0       10.884802   -1.905346    3.051759
     69          1           0        9.593360   -2.676342    1.689934
     70          1           0       -9.313034    1.121873   -1.801898
     71          1           0       -9.570752    2.793365   -1.197034
     72          1           0      -10.410674    2.470385   -2.604375
     73          1           0        8.145094   -0.620314    0.120611
     74          1           0       -8.349253    0.658359    0.019809
     75          1           0        8.320044    2.831686    1.483809
     76          1           0        6.654558    3.375527    0.756848
     77          1           0        8.093694    3.353811   -0.393399
     78          1           0       -8.264814   -3.057428   -1.623772
     79          1           0       -8.339485   -3.169984    0.061323
     80          1           0       -6.859658   -3.531569   -0.883869
     81          1           0        6.079727   -0.263761    0.037654
     82          1           0       -6.065075    0.228436   -0.255272
     83          1           0        4.828136    2.605279    0.337543
     84          1           0       -5.061070   -2.562526   -0.743210
     85          1           0        4.043748   -0.320823   -0.178424
     86          1           0       -3.870228    0.260619   -0.099566
     87          1           0        2.822413    3.176493    1.220313
     88          1           0        1.233826    3.158782    0.282788
     89          1           0        2.839691    3.404491   -0.410713
     90          1           0       -3.057418   -3.220497   -1.853890
     91          1           0       -3.143513   -3.701225   -0.119122
     92          1           0       -1.656875   -3.521270   -0.859648
     93          1           0        0.225332    1.110005   -0.230507
     94          1           0       -1.649152   -0.141161   -0.383493
     95          1           0        2.032709   -1.428682   -0.478945
     96          1           0        0.210695   -2.726921   -0.490033
 ---------------------------------------------------------------------

 SCF Done:  E(RB3LYP) =  -1557.56994898     A.U. after   15 cycles

 Excitation energies and oscillator strengths:

 Excited State   1:      Singlet-A      2.2426 eV  552.85 nm  f=2.9081  <S**2>=0.000
     148 ->149         0.70301
     148 <-149        -0.10000
 This state for optimization and/or second-order correction.
 Total Energy, E(TD-HF/TD-DFT) =  -1557.48753328
 Copying the excited state density for this state as the 1-particle RhoCI density.

 The electronic state is 1-A.
 Alpha  occ. eigenvalues --  -10.21048 -10.20992 -10.20774 -10.20670 -10.20267
 Alpha  occ. eigenvalues --  -10.20043 -10.20010 -10.19995 -10.19621 -10.19592
 Alpha  occ. eigenvalues --  -10.19565 -10.19530 -10.19414 -10.19413 -10.19336
 Alpha  occ. eigenvalues --  -10.19239 -10.19230 -10.19213 -10.19182 -10.18982
 Alpha  occ. eigenvalues --  -10.18753 -10.18598 -10.18454 -10.18417 -10.18374
 Alpha  occ. eigenvalues --  -10.18173 -10.18151 -10.18094 -10.18034 -10.17896
 Alpha  occ. eigenvalues --  -10.17788 -10.17770 -10.17573 -10.17496 -10.17445
 Alpha  occ. eigenvalues --  -10.17232 -10.17214 -10.16867 -10.16562 -10.16393
 Alpha  occ. eigenvalues --   -0.85032  -0.84579  -0.83882  -0.83113  -0.81682
 Alpha  occ. eigenvalues --   -0.81246  -0.78863  -0.78601  -0.78310  -0.77646
 Alpha  occ. eigenvalues --   -0.76938  -0.75557  -0.74500  -0.72920  -0.71695
 Alpha  occ. eigenvalues --   -0.70498  -0.68777  -0.68369  -0.67975  -0.67648
 Alpha  occ. eigenvalues --   -0.67282  -0.67107  -0.66896  -0.66031  -0.65773
 Alpha  occ. eigenvalues --   -0.62435  -0.61173  -0.59570  -0.58397  -0.56696
 Alpha  occ. eigenvalues --   -0.56635  -0.55850  -0.54907  -0.54460  -0.53879
 Alpha  occ. eigenvalues --   -0.53153  -0.51953  -0.50197  -0.49656  -0.49363
 Alpha  occ. eigenvalues --   -0.48467  -0.48054  -0.47127  -0.46598  -0.46331
 Alpha  occ. eigenvalues --   -0.45814  -0.44918  -0.44774  -0.44207  -0.43853
 Alpha  occ. eigenvalues --   -0.43476  -0.43103  -0.43053  -0.42369  -0.42259
 Alpha  occ. eigenvalues --   -0.41907  -0.41720  -0.41617  -0.41367  -0.41045
 Alpha  occ. eigenvalues --   -0.40792  -0.40513  -0.40035  -0.39652  -0.39606
 Alpha  occ. eigenvalues --   -0.38914  -0.38729  -0.38623  -0.38254  -0.38154
 Alpha  occ. eigenvalues --   -0.38099  -0.37478  -0.37219  -0.37121  -0.36731
 Alpha  occ. eigenvalues --   -0.36497  -0.36076  -0.35984  -0.35490  -0.35200
 Alpha  occ. eigenvalues --   -0.35115  -0.34794  -0.34463  -0.34408  -0.33750
 Alpha  occ. eigenvalues --   -0.33485  -0.33320  -0.32664  -0.32526  -0.32416
 Alpha  occ. eigenvalues --   -0.32146  -0.32096  -0.31684  -0.31542  -0.30711
 Alpha  occ. eigenvalues --   -0.30259  -0.30086  -0.29574  -0.28947  -0.28567
 Alpha  occ. eigenvalues --   -0.27603  -0.26380  -0.26198  -0.23831  -0.22386
 Alpha  occ. eigenvalues --   -0.20935  -0.19009  -0.16462
 Alpha virt. eigenvalues --   -0.08026  -0.04464  -0.01668   0.00786   0.02336
 Alpha virt. eigenvalues --    0.04400   0.06100   0.06953   0.07257   0.07385
 Alpha virt. eigenvalues --    0.07759   0.07936   0.08216   0.08428   0.08768

 Mulliken charges:
               1
     1  C    0.008123
     2  C   -0.013359
     3  C   -0.177104
     4  C   -0.163524
     5  C   -0.182200
     6  C   -0.190785
     7  C    0.074269
     8  C    0.073403
     9  C   -0.219746
    10  C   -0.247926
    11  C    0.076163
    12  C    0.088288
    13  C   -0.306352
    14  C   -0.303507
    15  C   -0.299108
    16  C   -0.278527
    17  C   -0.154449
    18  C   -0.137336
    19  C   -0.318551
    20  C   -0.376483
    21  C   -0.078468
    22  C   -0.098058
    23  C    0.101474
    24  C    0.100337
    25  C   -0.362973
    26  C   -0.374968
    27  C   -0.119801
    28  C   -0.129308
    29  C   -0.074269
    30  C   -0.038587
    31  C   -0.121078
    32  C   -0.112804
    33  C    0.127801
    34  C    0.059190
    35  C   -0.389032
    36  C   -0.342218
    37  C   -0.130499
    38  C   -0.053110
    39  C   -0.078268
    40  C   -0.120123
    41  H    0.087480
    42  H    0.098601
    43  H    0.095540
    44  H    0.085209
    45  H    0.091614
    46  H    0.103879
    47  H    0.076480
    48  H    0.107951
    49  H    0.109842
    50  H    0.088780
    51  H    0.085886
    52  H    0.083011
    53  H    0.040052
    54  H    0.089668
    55  H    0.132927
    56  H    0.105818
    57  H    0.097551
    58  H    0.096424
    59  H    0.116685
    60  H    0.105253
    61  H    0.089110
    62  H    0.096340
    63  H    0.083264
    64  H    0.096113
    65  H    0.084957
    66  H    0.071922
    67  H    0.132217
    68  H    0.044255
    69  H    0.089795
    70  H    0.097424
    71  H    0.132721
    72  H    0.118996
    73  H    0.049766
    74  H    0.090007
    75  H    0.129070
    76  H    0.093797
    77  H    0.118984
    78  H    0.141123
    79  H    0.085735
    80  H    0.102934
    81  H    0.082564
    82  H    0.074298
    83  H    0.077665
    84  H    0.080509
    85  H    0.080025
    86  H    0.057465
    87  H    0.114843
    88  H    0.115427
    89  H    0.126847
    90  H    0.113613
    91  H    0.115441
    92  H    0.108924
    93  H    0.074907
    94  H    0.053385
    95  H    0.073550
    96  H    0.086829
 Sum of Mulliken charges =  -0.00000

 Dipole moment (field-independent basis, Debye):
    X=             -0.5282    Y=              0.4055    Z=             -0.4196  Tot=              0.7871
 Quadrupole moment (field-independent basis, Debye-Ang):
   XX=           -213.3639   YY=           -233.9064   ZZ=           -256.8458
   XY=              1.0807   XZ=              2.9607   YZ=              1.4186

 Normal termination of Gaussian 16 at Tue Jul 30 11:57:10 2019.
