 Gaussian 16, Revision A.03,
 Gaussian 16:  ES64L-G16RevA.03 25-Dec-2016

 ---------------------------------
 # td=(NStates=1) B3LYP/6-31G(d,p)
 ---------------------------------

 --
 TD
 --
 Symbolic Z-matrix:
 Charge =  0 Multiplicity = 1

                         Standard orientation:
 ---------------------------------------------------------------------
 Center     Atomic      Atomic             Coordinates (Angstroms)
 Number     Number       Type             X           Y           Z
 ---------------------------------------------------------------------
      1          6           0       12.172183    0.601997   -0.607046
      2          6           0      -12.086013   -0.045716    0.964264
      3          6           0       13.512175   -0.289568   -0.350771
      4          6           0      -13.112776    1.171987    1.334105
      5          6           0       13.267791   -1.760649   -0.315113
      6          6           0      -13.455412    2.071275    0.055712
      7          6           0       11.106008    0.113806    0.298068
      8          6           0      -11.118208    0.415388   -0.081588
      9          6           0       12.364634   -2.123054    0.792962
     10          6           0      -12.137314    2.609509   -0.457339
     11          6           0       11.177604   -1.178066    0.841429
     12          6           0      -11.078955    1.637522   -0.656931
     13          6           0       11.707442    0.524577   -2.044099
     14          6           0       12.491749    2.032550   -0.320434
     15          6           0      -12.919010   -1.157045    0.237077
     16          6           0      -11.536578   -0.589802    2.229919
     17          6           0        9.969361    0.917177    0.416467
     18          6           0       -9.978897   -0.590486   -0.210547
     19          6           0       10.081489   -1.841742    1.816029
     20          6           0      -10.024678    2.047131   -1.661672
     21          6           0        8.653556    0.564575    0.149475
     22          6           0       -8.621934   -0.323545   -0.159984
     23          6           0        7.487827    1.385695    0.246672
     24          6           0       -7.594915   -1.367330   -0.410486
     25          6           0        7.642830    2.787990    0.638901
     26          6           0       -8.004251   -2.715656   -0.687764
     27          6           0        6.239311    0.692256    0.238380
     28          6           0       -6.208737   -0.927430   -0.329776
     29          6           0        5.011822    1.361004    0.259015
     30          6           0       -5.082917   -1.783928   -0.495721
     31          6           0        3.722264    0.756005    0.168837
     32          6           0       -3.786629   -1.190609   -0.334125
     33          6           0        2.295131    1.297000    0.113106
     34          6           0       -2.548516   -1.832449   -0.454656
     35          6           0        2.280517    2.779626    0.307438
     36          6           0       -2.494552   -3.279173   -0.856354
     37          6           0        1.221695    0.458036    0.032021
     38          6           0       -1.372298   -1.089943   -0.265879
     39          6           0        1.140124   -0.978094   -0.001143
     40          6           0       -0.023543   -1.621944   -0.343969
     41          1           0       13.961776    0.032300    0.642374
     42          1           0       14.147370   -0.286287   -1.190510
     43          1           0      -12.469487    1.683992    2.042764
     44          1           0      -13.977378    0.913164    1.888109
     45          1           0       14.356049   -2.319493   -0.235712
     46          1           0       12.825599   -2.168639   -1.208388
     47          1           0      -14.206921    2.981904    0.425874
     48          1           0      -14.072549    1.686739   -0.703794
     49          1           0       12.854796   -2.024397    1.734283
     50          1           0       11.963916   -3.120835    0.550419
     51          1           0      -11.894845    3.484124    0.433576
     52          1           0      -12.421698    2.993647   -1.446329
     53          1           0       11.370588   -0.534577   -2.488263
     54          1           0       12.446642    0.902429   -2.696048
     55          1           0       10.706553    1.127920   -2.137018
     56          1           0       12.711311    2.157347    0.749952
     57          1           0       11.665417    2.712071   -0.521749
     58          1           0       13.357846    2.297961   -0.880689
     59          1           0      -13.203999   -0.792302   -0.824009
     60          1           0      -13.926183   -1.119782    0.868056
     61          1           0      -12.359842   -2.072187    0.237063
     62          1           0      -11.025116    0.207341    2.562282
     63          1           0      -11.080667   -1.588425    2.032468
     64          1           0      -12.312054   -0.587202    2.924522
     65          1           0       10.119656    1.979086    0.636612
     66          1           0      -10.243377   -1.524755   -0.469746
     67          1           0        9.414105   -1.014352    2.133262
     68          1           0       10.531841   -2.365958    2.562884
     69          1           0        9.535805   -2.487555    1.257105
     70          1           0       -9.267317    1.359199   -1.910121
     71          1           0       -9.383806    2.829007   -1.331442
     72          1           0      -10.288677    2.454782   -2.567510
     73          1           0        8.560200   -0.418175   -0.252010
     74          1           0       -8.407253    0.776862   -0.117977
     75          1           0        8.117487    3.056818    1.680451
     76          1           0        6.636529    3.022705    0.515193
     77          1           0        8.200851    3.267313   -0.146222
     78          1           0       -8.863903   -2.706678   -1.433201
     79          1           0       -8.455897   -3.146450    0.264914
     80          1           0       -7.216160   -3.227156   -1.104931
     81          1           0        6.314977   -0.540735    0.083583
     82          1           0       -6.153404    0.160782   -0.089678
     83          1           0        4.802821    2.341855    0.523862
     84          1           0       -5.172466   -2.738657   -0.686808
     85          1           0        3.691166   -0.327802   -0.086962
     86          1           0       -3.839782   -0.025583   -0.399141
     87          1           0        2.426973    3.056133    1.383689
     88          1           0        1.276473    3.214627    0.323697
     89          1           0        2.746316    3.225784   -0.417445
     90          1           0       -3.018287   -3.595486   -1.835586
     91          1           0       -2.976226   -4.020304   -0.039135
     92          1           0       -1.513526   -3.472367   -1.112069
     93          1           0        0.260822    1.207434    0.153087
     94          1           0       -1.529100   -0.011023   -0.006991
     95          1           0        1.973411   -1.515247   -0.096399
     96          1           0        0.146338   -2.614175   -0.741063
 ---------------------------------------------------------------------

 SCF Done:  E(RB3LYP) =  -1557.60300400     A.U. after   16 cycles

 Excitation energies and oscillator strengths:

 Excited State   1:      Singlet-A      1.9686 eV  629.79 nm  f=2.7440  <S**2>=0.000
     147 ->149        -0.14025
     148 ->149         0.69841
     148 <-149        -0.11291
 This state for optimization and/or second-order correction.
 Total Energy, E(TD-HF/TD-DFT) =  -1557.53065749
 Copying the excited state density for this state as the 1-particle RhoCI density.

 The electronic state is 1-A.
 Alpha  occ. eigenvalues --  -10.20616 -10.20457 -10.20215 -10.20203 -10.19993
 Alpha  occ. eigenvalues --  -10.19665 -10.19656 -10.19651 -10.19559 -10.19455
 Alpha  occ. eigenvalues --  -10.19270 -10.19262 -10.19245 -10.19190 -10.19178
 Alpha  occ. eigenvalues --  -10.19046 -10.19023 -10.18982 -10.18844 -10.18800
 Alpha  occ. eigenvalues --  -10.18632 -10.18555 -10.18487 -10.18390 -10.17999
 Alpha  occ. eigenvalues --  -10.17870 -10.17858 -10.17831 -10.17771 -10.17696
 Alpha  occ. eigenvalues --  -10.17683 -10.17678 -10.17541 -10.17441 -10.17198
 Alpha  occ. eigenvalues --  -10.17184 -10.16449 -10.15941 -10.15773 -10.15755
 Alpha  occ. eigenvalues --   -0.85359  -0.85065  -0.83295  -0.82752  -0.82078
 Alpha  occ. eigenvalues --   -0.81239  -0.79299  -0.79236  -0.78518  -0.77335
 Alpha  occ. eigenvalues --   -0.76609  -0.75122  -0.74610  -0.72349  -0.72163
 Alpha  occ. eigenvalues --   -0.70260  -0.69458  -0.68641  -0.68409  -0.68017
 Alpha  occ. eigenvalues --   -0.67712  -0.67355  -0.67077  -0.66496  -0.66087
 Alpha  occ. eigenvalues --   -0.63153  -0.61862  -0.60039  -0.58194  -0.56895
 Alpha  occ. eigenvalues --   -0.56217  -0.56153  -0.55512  -0.54880  -0.53241
 Alpha  occ. eigenvalues --   -0.52153  -0.51826  -0.50261  -0.49723  -0.48895
 Alpha  occ. eigenvalues --   -0.48142  -0.47841  -0.47156  -0.46541  -0.46095
 Alpha  occ. eigenvalues --   -0.46031  -0.45348  -0.45120  -0.44952  -0.44550
 Alpha  occ. eigenvalues --   -0.44252  -0.43961  -0.43274  -0.43185  -0.42675
 Alpha  occ. eigenvalues --   -0.42164  -0.42111  -0.41697  -0.41597  -0.41473
 Alpha  occ. eigenvalues --   -0.40939  -0.40381  -0.39946  -0.39654  -0.39449
 Alpha  occ. eigenvalues --   -0.39403  -0.39215  -0.39108  -0.38749  -0.38344
 Alpha  occ. eigenvalues --   -0.38046  -0.37769  -0.37441  -0.37070  -0.36976
 Alpha  occ. eigenvalues --   -0.36648  -0.36380  -0.35934  -0.35519  -0.35430
 Alpha  occ. eigenvalues --   -0.34858  -0.34556  -0.34303  -0.34082  -0.34032
 Alpha  occ. eigenvalues --   -0.33939  -0.33405  -0.33037  -0.33033  -0.32455
 Alpha  occ. eigenvalues --   -0.32368  -0.32153  -0.31521  -0.31311  -0.31074
 Alpha  occ. eigenvalues --   -0.30617  -0.30323  -0.29725  -0.28431  -0.27813
 Alpha  occ. eigenvalues --   -0.27164  -0.27035  -0.25911  -0.23436  -0.22209
 Alpha  occ. eigenvalues --   -0.21208  -0.18109  -0.15939
 Alpha virt. eigenvalues --   -0.08691  -0.05765  -0.01860   0.00731   0.02042
 Alpha virt. eigenvalues --    0.03690   0.05674   0.06751   0.07114   0.07209
 Alpha virt. eigenvalues --    0.07746   0.08148   0.08483   0.08622   0.09010

 Mulliken charges:
               1
     1  C   -0.007289
     2  C   -0.030845
     3  C   -0.166919
     4  C   -0.197349
     5  C   -0.182607
     6  C   -0.182328
     7  C    0.104875
     8  C    0.071608
     9  C   -0.203566
    10  C   -0.210173
    11  C    0.004655
    12  C    0.092333
    13  C   -0.286861
    14  C   -0.305652
    15  C   -0.283271
    16  C   -0.279265
    17  C   -0.162522
    18  C   -0.137199
    19  C   -0.358843
    20  C   -0.387140
    21  C   -0.079395
    22  C   -0.094040
    23  C    0.087319
    24  C    0.092606
    25  C   -0.358590
    26  C   -0.374294
    27  C   -0.106250
    28  C   -0.111330
    29  C   -0.083639
    30  C   -0.064078
    31  C   -0.139322
    32  C   -0.134950
    33  C    0.085511
    34  C    0.131401
    35  C   -0.373627
    36  C   -0.363468
    37  C   -0.104700
    38  C   -0.106705
    39  C   -0.084588
    40  C   -0.102409
    41  H    0.085889
    42  H    0.091685
    43  H    0.089152
    44  H    0.090513
    45  H    0.050763
    46  H    0.100831
    47  H    0.053728
    48  H    0.108787
    49  H    0.115217
    50  H    0.096370
    51  H    0.073821
    52  H    0.095674
    53  H    0.078361
    54  H    0.104467
    55  H    0.093667
    56  H    0.097260
    57  H    0.100787
    58  H    0.101817
    59  H    0.094010
    60  H    0.081033
    61  H    0.100214
    62  H    0.113640
    63  H    0.097480
    64  H    0.106242
    65  H    0.076632
    66  H    0.074636
    67  H    0.114946
    68  H    0.109967
    69  H    0.123428
    70  H    0.119524
    71  H    0.110771
    72  H    0.109106
    73  H    0.070929
    74  H    0.082601
    75  H    0.116034
    76  H    0.113519
    77  H    0.120036
    78  H    0.115137
    79  H    0.123807
    80  H    0.116823
    81  H    0.077697
    82  H    0.081250
    83  H    0.096523
    84  H    0.077496
    85  H    0.057381
    86  H    0.076197
    87  H    0.126504
    88  H    0.094390
    89  H    0.136045
    90  H    0.106528
    91  H    0.104176
    92  H    0.116472
    93  H    0.063847
    94  H    0.084761
    95  H    0.086062
    96  H    0.088268
 Sum of Mulliken charges =  -0.00000

 Dipole moment (field-independent basis, Debye):
    X=             -0.5373    Y=             -0.3021    Z=             -0.5473  Tot=              0.8244
 Quadrupole moment (field-independent basis, Debye-Ang):
   XX=           -231.9194   YY=           -234.4072   ZZ=           -252.7123
   XY=              1.1884   XZ=              0.9954   YZ=              3.8063

 Normal termination of Gaussian 16 at Sat Jul 27 11:38:01 2019.
