 Gaussian 16, Revision A.03,
 Gaussian 16:  ES64L-G16RevA.03 25-Dec-2016

 ---------------------------------
 # td=(NStates=1) B3LYP/6-31G(d,p)
 ---------------------------------

 --
 TD
 --
 Symbolic Z-matrix:
 Charge =  0 Multiplicity = 1

                         Standard orientation:
 ---------------------------------------------------------------------
 Center     Atomic      Atomic             Coordinates (Angstroms)
 Number     Number       Type             X           Y           Z
 ---------------------------------------------------------------------
      1          6           0       12.239208    0.550959   -0.794050
      2          6           0      -12.091238   -0.043496    0.942700
      3          6           0       13.432278   -0.358292   -0.736598
      4          6           0      -13.028140    1.095051    1.292159
      5          6           0       13.019576   -1.850008   -0.673570
      6          6           0      -13.367925    1.993623    0.135562
      7          6           0       11.090808   -0.020521    0.187347
      8          6           0      -10.993486    0.451275   -0.065511
      9          6           0       12.385749   -2.058937    0.599518
     10          6           0      -12.183018    2.627294   -0.524266
     11          6           0       11.217011   -1.183161    0.940782
     12          6           0      -11.065389    1.661362   -0.768861
     13          6           0       11.667631    0.533112   -2.173800
     14          6           0       12.641372    1.972647   -0.428225
     15          6           0      -13.074910   -1.054536    0.075804
     16          6           0      -11.411483   -0.748088    2.176094
     17          6           0        9.874545    0.823361    0.249931
     18          6           0       -9.945398   -0.525079   -0.407513
     19          6           0       10.325231   -1.507979    2.061945
     20          6           0      -10.170564    2.037490   -1.797182
     21          6           0        8.540367    0.363679    0.372144
     22          6           0       -8.604120   -0.301686   -0.346391
     23          6           0        7.397247    1.350955    0.495312
     24          6           0       -7.555207   -1.279008   -0.511926
     25          6           0        7.674593    2.880124    0.675917
     26          6           0       -7.929030   -2.692014   -0.723354
     27          6           0        6.190323    0.713569    0.410626
     28          6           0       -6.228294   -0.839577   -0.305332
     29          6           0        4.928423    1.362017    0.558221
     30          6           0       -5.057321   -1.592039   -0.469723
     31          6           0        3.790460    0.621936    0.324430
     32          6           0       -3.808080   -1.054017   -0.231507
     33          6           0        2.399179    1.154148    0.282725
     34          6           0       -2.540691   -1.823486   -0.355238
     35          6           0        2.303860    2.646338    0.625328
     36          6           0       -2.636864   -3.254832   -0.585760
     37          6           0        1.230899    0.534204    0.139101
     38          6           0       -1.398593   -1.073829   -0.163480
     39          6           0        1.085199   -0.863521   -0.045611
     40          6           0       -0.024873   -1.523829   -0.260480
     41          1           0       13.968264   -0.136268    0.169783
     42          1           0       14.008975   -0.328894   -1.528379
     43          1           0      -12.445884    1.417005    2.126825
     44          1           0      -13.866431    0.470825    1.849048
     45          1           0       13.993284   -2.581581   -0.655388
     46          1           0       12.643001   -1.950348   -1.664073
     47          1           0      -14.100951    2.669540    0.475293
     48          1           0      -14.154662    1.209781   -0.543994
     49          1           0       13.068442   -1.941812    1.351807
     50          1           0       11.807238   -3.052418    0.751457
     51          1           0      -11.898841    3.413907    0.347271
     52          1           0      -12.610675    3.294140   -1.321955
     53          1           0       11.577796   -0.512494   -2.917812
     54          1           0       12.465422    0.900143   -2.671510
     55          1           0       10.609652    1.079278   -2.615277
     56          1           0       13.096361    2.335014    0.699820
     57          1           0       11.836996    2.567831   -0.457801
     58          1           0       13.463077    2.358181   -1.229649
     59          1           0      -13.538306   -0.657443   -0.737512
     60          1           0      -13.814497   -1.354579    0.829584
     61          1           0      -12.446837   -2.042097   -0.236327
     62          1           0      -10.624154   -0.054098    2.374455
     63          1           0      -10.763561   -1.700190    1.869417
     64          1           0      -12.184236   -0.858014    2.883057
     65          1           0       10.087572    1.820867    0.347921
     66          1           0      -10.388078   -1.647748   -0.173489
     67          1           0        9.444521   -0.781128    2.376329
     68          1           0       11.104240   -1.906942    2.815586
     69          1           0        9.881715   -2.683742    1.874253
     70          1           0       -9.730290    1.247048   -2.181805
     71          1           0       -9.470627    2.747708   -1.344810
     72          1           0      -10.828718    2.674300   -2.711686
     73          1           0        8.260470   -0.800842    0.164393
     74          1           0       -8.445966    0.739125   -0.052238
     75          1           0        8.349763    3.238630    1.541641
     76          1           0        6.765246    3.190304    0.913338
     77          1           0        8.211814    3.240172   -0.292949
     78          1           0       -8.642323   -2.766657   -1.620401
     79          1           0       -8.630937   -3.208826   -0.170883
     80          1           0       -7.254077   -3.316694   -0.789683
     81          1           0        6.173419   -0.282995    0.202225
     82          1           0       -6.144860    0.320420   -0.256952
     83          1           0        4.788503    2.389296    0.784617
     84          1           0       -5.375620   -2.682135   -0.611941
     85          1           0        3.984280   -0.460166    0.114320
     86          1           0       -3.756186    0.088791   -0.111421
     87          1           0        3.013610    2.910704    1.390064
     88          1           0        1.245833    2.988552    0.617901
     89          1           0        2.587341    3.284944   -0.399243
     90          1           0       -3.108723   -3.429373   -1.543221
     91          1           0       -3.304795   -3.593299    0.191975
     92          1           0       -1.626344   -3.640026   -0.673095
     93          1           0        0.312077    1.279525   -0.067411
     94          1           0       -1.549904   -0.013859   -0.023109
     95          1           0        2.041606   -1.287268   -0.117854
     96          1           0       -0.000043   -2.555337   -0.404117
 ---------------------------------------------------------------------

 SCF Done:  E(RB3LYP) =  -1557.46469934     A.U. after   15 cycles

 Excitation energies and oscillator strengths:

 Excited State   1:      Singlet-A      2.2324 eV  555.39 nm  f=2.9570  <S**2>=0.000
     148 ->149         0.70293
 This state for optimization and/or second-order correction.
 Total Energy, E(TD-HF/TD-DFT) =  -1557.38266054
 Copying the excited state density for this state as the 1-particle RhoCI density.

 The electronic state is 1-A.
 Alpha  occ. eigenvalues --  -10.20847 -10.20648 -10.20477 -10.20263 -10.20169
 Alpha  occ. eigenvalues --  -10.20016 -10.19859 -10.19817 -10.19772 -10.19649
 Alpha  occ. eigenvalues --  -10.19633 -10.19589 -10.19530 -10.19350 -10.19274
 Alpha  occ. eigenvalues --  -10.19251 -10.19220 -10.19194 -10.19036 -10.18951
 Alpha  occ. eigenvalues --  -10.18799 -10.18743 -10.18629 -10.18531 -10.18460
 Alpha  occ. eigenvalues --  -10.18377 -10.18243 -10.18134 -10.18102 -10.18091
 Alpha  occ. eigenvalues --  -10.17908 -10.17828 -10.17815 -10.17694 -10.17666
 Alpha  occ. eigenvalues --  -10.17551 -10.17289 -10.17112 -10.16410 -10.16299
 Alpha  occ. eigenvalues --   -0.85759  -0.84848  -0.83756  -0.83077  -0.82212
 Alpha  occ. eigenvalues --   -0.81374  -0.79956  -0.79052  -0.78744  -0.77673
 Alpha  occ. eigenvalues --   -0.77137  -0.75607  -0.74771  -0.72899  -0.71976
 Alpha  occ. eigenvalues --   -0.70497  -0.69487  -0.68964  -0.68287  -0.68086
 Alpha  occ. eigenvalues --   -0.67673  -0.67416  -0.66712  -0.66133  -0.65777
 Alpha  occ. eigenvalues --   -0.62384  -0.61623  -0.59713  -0.59063  -0.56879
 Alpha  occ. eigenvalues --   -0.56131  -0.55334  -0.55147  -0.54028  -0.52954
 Alpha  occ. eigenvalues --   -0.52730  -0.52040  -0.50442  -0.50164  -0.49498
 Alpha  occ. eigenvalues --   -0.48395  -0.47536  -0.47350  -0.46806  -0.46619
 Alpha  occ. eigenvalues --   -0.46404  -0.45787  -0.45372  -0.44835  -0.43837
 Alpha  occ. eigenvalues --   -0.43615  -0.43388  -0.43146  -0.42927  -0.42298
 Alpha  occ. eigenvalues --   -0.42252  -0.41922  -0.41701  -0.41117  -0.41097
 Alpha  occ. eigenvalues --   -0.40474  -0.40100  -0.39967  -0.39555  -0.39390
 Alpha  occ. eigenvalues --   -0.39084  -0.38988  -0.38827  -0.38571  -0.38262
 Alpha  occ. eigenvalues --   -0.37951  -0.37758  -0.37533  -0.36908  -0.36792
 Alpha  occ. eigenvalues --   -0.36578  -0.36450  -0.35871  -0.35764  -0.35606
 Alpha  occ. eigenvalues --   -0.35051  -0.34753  -0.34347  -0.34147  -0.33711
 Alpha  occ. eigenvalues --   -0.33615  -0.33481  -0.33131  -0.32891  -0.32199
 Alpha  occ. eigenvalues --   -0.31771  -0.31611  -0.31575  -0.31439  -0.30779
 Alpha  occ. eigenvalues --   -0.30452  -0.30171  -0.29052  -0.28850  -0.27997
 Alpha  occ. eigenvalues --   -0.27716  -0.27317  -0.26129  -0.23670  -0.22048
 Alpha  occ. eigenvalues --   -0.20387  -0.18111  -0.16363
 Alpha virt. eigenvalues --   -0.07662  -0.05286  -0.01656   0.00547   0.02353
 Alpha virt. eigenvalues --    0.04363   0.05709   0.06272   0.06641   0.06977
 Alpha virt. eigenvalues --    0.07624   0.07853   0.07966   0.08206   0.08422

 Mulliken charges:
               1
     1  C    0.003171
     2  C   -0.020312
     3  C   -0.177354
     4  C   -0.161474
     5  C   -0.181088
     6  C   -0.158906
     7  C    0.041269
     8  C    0.054712
     9  C   -0.197647
    10  C   -0.215299
    11  C    0.089618
    12  C    0.088703
    13  C   -0.274393
    14  C   -0.286983
    15  C   -0.289093
    16  C   -0.309805
    17  C   -0.132122
    18  C   -0.153136
    19  C   -0.351575
    20  C   -0.338942
    21  C   -0.124348
    22  C   -0.102723
    23  C    0.084111
    24  C    0.122832
    25  C   -0.350541
    26  C   -0.364107
    27  C   -0.101202
    28  C   -0.123118
    29  C   -0.065927
    30  C   -0.081543
    31  C   -0.126117
    32  C   -0.126130
    33  C    0.119728
    34  C    0.111727
    35  C   -0.365228
    36  C   -0.370387
    37  C   -0.124063
    38  C   -0.102601
    39  C   -0.073072
    40  C   -0.095273
    41  H    0.095845
    42  H    0.091246
    43  H    0.089448
    44  H    0.066789
    45  H    0.058517
    46  H    0.108339
    47  H    0.101764
    48  H    0.046129
    49  H    0.119003
    50  H    0.081513
    51  H    0.087787
    52  H    0.105772
    53  H    0.064746
    54  H    0.111339
    55  H    0.086981
    56  H    0.074214
    57  H    0.121087
    58  H    0.081496
    59  H    0.121059
    60  H    0.089173
    61  H    0.063566
    62  H    0.122140
    63  H    0.093655
    64  H    0.107037
    65  H    0.080270
    66  H    0.058999
    67  H    0.132780
    68  H    0.102162
    69  H    0.062472
    70  H    0.129614
    71  H    0.117773
    72  H    0.055140
    73  H    0.084346
    74  H    0.088476
    75  H    0.112098
    76  H    0.120869
    77  H    0.122094
    78  H    0.107467
    79  H    0.125472
    80  H    0.104550
    81  H    0.077647
    82  H    0.068198
    83  H    0.083509
    84  H    0.078805
    85  H    0.076947
    86  H    0.083691
    87  H    0.124708
    88  H    0.109928
    89  H    0.077209
    90  H    0.129465
    91  H    0.131731
    92  H    0.110015
    93  H    0.068947
    94  H    0.070111
    95  H    0.079319
    96  H    0.065184
 Sum of Mulliken charges =  -0.00000

 Dipole moment (field-independent basis, Debye):
    X=              1.7061    Y=              0.4750    Z=              0.1492  Tot=              1.7773
 Quadrupole moment (field-independent basis, Debye-Ang):
   XX=           -221.7647   YY=           -235.0858   ZZ=           -255.9171
   XY=              3.4050   XZ=             -4.7253   YZ=              2.7636

 Normal termination of Gaussian 16 at Sun Jul 28 10:27:24 2019.
