 Gaussian 16, Revision A.03,
 Gaussian 16:  ES64L-G16RevA.03 25-Dec-2016

 ---------------------------------
 # td=(NStates=1) B3LYP/6-31G(d,p)
 ---------------------------------

 --
 TD
 --
 Symbolic Z-matrix:
 Charge =  0 Multiplicity = 1

                         Standard orientation:
 ---------------------------------------------------------------------
 Center     Atomic      Atomic             Coordinates (Angstroms)
 Number     Number       Type             X           Y           Z
 ---------------------------------------------------------------------
      1          6           0       12.175368    0.603754   -0.781176
      2          6           0      -12.155209   -0.006477    0.911595
      3          6           0       13.385140   -0.280364   -0.625329
      4          6           0      -12.988856    1.256878    1.302286
      5          6           0       13.098776   -1.842577   -0.466746
      6          6           0      -13.275216    2.097477    0.165116
      7          6           0       11.042260    0.047185    0.234108
      8          6           0      -10.970052    0.378085   -0.105304
      9          6           0       12.373434   -2.093843    0.799829
     10          6           0      -12.028248    2.721770   -0.579978
     11          6           0       11.160808   -1.125794    0.948582
     12          6           0      -11.040972    1.616499   -0.807289
     13          6           0       11.553987    0.431105   -2.151573
     14          6           0       12.644079    2.027363   -0.558810
     15          6           0      -13.018691   -1.048571    0.162989
     16          6           0      -11.481544   -0.597046    2.166682
     17          6           0        9.890061    0.965229    0.366898
     18          6           0       -9.887732   -0.668793   -0.290040
     19          6           0       10.083381   -1.572891    1.851612
     20          6           0      -10.149681    1.963487   -1.849473
     21          6           0        8.602932    0.527133    0.354526
     22          6           0       -8.571696   -0.401324   -0.249567
     23          6           0        7.406631    1.317863    0.398458
     24          6           0       -7.530128   -1.310683   -0.366901
     25          6           0        7.614616    2.839775    0.628455
     26          6           0       -7.853531   -2.765603   -0.758434
     27          6           0        6.186313    0.730231    0.377633
     28          6           0       -6.313039   -0.862121   -0.209894
     29          6           0        4.851621    1.315064    0.427335
     30          6           0       -5.101486   -1.746326   -0.259801
     31          6           0        3.698683    0.552895    0.167140
     32          6           0       -3.874733   -1.123341   -0.293834
     33          6           0        2.427393    1.158336    0.280855
     34          6           0       -2.533583   -1.763910   -0.413669
     35          6           0        2.347066    2.664508    0.571767
     36          6           0       -2.584636   -3.356986   -0.614443
     37          6           0        1.164627    0.467749    0.210588
     38          6           0       -1.384277   -1.111636   -0.293253
     39          6           0        1.104991   -0.933461   -0.082585
     40          6           0       -0.063532   -1.518961   -0.358597
     41          1           0       13.997887   -0.187733    0.263713
     42          1           0       14.135167   -0.421199   -1.587099
     43          1           0      -12.268587    1.706809    2.030389
     44          1           0      -13.813561    1.097651    1.878236
     45          1           0       14.055859   -2.392070   -0.530471
     46          1           0       12.578272   -2.116244   -1.242389
     47          1           0      -13.978820    2.880356    0.610212
     48          1           0      -13.866750    1.674293   -0.695583
     49          1           0       12.941047   -1.868613    1.813294
     50          1           0       11.891798   -3.100839    0.885840
     51          1           0      -11.519324    3.476447    0.001685
     52          1           0      -12.410044    3.242456   -1.530449
     53          1           0       11.272568   -0.433513   -2.443801
     54          1           0       12.305284    0.737672   -2.931345
     55          1           0       10.779044    0.936583   -2.285245
     56          1           0       12.718929    2.343534    0.590076
     57          1           0       12.055278    2.986289   -1.080474
     58          1           0       13.488665    2.083243   -0.979717
     59          1           0      -13.194361   -0.690917   -0.968809
     60          1           0      -13.813843   -1.169864    0.608266
     61          1           0      -12.565888   -2.088922   -0.023913
     62          1           0      -10.896570    0.352269    2.473106
     63          1           0      -10.763793   -1.312674    1.919569
     64          1           0      -12.132396   -0.850536    2.967019
     65          1           0       10.157664    1.988870    0.512574
     66          1           0      -10.212706   -1.476649   -0.367281
     67          1           0        9.119921   -0.901894    1.989760
     68          1           0       10.473334   -2.014591    2.838190
     69          1           0        9.474936   -2.290379    1.142853
     70          1           0       -9.413600    0.911173   -2.023683
     71          1           0       -9.488192    2.818206   -1.466939
     72          1           0      -10.423587    2.461939   -2.815380
     73          1           0        8.324507   -0.455523    0.135366
     74          1           0       -8.344619    0.610290    0.100797
     75          1           0        8.406176    2.943729    1.317845
     76          1           0        6.730689    3.413753    1.140208
     77          1           0        8.187554    3.116441   -0.310720
     78          1           0       -8.276121   -2.730707   -1.759025
     79          1           0       -8.684084   -3.168758   -0.166187
     80          1           0       -6.860297   -3.373508   -0.739204
     81          1           0        6.214593   -0.236761    0.227352
     82          1           0       -6.027324    0.166730   -0.087927
     83          1           0        4.892355    2.387808    0.667530
     84          1           0       -5.156311   -2.840435   -0.525639
     85          1           0        3.947560   -0.433538   -0.100458
     86          1           0       -3.624839   -0.022518   -0.087681
     87          1           0        2.365756    2.984620    1.547659
     88          1           0        1.220467    2.907210    0.284684
     89          1           0        3.072414    3.178965   -0.192636
     90          1           0       -3.271860   -3.282287   -1.618633
     91          1           0       -2.968521   -3.883531    0.323805
     92          1           0       -1.554259   -3.732599   -0.983093
     93          1           0        0.316800    1.035797    0.663294
     94          1           0       -1.633512   -0.087694    0.005131
     95          1           0        1.939665   -1.670604   -0.111541
     96          1           0        0.067640   -2.518109   -0.541673
 ---------------------------------------------------------------------

 SCF Done:  E(RB3LYP) =  -1557.49222515     A.U. after   15 cycles

 Excitation energies and oscillator strengths:

 Excited State   1:      Singlet-A      2.2461 eV  552.01 nm  f=2.9844  <S**2>=0.000
     148 ->149         0.70222
 This state for optimization and/or second-order correction.
 Total Energy, E(TD-HF/TD-DFT) =  -1557.40968382
 Copying the excited state density for this state as the 1-particle RhoCI density.

 The electronic state is 1-A.
 Alpha  occ. eigenvalues --  -10.20486 -10.20329 -10.20297 -10.19912 -10.19831
 Alpha  occ. eigenvalues --  -10.19760 -10.19655 -10.19559 -10.19512 -10.19493
 Alpha  occ. eigenvalues --  -10.19337 -10.19298 -10.19256 -10.19045 -10.18994
 Alpha  occ. eigenvalues --  -10.18926 -10.18916 -10.18876 -10.18770 -10.18748
 Alpha  occ. eigenvalues --  -10.18652 -10.18625 -10.18603 -10.18512 -10.18460
 Alpha  occ. eigenvalues --  -10.18386 -10.18213 -10.18142 -10.18015 -10.17934
 Alpha  occ. eigenvalues --  -10.17684 -10.17674 -10.17261 -10.16994 -10.16940
 Alpha  occ. eigenvalues --  -10.16745 -10.16528 -10.16329 -10.16324 -10.14205
 Alpha  occ. eigenvalues --   -0.84894  -0.84570  -0.83509  -0.83223  -0.82697
 Alpha  occ. eigenvalues --   -0.81269  -0.79292  -0.78991  -0.78518  -0.77650
 Alpha  occ. eigenvalues --   -0.77022  -0.75038  -0.74195  -0.72443  -0.71745
 Alpha  occ. eigenvalues --   -0.70656  -0.69242  -0.68884  -0.68595  -0.68093
 Alpha  occ. eigenvalues --   -0.67320  -0.66983  -0.66544  -0.66421  -0.65758
 Alpha  occ. eigenvalues --   -0.62958  -0.62051  -0.59818  -0.59108  -0.57855
 Alpha  occ. eigenvalues --   -0.56990  -0.55717  -0.55065  -0.54429  -0.53627
 Alpha  occ. eigenvalues --   -0.53012  -0.52367  -0.50595  -0.50291  -0.49704
 Alpha  occ. eigenvalues --   -0.48092  -0.47582  -0.47121  -0.46347  -0.46021
 Alpha  occ. eigenvalues --   -0.45865  -0.45322  -0.44918  -0.44660  -0.43798
 Alpha  occ. eigenvalues --   -0.43349  -0.43190  -0.42863  -0.42738  -0.42421
 Alpha  occ. eigenvalues --   -0.42382  -0.42148  -0.41623  -0.41474  -0.41220
 Alpha  occ. eigenvalues --   -0.41039  -0.40739  -0.40550  -0.39743  -0.39700
 Alpha  occ. eigenvalues --   -0.39651  -0.39432  -0.39121  -0.38651  -0.38158
 Alpha  occ. eigenvalues --   -0.38050  -0.37491  -0.37318  -0.37159  -0.36815
 Alpha  occ. eigenvalues --   -0.36585  -0.36173  -0.35724  -0.35537  -0.35024
 Alpha  occ. eigenvalues --   -0.34937  -0.34923  -0.34686  -0.34259  -0.33610
 Alpha  occ. eigenvalues --   -0.33202  -0.33062  -0.33006  -0.32716  -0.32535
 Alpha  occ. eigenvalues --   -0.32230  -0.31628  -0.31369  -0.30963  -0.30537
 Alpha  occ. eigenvalues --   -0.30205  -0.29554  -0.29532  -0.29108  -0.28504
 Alpha  occ. eigenvalues --   -0.28050  -0.27350  -0.25848  -0.23977  -0.22323
 Alpha  occ. eigenvalues --   -0.20710  -0.18805  -0.16446
 Alpha virt. eigenvalues --   -0.07933  -0.04911  -0.01502   0.00642   0.02982
 Alpha virt. eigenvalues --    0.04293   0.05937   0.07175   0.07636   0.07848
 Alpha virt. eigenvalues --    0.08026   0.08332   0.08700   0.09072   0.09401

 Mulliken charges:
               1
     1  C    0.024037
     2  C   -0.013873
     3  C   -0.189051
     4  C   -0.157453
     5  C   -0.190087
     6  C   -0.180965
     7  C    0.016796
     8  C    0.016863
     9  C   -0.206990
    10  C   -0.227499
    11  C    0.068137
    12  C    0.100711
    13  C   -0.271358
    14  C   -0.292725
    15  C   -0.275164
    16  C   -0.297700
    17  C   -0.128422
    18  C   -0.077638
    19  C   -0.364314
    20  C   -0.362358
    21  C   -0.095179
    22  C   -0.092757
    23  C    0.120848
    24  C    0.148402
    25  C   -0.384280
    26  C   -0.370951
    27  C   -0.132296
    28  C   -0.120074
    29  C   -0.075367
    30  C   -0.115384
    31  C   -0.086823
    32  C   -0.099707
    33  C    0.083423
    34  C    0.090210
    35  C   -0.365558
    36  C   -0.359983
    37  C   -0.139353
    38  C   -0.093659
    39  C   -0.080062
    40  C   -0.077838
    41  H    0.102045
    42  H    0.060226
    43  H    0.086465
    44  H    0.096120
    45  H    0.086953
    46  H    0.115013
    47  H    0.066743
    48  H    0.099231
    49  H    0.092370
    50  H    0.097620
    51  H    0.114050
    52  H    0.091045
    53  H    0.106635
    54  H    0.075279
    55  H    0.110681
    56  H    0.088619
    57  H    0.063171
    58  H    0.126889
    59  H    0.081583
    60  H    0.105427
    61  H    0.079531
    62  H    0.086047
    63  H    0.106690
    64  H    0.097842
    65  H    0.093130
    66  H    0.032064
    67  H    0.118295
    68  H    0.099214
    69  H    0.101507
    70  H    0.076320
    71  H    0.092097
    72  H    0.105892
    73  H    0.080314
    74  H    0.086639
    75  H    0.129797
    76  H    0.104560
    77  H    0.121751
    78  H    0.131227
    79  H    0.118812
    80  H    0.098270
    81  H    0.049414
    82  H    0.087374
    83  H    0.079275
    84  H    0.094304
    85  H    0.084879
    86  H    0.070160
    87  H    0.135731
    88  H    0.087166
    89  H    0.110423
    90  H    0.101761
    91  H    0.125710
    92  H    0.102894
    93  H    0.097531
    94  H    0.055279
    95  H    0.089446
    96  H    0.057926
 Sum of Mulliken charges =  -0.00000

 Dipole moment (field-independent basis, Debye):
    X=              1.2099    Y=             -0.3108    Z=              0.5040  Tot=              1.3470
 Quadrupole moment (field-independent basis, Debye-Ang):
   XX=           -219.9204   YY=           -237.2652   ZZ=           -253.4333
   XY=             -4.0355   XZ=             -4.5690   YZ=              3.3119

 Normal termination of Gaussian 16 at Thu Aug  1 02:40:53 2019.
