 Gaussian 16, Revision A.03,
 Gaussian 16:  ES64L-G16RevA.03 25-Dec-2016

 ---------------------------------
 # td=(NStates=1) B3LYP/6-31G(d,p)
 ---------------------------------

 --
 TD
 --
 Symbolic Z-matrix:
 Charge =  0 Multiplicity = 1

                         Standard orientation:
 ---------------------------------------------------------------------
 Center     Atomic      Atomic             Coordinates (Angstroms)
 Number     Number       Type             X           Y           Z
 ---------------------------------------------------------------------
      1          6           0       12.163510    0.552825   -0.602063
      2          6           0      -12.104451   -0.026243    0.837121
      3          6           0       13.413371   -0.221777   -0.380785
      4          6           0      -12.861175    1.208792    1.412222
      5          6           0       13.303682   -1.700603   -0.289902
      6          6           0      -13.260406    2.082427    0.324874
      7          6           0       11.094763    0.075928    0.355102
      8          6           0      -10.968602    0.562167   -0.112048
      9          6           0       12.454795   -2.075023    0.842381
     10          6           0      -12.123680    2.680068   -0.286062
     11          6           0       11.148891   -1.122274    0.931831
     12          6           0      -10.971113    1.679279   -0.654834
     13          6           0       11.686376    0.500958   -2.102394
     14          6           0       12.564776    2.024997   -0.283082
     15          6           0      -12.892853   -1.009851    0.105697
     16          6           0      -11.376803   -0.817827    1.962584
     17          6           0        9.862359    0.848239    0.426256
     18          6           0       -9.961894   -0.554212   -0.317635
     19          6           0       10.033646   -1.827048    1.780916
     20          6           0       -9.981175    2.164943   -1.588855
     21          6           0        8.448772    0.401347    0.205029
     22          6           0       -8.591313   -0.425705   -0.126012
     23          6           0        7.265818    1.298515    0.278362
     24          6           0       -7.498307   -1.378469   -0.341261
     25          6           0        7.517430    2.793798    0.456761
     26          6           0       -7.883043   -2.796250   -0.754003
     27          6           0        6.020848    0.739237    0.103217
     28          6           0       -6.217583   -0.994279   -0.277007
     29          6           0        4.709110    1.405947    0.287377
     30          6           0       -5.000234   -1.766890   -0.506522
     31          6           0        3.640664    0.720205    0.218803
     32          6           0       -3.777705   -1.123811   -0.457119
     33          6           0        2.321635    1.323377    0.242891
     34          6           0       -2.549879   -1.845705   -0.547070
     35          6           0        2.138605    2.817960    0.365690
     36          6           0       -2.575270   -3.302468   -0.819709
     37          6           0        1.205782    0.590836    0.004104
     38          6           0       -1.380331   -1.190089   -0.398313
     39          6           0        1.094670   -0.890478   -0.042686
     40          6           0       -0.010008   -1.740155   -0.200003
     41          1           0       13.898645    0.019739    0.487307
     42          1           0       14.018640    0.198757   -1.362914
     43          1           0      -12.321139    1.831593    2.267035
     44          1           0      -13.835473    0.946985    1.999131
     45          1           0       14.249034   -2.101637   -0.265443
     46          1           0       12.614495   -2.000116   -1.177338
     47          1           0      -13.997824    2.920662    0.726716
     48          1           0      -13.778663    1.382036   -0.641605
     49          1           0       13.226136   -1.997636    1.707067
     50          1           0       12.029079   -3.000479    0.802119
     51          1           0      -11.591746    3.512563    0.411840
     52          1           0      -12.304217    3.310245   -1.147133
     53          1           0       11.524661   -0.505015   -2.585296
     54          1           0       12.473514    1.014716   -2.803184
     55          1           0       10.718743    0.966841   -2.387076
     56          1           0       12.565712    2.242433    0.844849
     57          1           0       11.741904    2.766263   -0.657393
     58          1           0       13.469009    2.362876   -0.739278
     59          1           0      -13.338226   -0.310055   -0.755915
     60          1           0      -13.753241   -1.534290    0.881464
     61          1           0      -12.311327   -1.828535   -0.421334
     62          1           0      -10.465076   -0.431003    2.695198
     63          1           0      -10.997115   -1.898923    1.929736
     64          1           0      -12.062624   -1.159659    2.745425
     65          1           0        9.996790    2.027076    0.432421
     66          1           0      -10.222514   -1.550504   -0.637886
     67          1           0        9.129944   -1.185606    2.153184
     68          1           0       10.555219   -2.221263    2.690778
     69          1           0        9.507690   -2.873937    1.219968
     70          1           0       -9.342957    1.366249   -1.772414
     71          1           0       -9.454882    2.972701   -1.159552
     72          1           0      -10.468484    2.662349   -2.509212
     73          1           0        8.325231   -0.776023    0.065350
     74          1           0       -8.404516    0.549780    0.158627
     75          1           0        7.960847    2.825966    1.458117
     76          1           0        6.525684    3.391011    0.396161
     77          1           0        8.298306    3.173971   -0.353801
     78          1           0       -8.291302   -2.573254   -1.839118
     79          1           0       -8.629317   -3.418007   -0.106494
     80          1           0       -6.981606   -3.295816   -1.018266
     81          1           0        5.899589   -0.426141    0.079239
     82          1           0       -5.913464    0.148508   -0.048628
     83          1           0        4.647940    2.438040    0.524465
     84          1           0       -4.973963   -2.839103   -0.603488
     85          1           0        3.526963   -0.352691    0.048998
     86          1           0       -3.618129   -0.026408   -0.298242
     87          1           0        2.437582    3.342406    1.445915
     88          1           0        1.171031    3.201234   -0.043899
     89          1           0        2.826573    3.235238   -0.400421
     90          1           0       -3.291726   -3.551135   -1.563917
     91          1           0       -2.953996   -3.772869    0.011633
     92          1           0       -1.729768   -3.837602   -0.919997
     93          1           0        0.205350    0.985492    0.081294
     94          1           0       -1.323534   -0.143704   -0.305095
     95          1           0        2.146117   -1.416374    0.146803
     96          1           0        0.044321   -2.744075   -0.209627
 ---------------------------------------------------------------------

 SCF Done:  E(RB3LYP) =  -1557.55897770     A.U. after   15 cycles

 Excitation energies and oscillator strengths:

 Excited State   1:      Singlet-A      2.4135 eV  513.71 nm  f=2.7084  <S**2>=0.000
     148 ->149         0.70540
 This state for optimization and/or second-order correction.
 Total Energy, E(TD-HF/TD-DFT) =  -1557.47028274
 Copying the excited state density for this state as the 1-particle RhoCI density.

 The electronic state is 1-A.
 Alpha  occ. eigenvalues --  -10.21136 -10.20837 -10.20762 -10.20742 -10.20560
 Alpha  occ. eigenvalues --  -10.20549 -10.20412 -10.20218 -10.20080 -10.20012
 Alpha  occ. eigenvalues --  -10.19964 -10.19880 -10.19793 -10.19742 -10.19725
 Alpha  occ. eigenvalues --  -10.19433 -10.19373 -10.19258 -10.19234 -10.19129
 Alpha  occ. eigenvalues --  -10.19063 -10.19034 -10.18930 -10.18604 -10.18602
 Alpha  occ. eigenvalues --  -10.18391 -10.18384 -10.18329 -10.18233 -10.18227
 Alpha  occ. eigenvalues --  -10.18039 -10.18021 -10.17904 -10.17541 -10.17493
 Alpha  occ. eigenvalues --  -10.17407 -10.17308 -10.16913 -10.16507 -10.16238
 Alpha  occ. eigenvalues --   -0.86363  -0.85775  -0.84115  -0.83576  -0.81653
 Alpha  occ. eigenvalues --   -0.80890  -0.79411  -0.78635  -0.78322  -0.77958
 Alpha  occ. eigenvalues --   -0.77351  -0.75782  -0.74432  -0.72173  -0.70656
 Alpha  occ. eigenvalues --   -0.70225  -0.68489  -0.68361  -0.67854  -0.67444
 Alpha  occ. eigenvalues --   -0.67240  -0.67184  -0.66616  -0.66496  -0.66272
 Alpha  occ. eigenvalues --   -0.62433  -0.61479  -0.59280  -0.58203  -0.57305
 Alpha  occ. eigenvalues --   -0.57099  -0.55618  -0.54956  -0.54088  -0.53536
 Alpha  occ. eigenvalues --   -0.52704  -0.52188  -0.50249  -0.50100  -0.49024
 Alpha  occ. eigenvalues --   -0.48204  -0.47725  -0.47109  -0.46739  -0.46161
 Alpha  occ. eigenvalues --   -0.45725  -0.45207  -0.44669  -0.44384  -0.44124
 Alpha  occ. eigenvalues --   -0.43196  -0.42964  -0.42282  -0.41910  -0.41862
 Alpha  occ. eigenvalues --   -0.41696  -0.41534  -0.41181  -0.41024  -0.40926
 Alpha  occ. eigenvalues --   -0.40820  -0.40622  -0.40134  -0.39878  -0.39471
 Alpha  occ. eigenvalues --   -0.39042  -0.38760  -0.38679  -0.38428  -0.38247
 Alpha  occ. eigenvalues --   -0.37983  -0.37253  -0.36934  -0.36828  -0.36433
 Alpha  occ. eigenvalues --   -0.36024  -0.35940  -0.35621  -0.35294  -0.35243
 Alpha  occ. eigenvalues --   -0.34944  -0.34589  -0.34246  -0.34172  -0.33730
 Alpha  occ. eigenvalues --   -0.33614  -0.33009  -0.32944  -0.32873  -0.32672
 Alpha  occ. eigenvalues --   -0.32316  -0.31848  -0.31488  -0.31380  -0.31153
 Alpha  occ. eigenvalues --   -0.30410  -0.30172  -0.29021  -0.28790  -0.28353
 Alpha  occ. eigenvalues --   -0.27625  -0.26995  -0.25977  -0.24839  -0.23806
 Alpha  occ. eigenvalues --   -0.21571  -0.18950  -0.16943
 Alpha virt. eigenvalues --   -0.07474  -0.05041  -0.01813   0.01092   0.02847
 Alpha virt. eigenvalues --    0.04568   0.05607   0.05821   0.06797   0.07394
 Alpha virt. eigenvalues --    0.07727   0.07894   0.08330   0.08408   0.08869

 Mulliken charges:
               1
     1  C    0.007224
     2  C    0.019917
     3  C   -0.137549
     4  C   -0.153693
     5  C   -0.184887
     6  C   -0.164754
     7  C    0.105804
     8  C    0.059655
     9  C   -0.197892
    10  C   -0.181680
    11  C    0.034368
    12  C    0.092826
    13  C   -0.305090
    14  C   -0.308323
    15  C   -0.261624
    16  C   -0.311659
    17  C   -0.158118
    18  C   -0.154473
    19  C   -0.350030
    20  C   -0.366859
    21  C   -0.113581
    22  C   -0.079029
    23  C    0.108278
    24  C    0.106112
    25  C   -0.361111
    26  C   -0.371259
    27  C   -0.135310
    28  C   -0.117258
    29  C   -0.084558
    30  C   -0.099794
    31  C   -0.046098
    32  C   -0.107165
    33  C    0.113255
    34  C    0.147506
    35  C   -0.376028
    36  C   -0.390404
    37  C   -0.134393
    38  C   -0.139583
    39  C   -0.099133
    40  C   -0.081769
    41  H    0.096926
    42  H    0.055756
    43  H    0.092313
    44  H    0.075988
    45  H    0.096057
    46  H    0.079005
    47  H    0.078575
    48  H    0.059646
    49  H    0.082208
    50  H    0.111919
    51  H    0.068618
    52  H    0.093329
    53  H    0.100653
    54  H    0.084827
    55  H    0.112658
    56  H    0.097291
    57  H    0.081667
    58  H    0.107678
    59  H    0.078806
    60  H    0.072068
    61  H    0.114017
    62  H    0.078414
    63  H    0.091917
    64  H    0.087347
    65  H    0.072089
    66  H    0.078774
    67  H    0.118056
    68  H    0.111286
    69  H    0.069895
    70  H    0.121944
    71  H    0.118628
    72  H    0.092749
    73  H    0.087515
    74  H    0.068414
    75  H    0.135782
    76  H    0.101868
    77  H    0.113034
    78  H    0.110418
    79  H    0.116054
    80  H    0.113115
    81  H    0.074223
    82  H    0.068415
    83  H    0.085198
    84  H    0.087355
    85  H    0.075495
    86  H    0.081403
    87  H    0.096220
    88  H    0.114018
    89  H    0.117204
    90  H    0.122300
    91  H    0.130794
    92  H    0.112777
    93  H    0.083812
    94  H    0.062995
    95  H    0.064010
    96  H    0.074633
 Sum of Mulliken charges =  -0.00000

 Dipole moment (field-independent basis, Debye):
    X=              0.8171    Y=              0.0110    Z=              0.1781  Tot=              0.8364
 Quadrupole moment (field-independent basis, Debye-Ang):
   XX=           -233.3639   YY=           -232.1751   ZZ=           -256.3601
   XY=             -0.3794   XZ=              2.9067   YZ=              0.5399

 Normal termination of Gaussian 16 at Sat Jul 27 18:58:42 2019.
