 Gaussian 16, Revision A.03,
 Gaussian 16:  ES64L-G16RevA.03 25-Dec-2016

 ---------------------------------
 # td=(NStates=1) B3LYP/6-31G(d,p)
 ---------------------------------

 --
 TD
 --
 Symbolic Z-matrix:
 Charge =  0 Multiplicity = 1

                         Standard orientation:
 ---------------------------------------------------------------------
 Center     Atomic      Atomic             Coordinates (Angstroms)
 Number     Number       Type             X           Y           Z
 ---------------------------------------------------------------------
      1          6           0       12.059381    0.452743   -0.756532
      2          6           0      -11.958459   -0.088782    0.944003
      3          6           0       13.359093   -0.413154   -0.789627
      4          6           0      -12.937338    1.082148    1.328478
      5          6           0       12.977813   -1.863237   -0.709265
      6          6           0      -13.312836    2.008605    0.159107
      7          6           0       11.018523   -0.044784    0.242585
      8          6           0      -10.909657    0.324537   -0.044206
      9          6           0       12.322970   -2.294777    0.611812
     10          6           0      -12.085529    2.658510   -0.422363
     11          6           0       11.138981   -1.176838    1.003661
     12          6           0      -11.010274    1.514424   -0.792607
     13          6           0       11.444891    0.685310   -2.168300
     14          6           0       12.482252    1.960377   -0.328903
     15          6           0      -12.913346   -1.119046    0.239692
     16          6           0      -11.362952   -0.642008    2.177102
     17          6           0        9.918630    0.848734    0.513829
     18          6           0       -9.956770   -0.662524   -0.350146
     19          6           0       10.220108   -1.692224    2.063520
     20          6           0      -10.100145    1.941411   -1.927953
     21          6           0        8.630448    0.468834    0.431666
     22          6           0       -8.632112   -0.370539   -0.170774
     23          6           0        7.445230    1.387086    0.499096
     24          6           0       -7.568731   -1.276791   -0.422488
     25          6           0        7.664445    2.821647    0.675328
     26          6           0       -7.863962   -2.715989   -0.712013
     27          6           0        6.229284    0.704614    0.354486
     28          6           0       -6.332603   -0.868599   -0.341768
     29          6           0        4.920536    1.314110    0.412588
     30          6           0       -5.161420   -1.587808   -0.395475
     31          6           0        3.739494    0.708429    0.324469
     32          6           0       -3.803850   -1.036691   -0.281875
     33          6           0        2.390086    1.341885    0.288910
     34          6           0       -2.586083   -1.722612   -0.449923
     35          6           0        2.245216    2.907555    0.513841
     36          6           0       -2.605546   -3.125446   -0.743733
     37          6           0        1.222709    0.637960    0.067918
     38          6           0       -1.387788   -1.020589   -0.321901
     39          6           0        1.109606   -0.809834   -0.252102
     40          6           0       -0.016646   -1.518854   -0.312309
     41          1           0       14.046067   -0.139918   -0.073030
     42          1           0       14.082835   -0.397420   -1.605313
     43          1           0      -12.581689    1.626968    2.136833
     44          1           0      -13.881340    0.812347    1.886023
     45          1           0       14.079582   -2.500677   -0.734825
     46          1           0       12.156598   -2.170706   -1.444390
     47          1           0      -13.924963    2.740002    0.350174
     48          1           0      -13.974372    1.580114   -0.661074
     49          1           0       12.874466   -2.404458    1.382013
     50          1           0       11.698565   -3.195488    0.285457
     51          1           0      -11.703303    3.444840    0.110531
     52          1           0      -12.017179    3.228294   -1.405912
     53          1           0       11.084062   -0.224373   -2.635429
     54          1           0       12.250931    1.192819   -2.927105
     55          1           0       10.497328    1.457576   -2.296427
     56          1           0       12.784722    1.811963    0.658948
     57          1           0       11.638581    2.569395   -0.513225
     58          1           0       13.222317    2.427776   -1.001675
     59          1           0      -13.503442   -0.606408   -0.530729
     60          1           0      -13.692320   -1.589428    0.870401
     61          1           0      -12.344051   -1.917183   -0.047826
     62          1           0      -10.838030    0.071262    2.831230
     63          1           0      -10.723619   -1.457405    1.785119
     64          1           0      -12.133580   -1.157004    2.958808
     65          1           0       10.215493    1.905168    0.785119
     66          1           0      -10.220490   -1.614132   -0.632440
     67          1           0        9.820901   -1.020538    2.606494
     68          1           0       10.932666   -2.168783    2.675250
     69          1           0        9.580392   -2.753822    1.647935
     70          1           0       -9.224951    1.156010   -2.053639
     71          1           0       -9.416938    2.995556   -1.630518
     72          1           0      -10.659879    2.022867   -2.958218
     73          1           0        8.558048   -0.656342    0.468571
     74          1           0       -8.337121    0.751847   -0.029620
     75          1           0        8.450515    2.953416    1.428032
     76          1           0        6.622316    3.273045    0.859920
     77          1           0        7.922636    3.282453   -0.224892
     78          1           0       -8.349844   -2.992630   -1.566973
     79          1           0       -8.391846   -3.186480    0.055858
     80          1           0       -6.891717   -3.525157   -0.754393
     81          1           0        6.333256   -0.366090    0.336550
     82          1           0       -6.226595    0.253500   -0.211969
     83          1           0        4.877636    2.461108    0.473931
     84          1           0       -5.174635   -2.494847   -0.561244
     85          1           0        3.767917   -0.450812    0.457254
     86          1           0       -3.691664    0.083777   -0.144656
     87          1           0        2.649251    3.226243    1.322314
     88          1           0        1.318429    3.382738    0.460131
     89          1           0        2.997662    3.481577   -0.229578
     90          1           0       -3.132872   -3.452133   -1.507646
     91          1           0       -2.997707   -3.619695    0.165959
     92          1           0       -1.478995   -3.719764   -0.770474
     93          1           0        0.419474    1.318232    0.042314
     94          1           0       -1.574490    0.094681   -0.166724
     95          1           0        1.992278   -1.497477   -0.141107
     96          1           0        0.010773   -2.633142   -0.527079
 ---------------------------------------------------------------------

 SCF Done:  E(RB3LYP) =  -1557.50554091     A.U. after   16 cycles

 Excitation energies and oscillator strengths:

 Excited State   1:      Singlet-A      2.2520 eV  550.55 nm  f=2.9350  <S**2>=0.000
     147 ->149         0.11925
     148 ->149         0.69358
     148 <-149        -0.10119
 This state for optimization and/or second-order correction.
 Total Energy, E(TD-HF/TD-DFT) =  -1557.42278091
 Copying the excited state density for this state as the 1-particle RhoCI density.

 The electronic state is 1-A.
 Alpha  occ. eigenvalues --  -10.21015 -10.20831 -10.20602 -10.20448 -10.19689
 Alpha  occ. eigenvalues --  -10.19663 -10.19593 -10.19576 -10.19507 -10.19424
 Alpha  occ. eigenvalues --  -10.19398 -10.19370 -10.19254 -10.19227 -10.19179
 Alpha  occ. eigenvalues --  -10.19055 -10.18907 -10.18844 -10.18811 -10.18774
 Alpha  occ. eigenvalues --  -10.18684 -10.18539 -10.18464 -10.18345 -10.18308
 Alpha  occ. eigenvalues --  -10.18247 -10.18170 -10.17997 -10.17855 -10.17704
 Alpha  occ. eigenvalues --  -10.17692 -10.17612 -10.17575 -10.17510 -10.17476
 Alpha  occ. eigenvalues --  -10.17304 -10.17129 -10.16914 -10.16579 -10.16299
 Alpha  occ. eigenvalues --   -0.85299  -0.84549  -0.83891  -0.82805  -0.82420
 Alpha  occ. eigenvalues --   -0.81049  -0.78800  -0.78326  -0.77777  -0.77577
 Alpha  occ. eigenvalues --   -0.77115  -0.75240  -0.74495  -0.72720  -0.71692
 Alpha  occ. eigenvalues --   -0.70136  -0.69278  -0.69167  -0.68457  -0.68116
 Alpha  occ. eigenvalues --   -0.68020  -0.67463  -0.66760  -0.66589  -0.66137
 Alpha  occ. eigenvalues --   -0.63157  -0.61161  -0.60495  -0.58028  -0.57446
 Alpha  occ. eigenvalues --   -0.56771  -0.55772  -0.55497  -0.54529  -0.53434
 Alpha  occ. eigenvalues --   -0.52318  -0.52248  -0.50807  -0.50473  -0.49298
 Alpha  occ. eigenvalues --   -0.47978  -0.47571  -0.46892  -0.46451  -0.46097
 Alpha  occ. eigenvalues --   -0.45860  -0.45278  -0.44959  -0.44606  -0.44102
 Alpha  occ. eigenvalues --   -0.43848  -0.43704  -0.43275  -0.42752  -0.42405
 Alpha  occ. eigenvalues --   -0.42343  -0.42330  -0.41822  -0.41720  -0.41334
 Alpha  occ. eigenvalues --   -0.40576  -0.40182  -0.40174  -0.39347  -0.39130
 Alpha  occ. eigenvalues --   -0.38741  -0.38587  -0.38361  -0.38307  -0.38124
 Alpha  occ. eigenvalues --   -0.37945  -0.37554  -0.37204  -0.36701  -0.36644
 Alpha  occ. eigenvalues --   -0.36278  -0.35793  -0.35448  -0.35250  -0.34934
 Alpha  occ. eigenvalues --   -0.34873  -0.34715  -0.34246  -0.33931  -0.33763
 Alpha  occ. eigenvalues --   -0.33591  -0.33411  -0.33220  -0.32604  -0.32485
 Alpha  occ. eigenvalues --   -0.32297  -0.32085  -0.31947  -0.30985  -0.30884
 Alpha  occ. eigenvalues --   -0.30713  -0.29984  -0.29720  -0.28785  -0.28287
 Alpha  occ. eigenvalues --   -0.28035  -0.26811  -0.25706  -0.23797  -0.22371
 Alpha  occ. eigenvalues --   -0.21203  -0.18837  -0.16435
 Alpha virt. eigenvalues --   -0.08039  -0.05071  -0.01234   0.00712   0.01853
 Alpha virt. eigenvalues --    0.03249   0.05198   0.06635   0.06867   0.07174
 Alpha virt. eigenvalues --    0.07747   0.07990   0.08260   0.08929   0.09101

 Mulliken charges:
               1
     1  C   -0.016874
     2  C   -0.009545
     3  C   -0.153210
     4  C   -0.177876
     5  C   -0.180503
     6  C   -0.175842
     7  C    0.078242
     8  C    0.083842
     9  C   -0.194094
    10  C   -0.212180
    11  C    0.002660
    12  C    0.066291
    13  C   -0.285697
    14  C   -0.310933
    15  C   -0.296077
    16  C   -0.291849
    17  C   -0.152738
    18  C   -0.150488
    19  C   -0.319741
    20  C   -0.353650
    21  C   -0.093597
    22  C   -0.108712
    23  C    0.107088
    24  C    0.174841
    25  C   -0.373711
    26  C   -0.393009
    27  C   -0.111155
    28  C   -0.117069
    29  C   -0.079020
    30  C   -0.043398
    31  C   -0.109403
    32  C   -0.142670
    33  C    0.094478
    34  C    0.167881
    35  C   -0.371730
    36  C   -0.378940
    37  C   -0.118870
    38  C   -0.126798
    39  C   -0.084409
    40  C   -0.086115
    41  H    0.097704
    42  H    0.096474
    43  H    0.092998
    44  H    0.078268
    45  H    0.042415
    46  H    0.097845
    47  H    0.092666
    48  H    0.084085
    49  H    0.108404
    50  H    0.093462
    51  H    0.114093
    52  H    0.079187
    53  H    0.103479
    54  H    0.075086
    55  H    0.081101
    56  H    0.105297
    57  H    0.107820
    58  H    0.096050
    59  H    0.108605
    60  H    0.092559
    61  H    0.097223
    62  H    0.106870
    63  H    0.096869
    64  H    0.070506
    65  H    0.082306
    66  H    0.092698
    67  H    0.122486
    68  H    0.114222
    69  H    0.074610
    70  H    0.105092
    71  H    0.072019
    72  H    0.108560
    73  H    0.090046
    74  H    0.084871
    75  H    0.125105
    76  H    0.102604
    77  H    0.140686
    78  H    0.134044
    79  H    0.129785
    80  H    0.070632
    81  H    0.080010
    82  H    0.062331
    83  H    0.065949
    84  H    0.037639
    85  H    0.076074
    86  H    0.070192
    87  H    0.138833
    88  H    0.115450
    89  H    0.086319
    90  H    0.136542
    91  H    0.124217
    92  H    0.071610
    93  H    0.082287
    94  H    0.069319
    95  H    0.085111
    96  H    0.073868
 Sum of Mulliken charges =  -0.00000

 Dipole moment (field-independent basis, Debye):
    X=              0.6354    Y=              0.2468    Z=              0.6870  Tot=              0.9678
 Quadrupole moment (field-independent basis, Debye-Ang):
   XX=           -214.9034   YY=           -232.1542   ZZ=           -254.9362
   XY=              3.5301   XZ=              6.9267   YZ=              2.2003

 Normal termination of Gaussian 16 at Thu Aug  1 02:44:34 2019.
