 Gaussian 16, Revision A.03,
 Gaussian 16:  ES64L-G16RevA.03 25-Dec-2016

 ---------------------------------
 # td=(NStates=1) B3LYP/6-31G(d,p)
 ---------------------------------

 --
 TD
 --
 Symbolic Z-matrix:
 Charge =  0 Multiplicity = 1

                         Standard orientation:
 ---------------------------------------------------------------------
 Center     Atomic      Atomic             Coordinates (Angstroms)
 Number     Number       Type             X           Y           Z
 ---------------------------------------------------------------------
      1          6           0       12.196344   -0.689130    0.610937
      2          6           0      -12.137973    0.037186   -0.776240
      3          6           0       13.448828    0.026226    0.470954
      4          6           0      -12.938919   -1.157794   -1.302780
      5          6           0       13.301614    1.510454    0.708277
      6          6           0      -13.385658   -2.142992   -0.180138
      7          6           0       11.093198    0.009399   -0.153806
      8          6           0      -10.994970   -0.491429    0.177969
      9          6           0       12.316076    2.177202   -0.386516
     10          6           0      -12.104259   -2.676877    0.595144
     11          6           0       11.075908    1.272134   -0.650958
     12          6           0      -11.060978   -1.659772    0.848377
     13          6           0       11.812722   -0.836151    2.049901
     14          6           0       12.500316   -2.104236    0.085876
     15          6           0      -12.942098    1.072407   -0.022751
     16          6           0      -11.633707    0.714436   -1.983753
     17          6           0        9.854158   -0.740285   -0.411418
     18          6           0       -9.841390    0.594158    0.408890
     19          6           0       10.059259    2.141631   -1.565677
     20          6           0       -9.950183   -2.135179    1.847415
     21          6           0        8.579298   -0.412743   -0.048714
     22          6           0       -8.474867    0.355017    0.256305
     23          6           0        7.354949   -1.269022   -0.448806
     24          6           0       -7.509401    1.303892    0.296902
     25          6           0        7.502566   -2.671930   -0.833162
     26          6           0       -7.758481    2.825457    0.355240
     27          6           0        6.137078   -0.649496   -0.333327
     28          6           0       -6.184364    0.926376    0.341718
     29          6           0        4.845941   -1.312207   -0.452111
     30          6           0       -5.063546    1.672841    0.283083
     31          6           0        3.657296   -0.636494   -0.473351
     32          6           0       -3.803906    1.101503    0.186020
     33          6           0        2.317748   -1.201377   -0.430529
     34          6           0       -2.596140    1.739456    0.305932
     35          6           0        2.225497   -2.716328   -0.663097
     36          6           0       -2.496428    3.264669    0.779753
     37          6           0        1.132554   -0.472456   -0.223606
     38          6           0       -1.335368    1.113065    0.166849
     39          6           0        1.047845    0.931643    0.008024
     40          6           0       -0.079882    1.727450    0.417288
     41          1           0       13.914177   -0.038621   -0.621933
     42          1           0       14.152731   -0.450081    1.021386
     43          1           0      -12.411384   -2.021170   -2.021409
     44          1           0      -13.983311   -0.707876   -1.835866
     45          1           0       14.174227    2.161685    0.614834
     46          1           0       12.757133    1.852099    1.683695
     47          1           0      -13.924657   -3.173195   -0.374089
     48          1           0      -13.937410   -1.572436    0.414377
     49          1           0       12.978752    2.261441   -1.249891
     50          1           0       12.059170    3.091082   -0.203252
     51          1           0      -11.774683   -3.428447   -0.162291
     52          1           0      -12.171336   -3.257590    1.505060
     53          1           0       11.627482    0.158373    2.661385
     54          1           0       12.401381   -1.731916    2.609446
     55          1           0       10.783129   -1.269846    2.370562
     56          1           0       12.703120   -2.195905   -1.029710
     57          1           0       11.588067   -2.820821    0.348949
     58          1           0       13.143109   -2.634073    0.508395
     59          1           0      -13.341510    0.695018    1.043506
     60          1           0      -13.934745    1.384494   -0.605061
     61          1           0      -12.266138    1.951344    0.199795
     62          1           0      -11.135199   -0.115986   -2.685457
     63          1           0      -10.964016    1.678112   -1.792956
     64          1           0      -12.504611    0.960719   -2.658969
     65          1           0       10.030603   -1.786982   -0.741579
     66          1           0      -10.381678    1.660640    0.440830
     67          1           0        9.076574    1.606768   -1.799048
     68          1           0       10.592607    2.740857   -2.269174
     69          1           0        9.567356    2.912238   -0.977983
     70          1           0       -9.490244   -1.307242    2.418305
     71          1           0       -9.545258   -2.942094    1.108165
     72          1           0      -10.446523   -2.592909    2.655752
     73          1           0        8.211559    0.527411    0.102227
     74          1           0       -8.111993   -0.674939    0.273536
     75          1           0        8.070477   -2.822427   -1.813964
     76          1           0        6.685018   -3.455872   -0.710465
     77          1           0        8.258189   -3.151592   -0.219400
     78          1           0       -8.208044    3.193442    1.388984
     79          1           0       -8.522555    3.064729   -0.512122
     80          1           0       -7.015253    3.504884    0.248760
     81          1           0        6.228869    0.331879    0.098382
     82          1           0       -5.998629   -0.305026    0.216498
     83          1           0        4.794434   -2.432656   -0.602003
     84          1           0       -5.102220    2.699918    0.099295
     85          1           0        3.887887    0.365192   -0.141117
     86          1           0       -3.526809   -0.126653    0.399768
     87          1           0        2.546809   -2.861801   -1.801892
     88          1           0        1.084461   -3.121696   -0.296094
     89          1           0        2.924779   -3.308826    0.104665
     90          1           0       -3.241708    3.395042    1.704556
     91          1           0       -2.881449    3.998144   -0.167747
     92          1           0       -1.391693    3.460103    0.894853
     93          1           0        0.131319   -0.970269   -0.075114
     94          1           0       -1.456094    0.046442    0.056885
     95          1           0        1.966294    1.479967    0.121276
     96          1           0        0.329370    2.852691    0.893793
 ---------------------------------------------------------------------

 SCF Done:  E(RB3LYP) =  -1557.46696994     A.U. after   17 cycles

 Excitation energies and oscillator strengths:

 Excited State   1:      Singlet-A      1.9821 eV  625.53 nm  f=3.0822  <S**2>=0.000
     148 ->149         0.70843
     148 ->150        -0.10623
     148 <-149        -0.15260
 This state for optimization and/or second-order correction.
 Total Energy, E(TD-HF/TD-DFT) =  -1557.39413063
 Copying the excited state density for this state as the 1-particle RhoCI density.

 The electronic state is 1-A.
 Alpha  occ. eigenvalues --  -10.21694 -10.21539 -10.20973 -10.20973 -10.20539
 Alpha  occ. eigenvalues --  -10.20362 -10.20323 -10.20305 -10.20266 -10.20134
 Alpha  occ. eigenvalues --  -10.19726 -10.19628 -10.19609 -10.19509 -10.19480
 Alpha  occ. eigenvalues --  -10.19268 -10.19147 -10.19113 -10.19094 -10.18962
 Alpha  occ. eigenvalues --  -10.18959 -10.18957 -10.18872 -10.18858 -10.18705
 Alpha  occ. eigenvalues --  -10.18694 -10.18609 -10.18581 -10.18529 -10.18491
 Alpha  occ. eigenvalues --  -10.18454 -10.18388 -10.18288 -10.18273 -10.18067
 Alpha  occ. eigenvalues --  -10.18006 -10.18001 -10.17806 -10.17536 -10.16860
 Alpha  occ. eigenvalues --   -0.86252  -0.84538  -0.83532  -0.82813  -0.81957
 Alpha  occ. eigenvalues --   -0.80911  -0.78994  -0.78921  -0.78305  -0.77039
 Alpha  occ. eigenvalues --   -0.75839  -0.74714  -0.73510  -0.71957  -0.70995
 Alpha  occ. eigenvalues --   -0.69500  -0.68807  -0.68439  -0.68026  -0.67854
 Alpha  occ. eigenvalues --   -0.67399  -0.66794  -0.66237  -0.66060  -0.64887
 Alpha  occ. eigenvalues --   -0.62596  -0.61712  -0.59576  -0.58918  -0.58298
 Alpha  occ. eigenvalues --   -0.56505  -0.55964  -0.54579  -0.52975  -0.52927
 Alpha  occ. eigenvalues --   -0.51856  -0.51601  -0.49978  -0.49601  -0.48912
 Alpha  occ. eigenvalues --   -0.48436  -0.48121  -0.46478  -0.46310  -0.45873
 Alpha  occ. eigenvalues --   -0.45530  -0.45112  -0.44801  -0.44152  -0.43818
 Alpha  occ. eigenvalues --   -0.43475  -0.43221  -0.42743  -0.42262  -0.42060
 Alpha  occ. eigenvalues --   -0.41826  -0.41196  -0.40978  -0.40805  -0.40445
 Alpha  occ. eigenvalues --   -0.40387  -0.40159  -0.39417  -0.39132  -0.38893
 Alpha  occ. eigenvalues --   -0.38543  -0.38391  -0.38012  -0.37772  -0.37529
 Alpha  occ. eigenvalues --   -0.37203  -0.36987  -0.36581  -0.36388  -0.35951
 Alpha  occ. eigenvalues --   -0.35832  -0.35476  -0.35180  -0.35135  -0.34902
 Alpha  occ. eigenvalues --   -0.34811  -0.34716  -0.34282  -0.34209  -0.33610
 Alpha  occ. eigenvalues --   -0.33023  -0.32839  -0.32694  -0.32258  -0.31922
 Alpha  occ. eigenvalues --   -0.31844  -0.31733  -0.31621  -0.31592  -0.31071
 Alpha  occ. eigenvalues --   -0.30577  -0.30332  -0.29612  -0.28735  -0.28091
 Alpha  occ. eigenvalues --   -0.27696  -0.27693  -0.26111  -0.23934  -0.22815
 Alpha  occ. eigenvalues --   -0.21259  -0.19121  -0.15474
 Alpha virt. eigenvalues --   -0.08716  -0.05056  -0.01702   0.00826   0.02496
 Alpha virt. eigenvalues --    0.03617   0.04649   0.05556   0.06274   0.06834
 Alpha virt. eigenvalues --    0.07149   0.07608   0.07858   0.08070   0.08529

 Mulliken charges:
               1
     1  C    0.021282
     2  C    0.010331
     3  C   -0.128492
     4  C   -0.166734
     5  C   -0.209799
     6  C   -0.185417
     7  C    0.043699
     8  C    0.059934
     9  C   -0.227446
    10  C   -0.223347
    11  C    0.075189
    12  C    0.040048
    13  C   -0.300779
    14  C   -0.302998
    15  C   -0.277980
    16  C   -0.269061
    17  C   -0.126663
    18  C   -0.163749
    19  C   -0.369445
    20  C   -0.352288
    21  C   -0.090567
    22  C   -0.103075
    23  C    0.139435
    24  C    0.163233
    25  C   -0.398979
    26  C   -0.364536
    27  C   -0.146903
    28  C   -0.121090
    29  C   -0.079102
    30  C   -0.083439
    31  C   -0.098479
    32  C   -0.114188
    33  C    0.091032
    34  C    0.109287
    35  C   -0.349989
    36  C   -0.338016
    37  C   -0.102891
    38  C   -0.104802
    39  C   -0.085513
    40  C   -0.116213
    41  H    0.074060
    42  H    0.096819
    43  H    0.076355
    44  H    0.060286
    45  H    0.088911
    46  H    0.084239
    47  H    0.078757
    48  H    0.112353
    49  H    0.097434
    50  H    0.103058
    51  H    0.099213
    52  H    0.094537
    53  H    0.099166
    54  H    0.080227
    55  H    0.103711
    56  H    0.098593
    57  H    0.070957
    58  H    0.116458
    59  H    0.086532
    60  H    0.086263
    61  H    0.102690
    62  H    0.084933
    63  H    0.083753
    64  H    0.092708
    65  H    0.081171
    66  H    0.074306
    67  H    0.113059
    68  H    0.124049
    69  H    0.117648
    70  H    0.126432
    71  H    0.120413
    72  H    0.108767
    73  H    0.073653
    74  H    0.094448
    75  H    0.115996
    76  H    0.111085
    77  H    0.122305
    78  H    0.099231
    79  H    0.097876
    80  H    0.122722
    81  H    0.076112
    82  H    0.052133
    83  H    0.077763
    84  H    0.095200
    85  H    0.077607
    86  H    0.049706
    87  H    0.123026
    88  H    0.084081
    89  H    0.105512
    90  H    0.106861
    91  H    0.077372
    92  H    0.106056
    93  H    0.078997
    94  H    0.086429
    95  H    0.074267
    96  H    0.102215
 Sum of Mulliken charges =  -0.00000

 Dipole moment (field-independent basis, Debye):
    X=              2.3151    Y=             -0.4123    Z=              0.8526  Tot=              2.5013
 Quadrupole moment (field-independent basis, Debye-Ang):
   XX=           -208.7582   YY=           -232.2776   ZZ=           -257.4075
   XY=              1.8363   XZ=             -4.4684   YZ=              0.2983

 Normal termination of Gaussian 16 at Thu Aug  1 14:47:28 2019.
