 Gaussian 16, Revision A.03,
 Gaussian 16:  ES64L-G16RevA.03 25-Dec-2016

 ---------------------------------
 # td=(NStates=1) B3LYP/6-31G(d,p)
 ---------------------------------

 --
 TD
 --
 Symbolic Z-matrix:
 Charge =  0 Multiplicity = 1

                         Standard orientation:
 ---------------------------------------------------------------------
 Center     Atomic      Atomic             Coordinates (Angstroms)
 Number     Number       Type             X           Y           Z
 ---------------------------------------------------------------------
      1          6           0      -12.209543   -0.582100   -0.675207
      2          6           0       12.187802   -0.001180    0.835511
      3          6           0      -13.461908    0.269366   -0.575790
      4          6           0       13.062053   -1.256307    1.207472
      5          6           0      -13.097862    1.820193   -0.595136
      6          6           0       13.342602   -2.067117   -0.064600
      7          6           0      -11.066005   -0.117367    0.169698
      8          6           0       10.978559   -0.473603   -0.053871
      9          6           0      -12.271967    2.113676    0.578764
     10          6           0       12.013238   -2.704490   -0.578105
     11          6           0      -11.137960    1.198205    0.851243
     12          6           0       10.920834   -1.585296   -0.763146
     13          6           0      -11.610869   -0.537542   -2.183301
     14          6           0      -12.653663   -1.938836   -0.339859
     15          6           0       13.063396    0.952242    0.088329
     16          6           0       11.753645    0.613937    2.126818
     17          6           0       -9.859608   -0.927974    0.435979
     18          6           0        9.901272    0.616582   -0.134644
     19          6           0      -10.172813    1.696772    1.965207
     20          6           0        9.868511   -2.003967   -1.691256
     21          6           0       -8.603663   -0.553897    0.208754
     22          6           0        8.634123    0.298340   -0.320011
     23          6           0       -7.371467   -1.394639    0.345505
     24          6           0        7.563442    1.361562   -0.384450
     25          6           0       -7.491772   -2.879253    0.779915
     26          6           0        8.026338    2.807585   -0.689672
     27          6           0       -6.158766   -0.767234    0.231599
     28          6           0        6.225671    1.004980   -0.312175
     29          6           0       -4.860181   -1.373177    0.357209
     30          6           0        5.069069    1.697972   -0.420586
     31          6           0       -3.656933   -0.805242    0.138866
     32          6           0        3.732406    1.187238   -0.310143
     33          6           0       -2.371616   -1.238703    0.341425
     34          6           0        2.515629    1.902385   -0.256841
     35          6           0       -2.262252   -2.757456    0.595225
     36          6           0        2.515956    3.465109   -0.480266
     37          6           0       -1.257353   -0.524985    0.191357
     38          6           0        1.316121    1.197498   -0.161366
     39          6           0       -1.228521    0.916073   -0.150410
     40          6           0       -0.036139    1.647867   -0.189743
     41          1           0      -14.066301   -0.070627    0.566444
     42          1           0      -14.116790    0.315521   -1.533393
     43          1           0       12.467719   -1.951229    2.051179
     44          1           0       14.032030   -1.005275    1.627852
     45          1           0      -13.799053    2.562351   -0.587929
     46          1           0      -12.574289    2.123987   -1.569709
     47          1           0       14.097691   -3.001707    0.117148
     48          1           0       14.204236   -1.614557   -0.839652
     49          1           0      -12.939055    2.285048    1.534679
     50          1           0      -11.763593    3.042941    0.265517
     51          1           0       11.602978   -3.472652   -0.025992
     52          1           0       12.007224   -3.177680   -1.550637
     53          1           0      -11.672694    0.553822   -2.296650
     54          1           0      -12.226762   -1.083602   -2.979659
     55          1           0      -10.491727   -0.788456   -1.970163
     56          1           0      -12.610749   -1.982860    0.669080
     57          1           0      -11.658994   -2.604953   -0.878620
     58          1           0      -13.495863   -2.368082   -1.009036
     59          1           0       13.464774    0.585847   -0.929496
     60          1           0       13.720579    1.258877    0.784445
     61          1           0       12.573483    1.882507   -0.037697
     62          1           0       11.066551   -0.113884    2.685790
     63          1           0       11.091862    1.488077    2.148510
     64          1           0       12.551575    0.809360    2.894875
     65          1           0      -10.047788   -2.130972    0.588791
     66          1           0       10.254895    1.595727   -0.195174
     67          1           0       -9.413554    0.857550    2.086004
     68          1           0      -10.992967    1.802132    2.898200
     69          1           0       -9.899211    2.670817    1.584524
     70          1           0        9.384901   -0.980645   -1.998726
     71          1           0        9.173166   -2.645427   -1.237830
     72          1           0       10.137044   -2.653766   -2.444569
     73          1           0       -8.548503    0.524261    0.181357
     74          1           0        8.198267   -0.868829   -0.113817
     75          1           0       -8.142551   -2.817294    1.789617
     76          1           0       -6.625461   -3.436765    0.923464
     77          1           0       -7.925469   -3.199584   -0.136907
     78          1           0        8.457466    2.963942   -1.662962
     79          1           0        8.753915    3.327724    0.032181
     80          1           0        7.167944    3.402829   -0.788444
     81          1           0       -6.123709    0.287836   -0.151026
     82          1           0        6.016631    0.010632   -0.097084
     83          1           0       -4.889206   -2.491241    0.597391
     84          1           0        4.950838    2.756417   -0.710775
     85          1           0       -3.916460    0.185957   -0.292610
     86          1           0        3.745617    0.047311   -0.438053
     87          1           0       -2.667977   -3.140115    1.549515
     88          1           0       -1.229215   -3.162996    0.333419
     89          1           0       -2.630900   -3.263532   -0.104447
     90          1           0        2.697531    3.584713   -1.522311
     91          1           0        3.372422    4.077407    0.156463
     92          1           0        1.591234    4.111779   -0.126406
     93          1           0       -0.360372   -1.070372    0.273625
     94          1           0        1.433590    0.112425   -0.093715
     95          1           0       -2.177697    1.350571   -0.304253
     96          1           0       -0.308098    2.855431   -0.422127
 ---------------------------------------------------------------------

 SCF Done:  E(RB3LYP) =  -1557.50731236     A.U. after   16 cycles

 Excitation energies and oscillator strengths:

 Excited State   1:      Singlet-A      2.1135 eV  586.63 nm  f=3.1048  <S**2>=0.000
     147 ->149         0.11836
     148 ->149         0.69909
     148 <-149        -0.12035
 This state for optimization and/or second-order correction.
 Total Energy, E(TD-HF/TD-DFT) =  -1557.42964314
 Copying the excited state density for this state as the 1-particle RhoCI density.

 The electronic state is 1-A.
 Alpha  occ. eigenvalues --  -10.21035 -10.20842 -10.20825 -10.20815 -10.20721
 Alpha  occ. eigenvalues --  -10.20499 -10.20454 -10.20287 -10.19895 -10.19838
 Alpha  occ. eigenvalues --  -10.19758 -10.19758 -10.19725 -10.19690 -10.19624
 Alpha  occ. eigenvalues --  -10.19364 -10.19330 -10.19180 -10.19090 -10.19036
 Alpha  occ. eigenvalues --  -10.19002 -10.18941 -10.18813 -10.18755 -10.18429
 Alpha  occ. eigenvalues --  -10.18383 -10.18210 -10.18115 -10.18111 -10.18040
 Alpha  occ. eigenvalues --  -10.18015 -10.17996 -10.17938 -10.17858 -10.17702
 Alpha  occ. eigenvalues --  -10.17571 -10.17507 -10.16850 -10.16475 -10.16053
 Alpha  occ. eigenvalues --   -0.85254  -0.84696  -0.83851  -0.82681  -0.81866
 Alpha  occ. eigenvalues --   -0.81024  -0.79394  -0.79288  -0.78405  -0.77597
 Alpha  occ. eigenvalues --   -0.76390  -0.74834  -0.74026  -0.72532  -0.72072
 Alpha  occ. eigenvalues --   -0.70251  -0.68802  -0.68602  -0.68278  -0.67741
 Alpha  occ. eigenvalues --   -0.67730  -0.67037  -0.66938  -0.66463  -0.65658
 Alpha  occ. eigenvalues --   -0.62844  -0.61966  -0.59692  -0.58633  -0.57730
 Alpha  occ. eigenvalues --   -0.55920  -0.54928  -0.54316  -0.53340  -0.52811
 Alpha  occ. eigenvalues --   -0.52220  -0.51973  -0.50687  -0.49317  -0.48469
 Alpha  occ. eigenvalues --   -0.47727  -0.47228  -0.46924  -0.46465  -0.45808
 Alpha  occ. eigenvalues --   -0.45299  -0.44958  -0.44608  -0.44423  -0.43775
 Alpha  occ. eigenvalues --   -0.43532  -0.43317  -0.42954  -0.42710  -0.42654
 Alpha  occ. eigenvalues --   -0.42542  -0.42132  -0.42047  -0.41634  -0.41564
 Alpha  occ. eigenvalues --   -0.41177  -0.40668  -0.40561  -0.40220  -0.39746
 Alpha  occ. eigenvalues --   -0.38822  -0.38729  -0.38429  -0.38327  -0.37905
 Alpha  occ. eigenvalues --   -0.37831  -0.37575  -0.37112  -0.36996  -0.35897
 Alpha  occ. eigenvalues --   -0.35877  -0.35440  -0.35385  -0.34987  -0.34830
 Alpha  occ. eigenvalues --   -0.34510  -0.34271  -0.34028  -0.33689  -0.33470
 Alpha  occ. eigenvalues --   -0.33298  -0.33043  -0.32705  -0.32694  -0.32438
 Alpha  occ. eigenvalues --   -0.32330  -0.31757  -0.31323  -0.30884  -0.30629
 Alpha  occ. eigenvalues --   -0.30401  -0.30034  -0.29683  -0.29188  -0.28488
 Alpha  occ. eigenvalues --   -0.27478  -0.26682  -0.26195  -0.24474  -0.22538
 Alpha  occ. eigenvalues --   -0.21128  -0.18850  -0.16191
 Alpha virt. eigenvalues --   -0.08560  -0.05216  -0.01435   0.00277   0.02546
 Alpha virt. eigenvalues --    0.04140   0.05914   0.06474   0.07017   0.07546
 Alpha virt. eigenvalues --    0.07821   0.07957   0.08097   0.08253   0.08470

 Mulliken charges:
               1
     1  C    0.022023
     2  C   -0.000163
     3  C   -0.154195
     4  C   -0.150706
     5  C   -0.194159
     6  C   -0.184433
     7  C    0.043912
     8  C    0.070568
     9  C   -0.197411
    10  C   -0.205304
    11  C    0.030118
    12  C    0.049413
    13  C   -0.307371
    14  C   -0.266645
    15  C   -0.282308
    16  C   -0.320827
    17  C   -0.156992
    18  C   -0.107333
    19  C   -0.327978
    20  C   -0.369357
    21  C   -0.075001
    22  C   -0.111877
    23  C    0.064786
    24  C    0.093786
    25  C   -0.347117
    26  C   -0.383974
    27  C   -0.116622
    28  C   -0.106031
    29  C   -0.079712
    30  C   -0.071602
    31  C   -0.109331
    32  C   -0.143165
    33  C    0.118196
    34  C    0.129847
    35  C   -0.373972
    36  C   -0.371101
    37  C   -0.111832
    38  C   -0.117393
    39  C   -0.083429
    40  C   -0.089194
    41  H    0.044571
    42  H    0.091699
    43  H    0.067880
    44  H    0.090315
    45  H    0.097705
    46  H    0.089625
    47  H    0.055941
    48  H    0.081033
    49  H    0.088544
    50  H    0.094028
    51  H    0.120057
    52  H    0.088913
    53  H    0.099353
    54  H    0.092750
    55  H    0.108298
    56  H    0.114171
    57  H    0.039701
    58  H    0.106724
    59  H    0.101577
    60  H    0.105575
    61  H    0.094356
    62  H    0.095953
    63  H    0.100508
    64  H    0.095338
    65  H    0.071854
    66  H    0.095867
    67  H    0.122301
    68  H    0.088974
    69  H    0.122353
    70  H    0.119224
    71  H    0.116586
    72  H    0.101245
    73  H    0.088389
    74  H    0.081734
    75  H    0.111722
    76  H    0.119464
    77  H    0.138876
    78  H    0.126465
    79  H    0.107286
    80  H    0.116386
    81  H    0.070787
    82  H    0.068797
    83  H    0.059582
    84  H    0.072554
    85  H    0.066952
    86  H    0.073238
    87  H    0.116126
    88  H    0.082931
    89  H    0.139259
    90  H    0.141052
    91  H    0.092995
    92  H    0.107429
    93  H    0.077102
    94  H    0.083708
    95  H    0.092218
    96  H    0.055816
 Sum of Mulliken charges =  -0.00000

 Dipole moment (field-independent basis, Debye):
    X=             -0.3945    Y=              0.2699    Z=             -0.6260  Tot=              0.7876
 Quadrupole moment (field-independent basis, Debye-Ang):
   XX=           -218.6544   YY=           -233.2071   ZZ=           -255.9508
   XY=             -5.8612   XZ=              0.1697   YZ=             -1.8033

 Normal termination of Gaussian 16 at Tue Jul 23 18:46:49 2019.
