 Gaussian 16, Revision A.03,
 Gaussian 16:  ES64L-G16RevA.03 25-Dec-2016

 ---------------------------------
 # td=(NStates=1) B3LYP/6-31G(d,p)
 ---------------------------------

 --
 TD
 --
 Symbolic Z-matrix:
 Charge =  0 Multiplicity = 1

                         Standard orientation:
 ---------------------------------------------------------------------
 Center     Atomic      Atomic             Coordinates (Angstroms)
 Number     Number       Type             X           Y           Z
 ---------------------------------------------------------------------
      1          6           0      -12.187088   -0.636305   -0.627076
      2          6           0       12.130954    0.013672    0.877407
      3          6           0      -13.452192    0.259431   -0.437524
      4          6           0       12.962124   -1.198135    1.329172
      5          6           0      -13.114835    1.815111   -0.486847
      6          6           0       13.362121   -2.137158    0.155793
      7          6           0      -11.015470   -0.025931    0.246237
      8          6           0       11.067839   -0.453771   -0.065578
      9          6           0      -12.258206    2.157472    0.789244
     10          6           0       12.033846   -2.733115   -0.421620
     11          6           0      -11.140878    1.153203    0.960057
     12          6           0       10.981050   -1.639959   -0.673509
     13          6           0      -11.844640   -0.468996   -2.085140
     14          6           0      -12.607763   -1.981073   -0.162002
     15          6           0       13.111927    1.037596    0.129164
     16          6           0       11.609625    0.647197    2.124364
     17          6           0       -9.828520   -0.897613    0.339313
     18          6           0        9.949858    0.563337   -0.163784
     19          6           0      -10.049250    1.583631    1.914942
     20          6           0        9.897777   -2.040350   -1.593557
     21          6           0       -8.538319   -0.502731    0.245102
     22          6           0        8.582275    0.400951   -0.254002
     23          6           0       -7.371541   -1.358229    0.216770
     24          6           0        7.484200    1.367762   -0.360667
     25          6           0       -7.564844   -2.780727    0.593528
     26          6           0        7.949289    2.841078   -0.643293
     27          6           0       -6.142677   -0.762745    0.240932
     28          6           0        6.273278    0.897404   -0.415406
     29          6           0       -4.901869   -1.405287    0.307665
     30          6           0        5.006867    1.641452   -0.378230
     31          6           0       -3.749863   -0.685287    0.105553
     32          6           0        3.793863    1.113615   -0.405372
     33          6           0       -2.355984   -1.219803    0.141352
     34          6           0        2.566350    1.840995   -0.461791
     35          6           0       -2.348869   -2.689048    0.300478
     36          6           0        2.562396    3.319053   -0.623185
     37          6           0       -1.202106   -0.488291   -0.001363
     38          6           0        1.435433    1.104902   -0.345341
     39          6           0       -1.167981    0.935802   -0.228017
     40          6           0        0.011045    1.584246   -0.365774
     41          1           0      -13.966276    0.071982    0.526870
     42          1           0      -14.329989   -0.019162   -1.194115
     43          1           0       12.508777   -1.803670    2.093589
     44          1           0       13.997735   -0.690290    1.535136
     45          1           0      -14.070002    2.320375   -0.475634
     46          1           0      -12.472552    2.264832   -1.275652
     47          1           0       13.958004   -2.971772    0.589081
     48          1           0       13.770314   -1.704316   -0.630970
     49          1           0      -12.837852    2.305564    1.822497
     50          1           0      -11.821655    3.288239    0.660408
     51          1           0       11.678979   -3.512171    0.355537
     52          1           0       12.139871   -3.288852   -1.320995
     53          1           0      -11.574134    0.731571   -2.361630
     54          1           0      -12.800063   -0.673569   -2.657645
     55          1           0      -10.898218   -1.260831   -2.476027
     56          1           0      -12.946067   -1.989104    0.922381
     57          1           0      -11.711407   -2.702033   -0.155576
     58          1           0      -13.528493   -2.439043   -0.566262
     59          1           0       13.912856    0.592356   -0.553114
     60          1           0       13.642716    1.618256    0.893371
     61          1           0       12.561255    1.714155   -0.635716
     62          1           0       10.868113    0.007022    2.572939
     63          1           0       11.094157    1.539256    1.813258
     64          1           0       12.258452    0.857199    2.920784
     65          1           0      -10.103592   -1.945297    0.505863
     66          1           0       10.298700    1.668411   -0.284864
     67          1           0       -9.071481    0.990893    2.135271
     68          1           0      -10.435976    1.927378    2.871260
     69          1           0       -9.671223    2.572499    1.723818
     70          1           0        9.316506   -1.308731   -1.973919
     71          1           0        9.260640   -2.625847   -0.975175
     72          1           0       10.071007   -2.846330   -2.388422
     73          1           0       -8.472251    0.604382    0.231139
     74          1           0        8.142055   -0.565317   -0.013594
     75          1           0       -7.863254   -3.137698    1.724839
     76          1           0       -6.574557   -3.308718    0.458335
     77          1           0       -8.339797   -3.249693   -0.135224
     78          1           0        8.644571    2.990781   -1.385743
     79          1           0        8.450716    3.280848    0.261027
     80          1           0        7.254236    3.624229   -1.025391
     81          1           0       -6.163269    0.372936   -0.016515
     82          1           0        6.195745   -0.131275   -0.078160
     83          1           0       -5.061080   -2.444662    0.173636
     84          1           0        4.973001    2.780386   -0.693019
     85          1           0       -3.849875    0.430319   -0.171829
     86          1           0        3.753223   -0.025800   -0.287475
     87          1           0       -2.404995   -3.129572    1.342685
     88          1           0       -1.283507   -3.028976    0.206958
     89          1           0       -3.044743   -3.111517   -0.442195
     90          1           0        3.203412    3.487078   -1.579513
     91          1           0        3.044723    4.012815    0.105263
     92          1           0        1.677346    3.894500   -0.791367
     93          1           0       -0.321521   -1.221682   -0.119883
     94          1           0        1.488354    0.090999   -0.069878
     95          1           0       -2.091554    1.439624   -0.267710
     96          1           0       -0.031418    2.616924   -0.350709
 ---------------------------------------------------------------------

 SCF Done:  E(RB3LYP) =  -1557.66758863     A.U. after   15 cycles

 Excitation energies and oscillator strengths:

 Excited State   1:      Singlet-A      2.3945 eV  517.79 nm  f=2.8097  <S**2>=0.000
     148 ->149         0.70398
 This state for optimization and/or second-order correction.
 Total Energy, E(TD-HF/TD-DFT) =  -1557.57959288
 Copying the excited state density for this state as the 1-particle RhoCI density.

 The electronic state is 1-A.
 Alpha  occ. eigenvalues --  -10.20589 -10.20285 -10.20231 -10.20135 -10.20111
 Alpha  occ. eigenvalues --  -10.20020 -10.19899 -10.19764 -10.19680 -10.19565
 Alpha  occ. eigenvalues --  -10.19514 -10.19419 -10.19342 -10.19212 -10.19078
 Alpha  occ. eigenvalues --  -10.19042 -10.18958 -10.18928 -10.18890 -10.18846
 Alpha  occ. eigenvalues --  -10.18772 -10.18702 -10.18638 -10.18609 -10.18475
 Alpha  occ. eigenvalues --  -10.18470 -10.18390 -10.18353 -10.18268 -10.18257
 Alpha  occ. eigenvalues --  -10.18132 -10.18130 -10.18036 -10.18026 -10.17995
 Alpha  occ. eigenvalues --  -10.17867 -10.17421 -10.16795 -10.16497 -10.15739
 Alpha  occ. eigenvalues --   -0.85071  -0.84494  -0.83861  -0.83410  -0.82224
 Alpha  occ. eigenvalues --   -0.81616  -0.78892  -0.78737  -0.78239  -0.77122
 Alpha  occ. eigenvalues --   -0.76562  -0.74988  -0.74284  -0.71769  -0.71588
 Alpha  occ. eigenvalues --   -0.70135  -0.69532  -0.68511  -0.67877  -0.67753
 Alpha  occ. eigenvalues --   -0.67506  -0.67175  -0.66876  -0.66380  -0.65064
 Alpha  occ. eigenvalues --   -0.62503  -0.61901  -0.59847  -0.59055  -0.57537
 Alpha  occ. eigenvalues --   -0.56469  -0.56099  -0.54762  -0.53878  -0.52759
 Alpha  occ. eigenvalues --   -0.52508  -0.52271  -0.51100  -0.49755  -0.49164
 Alpha  occ. eigenvalues --   -0.48051  -0.47161  -0.46812  -0.46349  -0.45959
 Alpha  occ. eigenvalues --   -0.45722  -0.45157  -0.44443  -0.44345  -0.43661
 Alpha  occ. eigenvalues --   -0.43401  -0.42856  -0.42450  -0.42259  -0.41953
 Alpha  occ. eigenvalues --   -0.41621  -0.41374  -0.41279  -0.40933  -0.40794
 Alpha  occ. eigenvalues --   -0.40296  -0.40241  -0.40099  -0.39798  -0.39675
 Alpha  occ. eigenvalues --   -0.39515  -0.38773  -0.38647  -0.38056  -0.37495
 Alpha  occ. eigenvalues --   -0.37299  -0.37214  -0.36890  -0.36554  -0.36325
 Alpha  occ. eigenvalues --   -0.35972  -0.35913  -0.35713  -0.35563  -0.35184
 Alpha  occ. eigenvalues --   -0.34836  -0.34164  -0.33978  -0.33864  -0.33709
 Alpha  occ. eigenvalues --   -0.33635  -0.33180  -0.32945  -0.32894  -0.32639
 Alpha  occ. eigenvalues --   -0.32564  -0.32198  -0.32153  -0.32081  -0.31519
 Alpha  occ. eigenvalues --   -0.30609  -0.29838  -0.29562  -0.29152  -0.28708
 Alpha  occ. eigenvalues --   -0.27975  -0.27807  -0.26321  -0.24352  -0.22774
 Alpha  occ. eigenvalues --   -0.21059  -0.19019  -0.17052
 Alpha virt. eigenvalues --   -0.07662  -0.05040  -0.01625   0.00552   0.02772
 Alpha virt. eigenvalues --    0.04214   0.05958   0.06807   0.07045   0.07551
 Alpha virt. eigenvalues --    0.07937   0.08472   0.08560   0.09016   0.09416

 Mulliken charges:
               1
     1  C    0.026663
     2  C    0.009188
     3  C   -0.180836
     4  C   -0.170030
     5  C   -0.187894
     6  C   -0.184130
     7  C    0.033317
     8  C    0.088479
     9  C   -0.229581
    10  C   -0.234321
    11  C    0.112469
    12  C    0.072557
    13  C   -0.251940
    14  C   -0.313460
    15  C   -0.321299
    16  C   -0.300399
    17  C   -0.120930
    18  C   -0.152910
    19  C   -0.386160
    20  C   -0.372679
    21  C   -0.090389
    22  C   -0.115901
    23  C    0.093497
    24  C    0.169359
    25  C   -0.356458
    26  C   -0.388076
    27  C   -0.098683
    28  C   -0.160155
    29  C   -0.072731
    30  C   -0.092664
    31  C   -0.119779
    32  C   -0.093122
    33  C    0.103132
    34  C    0.161757
    35  C   -0.372551
    36  C   -0.395660
    37  C   -0.116592
    38  C   -0.127955
    39  C   -0.078409
    40  C   -0.095397
    41  H    0.096107
    42  H    0.068474
    43  H    0.095374
    44  H    0.074007
    45  H    0.095212
    46  H    0.108348
    47  H    0.084134
    48  H    0.110439
    49  H    0.086096
    50  H    0.076312
    51  H    0.086531
    52  H    0.095848
    53  H    0.081405
    54  H    0.095674
    55  H    0.064679
    56  H    0.102254
    57  H    0.087907
    58  H    0.104846
    59  H    0.096538
    60  H    0.105757
    61  H    0.094230
    62  H    0.103460
    63  H    0.099853
    64  H    0.104437
    65  H    0.081382
    66  H    0.073116
    67  H    0.118450
    68  H    0.101160
    69  H    0.108008
    70  H    0.131361
    71  H    0.124307
    72  H    0.090736
    73  H    0.086976
    74  H    0.071633
    75  H    0.106218
    76  H    0.096375
    77  H    0.106363
    78  H    0.130405
    79  H    0.113214
    80  H    0.101359
    81  H    0.068590
    82  H    0.076583
    83  H    0.089988
    84  H    0.066986
    85  H    0.075856
    86  H    0.071794
    87  H    0.117892
    88  H    0.089293
    89  H    0.121715
    90  H    0.107729
    91  H    0.125856
    92  H    0.122199
    93  H    0.081557
    94  H    0.077047
    95  H    0.091402
    96  H    0.067202
 Sum of Mulliken charges =  -0.00000

 Dipole moment (field-independent basis, Debye):
    X=             -0.0358    Y=              0.1343    Z=              0.3209  Tot=              0.3497
 Quadrupole moment (field-independent basis, Debye-Ang):
   XX=           -223.5151   YY=           -231.8329   ZZ=           -256.3079
   XY=             -2.3866   XZ=             -2.4353   YZ=             -2.4928

 Normal termination of Gaussian 16 at Mon Jul 29 16:58:18 2019.
