 Gaussian 16, Revision A.03,
 Gaussian 16:  ES64L-G16RevA.03 25-Dec-2016

 ---------------------------------
 # td=(NStates=1) B3LYP/6-31G(d,p)
 ---------------------------------

 --
 TD
 --
 Symbolic Z-matrix:
 Charge =  0 Multiplicity = 1

                         Standard orientation:
 ---------------------------------------------------------------------
 Center     Atomic      Atomic             Coordinates (Angstroms)
 Number     Number       Type             X           Y           Z
 ---------------------------------------------------------------------
      1          6           0       12.186029    0.466740   -0.523911
      2          6           0      -12.145548   -0.108011    0.987916
      3          6           0       13.471094   -0.448976   -0.257055
      4          6           0      -13.033896    1.035925    1.515172
      5          6           0       13.154854   -1.976852   -0.284042
      6          6           0      -13.393565    2.040803    0.352616
      7          6           0       10.973973    0.044074    0.289086
      8          6           0      -11.011792    0.405846    0.029336
      9          6           0       12.169120   -2.125234    0.975495
     10          6           0      -12.143959    2.579020   -0.130111
     11          6           0       11.039347   -1.113321    1.062222
     12          6           0      -10.995352    1.641970   -0.527237
     13          6           0       11.961403    0.564840   -2.053120
     14          6           0       12.731276    1.928156   -0.040400
     15          6           0      -12.938775   -1.095429    0.140595
     16          6           0      -11.485452   -0.927803    2.206638
     17          6           0        9.806004    0.947971    0.429752
     18          6           0       -9.984050   -0.654396   -0.149509
     19          6           0        9.967889   -1.565796    1.986517
     20          6           0      -10.063629    2.159118   -1.551369
     21          6           0        8.571034    0.459142    0.261090
     22          6           0       -8.644778   -0.393752   -0.166315
     23          6           0        7.378455    1.336593    0.265788
     24          6           0       -7.498211   -1.230329   -0.466130
     25          6           0        7.558894    2.841734    0.542699
     26          6           0       -7.866985   -2.652394   -0.746279
     27          6           0        6.172011    0.735509    0.136048
     28          6           0       -6.195922   -0.825919   -0.399610
     29          6           0        4.870161    1.413472    0.033753
     30          6           0       -5.007585   -1.579708   -0.575068
     31          6           0        3.649131    0.756868   -0.002888
     32          6           0       -3.746182   -0.940611   -0.538064
     33          6           0        2.302977    1.320927   -0.080643
     34          6           0       -2.516100   -1.623411   -0.613441
     35          6           0        2.152986    2.849174    0.092574
     36          6           0       -2.584018   -3.139520   -0.971220
     37          6           0        1.183746    0.494160   -0.153102
     38          6           0       -1.285035   -1.087858   -0.342210
     39          6           0        1.160597   -0.928652   -0.281875
     40          6           0       -0.007388   -1.642326   -0.521286
     41          1           0       13.793879   -0.267821    0.694327
     42          1           0       14.205022   -0.241141   -1.063820
     43          1           0      -12.447033    1.572700    2.261485
     44          1           0      -13.939297    0.485955    1.794526
     45          1           0       14.140484   -2.717512    0.103084
     46          1           0       12.726398   -2.372884   -1.213450
     47          1           0      -13.860898    2.773371    0.867976
     48          1           0      -13.974326    1.625262   -0.441187
     49          1           0       12.800666   -1.810188    1.948047
     50          1           0       11.772961   -3.226500    1.137593
     51          1           0      -11.705824    3.380368    0.541287
     52          1           0      -12.598032    3.292510   -1.026769
     53          1           0       11.623257   -0.547277   -2.403792
     54          1           0       13.049185    0.898781   -2.619154
     55          1           0       11.126726    1.181445   -2.333257
     56          1           0       12.803021    1.835132    1.090534
     57          1           0       12.153123    2.780065   -0.345203
     58          1           0       13.700412    1.719442   -0.524211
     59          1           0      -13.462062   -0.568841   -0.728923
     60          1           0      -13.558785   -1.803656    0.797919
     61          1           0      -12.150905   -1.685122   -0.515966
     62          1           0      -10.728437   -0.262792    2.748204
     63          1           0      -11.048690   -1.776999    1.889423
     64          1           0      -12.301677   -1.219361    2.821390
     65          1           0        9.917997    2.097925    0.656343
     66          1           0      -10.431405   -1.677045   -0.304093
     67          1           0        9.352068   -0.799742    2.315438
     68          1           0       10.534951   -2.064973    2.757416
     69          1           0        9.690293   -2.631291    1.370136
     70          1           0       -9.406195    1.507790   -1.931340
     71          1           0       -9.287607    2.789692   -1.126073
     72          1           0      -10.524428    2.533226   -2.451370
     73          1           0        8.565434   -0.336053   -0.096582
     74          1           0       -8.161228    0.495668    0.017422
     75          1           0        8.045075    2.845058    1.452534
     76          1           0        6.677484    3.578477    0.498300
     77          1           0        8.118364    3.132721   -0.263815
     78          1           0       -8.664908   -2.674094   -1.551077
     79          1           0       -8.612274   -3.411105    0.006144
     80          1           0       -7.037176   -3.294450   -0.991681
     81          1           0        5.737619   -0.173949    0.017751
     82          1           0       -6.110101    0.354215   -0.194512
     83          1           0        4.826396    2.481344    0.068288
     84          1           0       -4.870031   -2.778083   -0.731333
     85          1           0        3.688302   -0.470904    0.088393
     86          1           0       -3.578168    0.108089   -0.298737
     87          1           0        2.690847    3.237229    0.946697
     88          1           0        1.104714    3.042700   -0.160947
     89          1           0        2.533617    3.298294   -0.873813
     90          1           0       -2.965531   -3.294673   -1.894926
     91          1           0       -3.153008   -3.679683   -0.162782
     92          1           0       -1.527153   -3.716854   -1.172647
     93          1           0        0.248394    1.207346   -0.306590
     94          1           0       -1.458792   -0.184181    0.109929
     95          1           0        2.215230   -1.594861   -0.203337
     96          1           0        0.245508   -2.743238   -0.663657
 ---------------------------------------------------------------------

 SCF Done:  E(RB3LYP) =  -1557.50304741     A.U. after   15 cycles

 Excitation energies and oscillator strengths:

 Excited State   1:      Singlet-A      2.1247 eV  583.55 nm  f=3.0414  <S**2>=0.000
     148 ->149         0.70347
     148 <-149        -0.11508
 This state for optimization and/or second-order correction.
 Total Energy, E(TD-HF/TD-DFT) =  -1557.42496772
 Copying the excited state density for this state as the 1-particle RhoCI density.

 The electronic state is 1-A.
 Alpha  occ. eigenvalues --  -10.20951 -10.20754 -10.20677 -10.20656 -10.20506
 Alpha  occ. eigenvalues --  -10.20498 -10.20476 -10.20214 -10.19966 -10.19791
 Alpha  occ. eigenvalues --  -10.19770 -10.19628 -10.19514 -10.19477 -10.19432
 Alpha  occ. eigenvalues --  -10.19346 -10.19239 -10.19191 -10.19154 -10.19098
 Alpha  occ. eigenvalues --  -10.18985 -10.18967 -10.18756 -10.18729 -10.18643
 Alpha  occ. eigenvalues --  -10.18487 -10.18430 -10.18374 -10.18252 -10.18175
 Alpha  occ. eigenvalues --  -10.18011 -10.17940 -10.17787 -10.17768 -10.17767
 Alpha  occ. eigenvalues --  -10.17364 -10.16351 -10.16320 -10.16297 -10.16050
 Alpha  occ. eigenvalues --   -0.84688  -0.84582  -0.83458  -0.82729  -0.82152
 Alpha  occ. eigenvalues --   -0.81275  -0.78847  -0.78322  -0.78127  -0.77640
 Alpha  occ. eigenvalues --   -0.76926  -0.75012  -0.74250  -0.72638  -0.71837
 Alpha  occ. eigenvalues --   -0.69671  -0.69094  -0.68402  -0.67897  -0.67605
 Alpha  occ. eigenvalues --   -0.67540  -0.66727  -0.66449  -0.66106  -0.65607
 Alpha  occ. eigenvalues --   -0.63396  -0.61625  -0.59694  -0.58748  -0.56872
 Alpha  occ. eigenvalues --   -0.56261  -0.55419  -0.54885  -0.54380  -0.53847
 Alpha  occ. eigenvalues --   -0.52059  -0.51527  -0.51043  -0.49631  -0.49193
 Alpha  occ. eigenvalues --   -0.48316  -0.47855  -0.47054  -0.46501  -0.46402
 Alpha  occ. eigenvalues --   -0.46282  -0.45199  -0.44695  -0.44372  -0.44143
 Alpha  occ. eigenvalues --   -0.43308  -0.43091  -0.42871  -0.42728  -0.42410
 Alpha  occ. eigenvalues --   -0.42337  -0.42074  -0.42010  -0.41400  -0.40759
 Alpha  occ. eigenvalues --   -0.40600  -0.40216  -0.39784  -0.39572  -0.39314
 Alpha  occ. eigenvalues --   -0.39087  -0.38876  -0.38722  -0.38326  -0.37714
 Alpha  occ. eigenvalues --   -0.37385  -0.37197  -0.36960  -0.36507  -0.36391
 Alpha  occ. eigenvalues --   -0.36206  -0.36070  -0.35574  -0.35439  -0.35295
 Alpha  occ. eigenvalues --   -0.35109  -0.34512  -0.33974  -0.33889  -0.33513
 Alpha  occ. eigenvalues --   -0.33152  -0.33058  -0.32793  -0.32605  -0.32366
 Alpha  occ. eigenvalues --   -0.32277  -0.31994  -0.31724  -0.31229  -0.31133
 Alpha  occ. eigenvalues --   -0.30787  -0.29991  -0.29145  -0.28711  -0.28454
 Alpha  occ. eigenvalues --   -0.27942  -0.27320  -0.26174  -0.24018  -0.22400
 Alpha  occ. eigenvalues --   -0.20980  -0.19064  -0.16276
 Alpha virt. eigenvalues --   -0.08484  -0.04980  -0.01623   0.00683   0.02486
 Alpha virt. eigenvalues --    0.04022   0.05028   0.05361   0.05817   0.06391
 Alpha virt. eigenvalues --    0.07103   0.07719   0.07842   0.08388   0.08982

 Mulliken charges:
               1
     1  C   -0.035760
     2  C   -0.002773
     3  C   -0.173508
     4  C   -0.179604
     5  C   -0.171892
     6  C   -0.171742
     7  C    0.059841
     8  C    0.058758
     9  C   -0.230214
    10  C   -0.218527
    11  C    0.073338
    12  C    0.070547
    13  C   -0.270177
    14  C   -0.294903
    15  C   -0.297315
    16  C   -0.299902
    17  C   -0.159879
    18  C   -0.137789
    19  C   -0.335019
    20  C   -0.368845
    21  C    0.006521
    22  C   -0.069801
    23  C    0.031081
    24  C    0.140893
    25  C   -0.363418
    26  C   -0.363878
    27  C   -0.058162
    28  C   -0.139670
    29  C   -0.102946
    30  C   -0.094670
    31  C   -0.106299
    32  C   -0.102086
    33  C    0.082280
    34  C    0.110931
    35  C   -0.367467
    36  C   -0.382226
    37  C   -0.104704
    38  C   -0.100649
    39  C   -0.090761
    40  C   -0.090148
    41  H    0.108667
    42  H    0.090749
    43  H    0.094522
    44  H    0.082712
    45  H    0.054899
    46  H    0.108534
    47  H    0.104920
    48  H    0.104734
    49  H    0.094128
    50  H    0.080433
    51  H    0.096254
    52  H    0.055180
    53  H    0.075810
    54  H    0.066410
    55  H    0.113269
    56  H    0.093365
    57  H    0.104097
    58  H    0.105123
    59  H    0.098417
    60  H    0.092674
    61  H    0.085096
    62  H    0.096572
    63  H    0.112529
    64  H    0.095609
    65  H    0.074575
    66  H    0.091536
    67  H    0.127756
    68  H    0.111773
    69  H    0.087660
    70  H    0.124248
    71  H    0.110633
    72  H    0.111875
    73  H    0.048124
    74  H    0.057462
    75  H    0.137311
    76  H    0.104408
    77  H    0.137857
    78  H    0.113257
    79  H    0.066398
    80  H    0.105878
    81  H    0.062503
    82  H    0.070562
    83  H    0.061940
    84  H    0.094029
    85  H    0.053981
    86  H    0.073201
    87  H    0.135786
    88  H    0.106540
    89  H    0.115514
    90  H    0.135869
    91  H    0.119151
    92  H    0.077120
    93  H    0.073396
    94  H    0.077223
    95  H    0.079477
    96  H    0.088798
 Sum of Mulliken charges =  -0.00000

 Dipole moment (field-independent basis, Debye):
    X=              0.8197    Y=              0.6129    Z=              0.1312  Tot=              1.0319
 Quadrupole moment (field-independent basis, Debye-Ang):
   XX=           -226.5599   YY=           -236.2279   ZZ=           -255.4743
   XY=             -1.2546   XZ=              4.5465   YZ=              1.9061

 Normal termination of Gaussian 16 at Wed Jul 31 21:40:10 2019.
