 Gaussian 16, Revision A.03,
 Gaussian 16:  ES64L-G16RevA.03 25-Dec-2016

 ---------------------------------
 # td=(NStates=1) B3LYP/6-31G(d,p)
 ---------------------------------

 --
 TD
 --
 Symbolic Z-matrix:
 Charge =  0 Multiplicity = 1

                         Standard orientation:
 ---------------------------------------------------------------------
 Center     Atomic      Atomic             Coordinates (Angstroms)
 Number     Number       Type             X           Y           Z
 ---------------------------------------------------------------------
      1          6           0       12.183271    0.552810   -0.692093
      2          6           0      -12.092618    0.050965    1.012307
      3          6           0       13.505027   -0.208322   -0.516018
      4          6           0      -12.837741    1.388592    1.431502
      5          6           0       13.255392   -1.694240   -0.313790
      6          6           0      -13.258353    2.216220    0.249433
      7          6           0       11.039173   -0.007481    0.221766
      8          6           0      -10.936226    0.393440   -0.098654
      9          6           0       12.428298   -1.949295    0.933388
     10          6           0      -11.962667    2.761478   -0.365441
     11          6           0       11.167529   -1.123275    0.991328
     12          6           0      -10.988271    1.635490   -0.626525
     13          6           0       11.566911    0.511338   -2.118324
     14          6           0       12.487045    2.000523   -0.347720
     15          6           0      -13.020452   -0.872378    0.174595
     16          6           0      -11.503661   -0.630433    2.262132
     17          6           0        9.846749    0.924889    0.193296
     18          6           0       -9.939420   -0.556951   -0.324941
     19          6           0       10.184872   -1.551031    2.056883
     20          6           0      -10.011566    2.039582   -1.796559
     21          6           0        8.557121    0.480962    0.223876
     22          6           0       -8.596699   -0.385696   -0.311399
     23          6           0        7.363050    1.344599    0.217784
     24          6           0       -7.524747   -1.416893   -0.467655
     25          6           0        7.565290    2.889500    0.481574
     26          6           0       -8.121554   -2.792422   -0.751424
     27          6           0        6.178007    0.603053    0.159437
     28          6           0       -6.225646   -1.009476   -0.440630
     29          6           0        4.932031    1.308120    0.107673
     30          6           0       -5.086155   -1.823026   -0.621202
     31          6           0        3.778234    0.664649    0.220423
     32          6           0       -3.844445   -1.287625   -0.461945
     33          6           0        2.318390    1.171186    0.380525
     34          6           0       -2.614125   -1.989879   -0.443536
     35          6           0        2.264104    2.741972    0.516723
     36          6           0       -2.664984   -3.388646   -0.657370
     37          6           0        1.179898    0.393874    0.176583
     38          6           0       -1.432316   -1.271356   -0.293347
     39          6           0        1.040036   -0.993240   -0.055868
     40          6           0       -0.044909   -1.751233   -0.322798
     41          1           0       14.216400    0.198531    0.339053
     42          1           0       14.157422    0.166662   -1.450300
     43          1           0      -12.475088    1.896778    2.172886
     44          1           0      -13.867608    1.069800    1.911614
     45          1           0       14.212119   -2.286342   -0.227835
     46          1           0       12.814853   -2.040996   -1.176227
     47          1           0      -13.800649    3.179899    0.814049
     48          1           0      -13.798214    1.653039   -0.355992
     49          1           0       13.142170   -1.691720    1.834693
     50          1           0       12.077934   -3.138882    1.070488
     51          1           0      -11.632146    3.645937    0.145029
     52          1           0      -12.228635    3.173585   -1.281208
     53          1           0       11.116915   -0.479116   -2.425223
     54          1           0       12.233290    0.757255   -2.973758
     55          1           0       10.749951    1.012218   -2.290313
     56          1           0       12.986834    1.877315    0.709287
     57          1           0       11.671892    2.789016   -0.673539
     58          1           0       13.344328    2.275083   -0.933072
     59          1           0      -13.656393   -0.147376   -0.501511
     60          1           0      -13.726150   -1.290978    0.887893
     61          1           0      -12.459206   -1.560592   -0.170445
     62          1           0      -10.566102    0.029453    2.420786
     63          1           0      -11.256194   -1.815527    1.971677
     64          1           0      -12.226579   -0.361204    3.070736
     65          1           0       10.160871    2.067081   -0.051301
     66          1           0      -10.424821   -1.649964   -0.580133
     67          1           0        9.200512   -0.868903    2.343938
     68          1           0       10.703330   -1.715948    3.036612
     69          1           0        9.580710   -2.422276    1.938140
     70          1           0       -9.518877    1.125184   -2.401770
     71          1           0       -9.259708    2.871517   -1.646541
     72          1           0      -10.663726    2.585072   -2.609580
     73          1           0        8.305462   -0.483300    0.104777
     74          1           0       -8.137098    0.593939   -0.134143
     75          1           0        8.163761    2.864442    1.370897
     76          1           0        6.610189    3.347901    0.559241
     77          1           0        8.015020    3.126704   -0.395253
     78          1           0       -8.466205   -2.932979   -1.788136
     79          1           0       -8.658759   -3.201761    0.153894
     80          1           0       -7.294939   -3.510620   -0.653837
     81          1           0        6.183381   -0.451665    0.328265
     82          1           0       -6.133607    0.094334   -0.162180
     83          1           0        4.973631    2.400693    0.002311
     84          1           0       -5.189980   -2.843390   -0.972996
     85          1           0        3.947515   -0.444726    0.196856
     86          1           0       -3.617902   -0.152174   -0.109057
     87          1           0        3.111255    3.369647    1.124369
     88          1           0        1.258420    2.951924    0.989783
     89          1           0        2.629201    3.204948   -0.640453
     90          1           0       -3.306348   -3.500768   -1.503963
     91          1           0       -2.982711   -4.081112    0.279176
     92          1           0       -1.699903   -3.906866   -1.109820
     93          1           0        0.242619    0.978454    0.184482
     94          1           0       -1.491726   -0.176032   -0.257732
     95          1           0        1.970620   -1.509376   -0.105879
     96          1           0       -0.044583   -2.863888   -0.282663
 ---------------------------------------------------------------------

 SCF Done:  E(RB3LYP) =  -1557.55670355     A.U. after   15 cycles

 Excitation energies and oscillator strengths:

 Excited State   1:      Singlet-A      2.2493 eV  551.21 nm  f=2.9007  <S**2>=0.000
     148 ->149         0.70195
 This state for optimization and/or second-order correction.
 Total Energy, E(TD-HF/TD-DFT) =  -1557.47404292
 Copying the excited state density for this state as the 1-particle RhoCI density.

 The electronic state is 1-A.
 Alpha  occ. eigenvalues --  -10.22210 -10.22100 -10.20595 -10.20293 -10.20179
 Alpha  occ. eigenvalues --  -10.19841 -10.19814 -10.19705 -10.19555 -10.19534
 Alpha  occ. eigenvalues --  -10.19464 -10.19448 -10.19346 -10.19264 -10.19233
 Alpha  occ. eigenvalues --  -10.19149 -10.19100 -10.19065 -10.19042 -10.18963
 Alpha  occ. eigenvalues --  -10.18950 -10.18915 -10.18848 -10.18822 -10.18786
 Alpha  occ. eigenvalues --  -10.18687 -10.18662 -10.18610 -10.18586 -10.18533
 Alpha  occ. eigenvalues --  -10.18506 -10.17964 -10.17860 -10.17857 -10.17798
 Alpha  occ. eigenvalues --  -10.17690 -10.17032 -10.16862 -10.16360 -10.16226
 Alpha  occ. eigenvalues --   -0.84903  -0.84426  -0.84029  -0.82735  -0.81811
 Alpha  occ. eigenvalues --   -0.80978  -0.78839  -0.78505  -0.78068  -0.77462
 Alpha  occ. eigenvalues --   -0.76559  -0.75365  -0.74340  -0.72054  -0.71506
 Alpha  occ. eigenvalues --   -0.69930  -0.69103  -0.68948  -0.68468  -0.68292
 Alpha  occ. eigenvalues --   -0.67082  -0.66931  -0.66187  -0.65931  -0.65468
 Alpha  occ. eigenvalues --   -0.62133  -0.61557  -0.59505  -0.58552  -0.57395
 Alpha  occ. eigenvalues --   -0.56520  -0.55423  -0.54381  -0.53857  -0.53166
 Alpha  occ. eigenvalues --   -0.52221  -0.52049  -0.50330  -0.49600  -0.49491
 Alpha  occ. eigenvalues --   -0.48770  -0.47344  -0.46822  -0.46296  -0.46003
 Alpha  occ. eigenvalues --   -0.45411  -0.44896  -0.44401  -0.44082  -0.44057
 Alpha  occ. eigenvalues --   -0.43721  -0.43449  -0.43340  -0.43134  -0.42462
 Alpha  occ. eigenvalues --   -0.42290  -0.41915  -0.41325  -0.40996  -0.40887
 Alpha  occ. eigenvalues --   -0.40130  -0.39943  -0.39819  -0.39488  -0.39318
 Alpha  occ. eigenvalues --   -0.39000  -0.38645  -0.38442  -0.38274  -0.37677
 Alpha  occ. eigenvalues --   -0.37503  -0.37415  -0.37080  -0.36774  -0.36356
 Alpha  occ. eigenvalues --   -0.36282  -0.36043  -0.35703  -0.35032  -0.35019
 Alpha  occ. eigenvalues --   -0.34595  -0.34405  -0.34195  -0.33807  -0.33674
 Alpha  occ. eigenvalues --   -0.33276  -0.32938  -0.32875  -0.32686  -0.32567
 Alpha  occ. eigenvalues --   -0.31868  -0.31793  -0.31445  -0.31332  -0.30885
 Alpha  occ. eigenvalues --   -0.30797  -0.30465  -0.29805  -0.28918  -0.28598
 Alpha  occ. eigenvalues --   -0.27799  -0.27082  -0.25696  -0.24054  -0.22927
 Alpha  occ. eigenvalues --   -0.21127  -0.18734  -0.16719
 Alpha virt. eigenvalues --   -0.08036  -0.04919  -0.02070   0.00791   0.02721
 Alpha virt. eigenvalues --    0.04204   0.06214   0.06510   0.06824   0.07159
 Alpha virt. eigenvalues --    0.07528   0.07850   0.07970   0.08341   0.08746

 Mulliken charges:
               1
     1  C    0.001275
     2  C   -0.004832
     3  C   -0.181030
     4  C   -0.165955
     5  C   -0.186676
     6  C   -0.176207
     7  C    0.082034
     8  C    0.072559
     9  C   -0.209193
    10  C   -0.213501
    11  C    0.078011
    12  C    0.058709
    13  C   -0.304352
    14  C   -0.293003
    15  C   -0.274102
    16  C   -0.293637
    17  C   -0.137466
    18  C   -0.143409
    19  C   -0.372958
    20  C   -0.360903
    21  C   -0.075719
    22  C   -0.083213
    23  C    0.049880
    24  C    0.111819
    25  C   -0.347098
    26  C   -0.384379
    27  C   -0.129213
    28  C   -0.116375
    29  C   -0.044872
    30  C   -0.102950
    31  C   -0.127974
    32  C   -0.099283
    33  C    0.079389
    34  C    0.163363
    35  C   -0.341388
    36  C   -0.390265
    37  C   -0.105709
    38  C   -0.130046
    39  C   -0.067284
    40  C   -0.101690
    41  H    0.075658
    42  H    0.075813
    43  H    0.099513
    44  H    0.057166
    45  H    0.084506
    46  H    0.117520
    47  H    0.055759
    48  H    0.107609
    49  H    0.093492
    50  H    0.073430
    51  H    0.107988
    52  H    0.105416
    53  H    0.089696
    54  H    0.086716
    55  H    0.120915
    56  H    0.098117
    57  H    0.090967
    58  H    0.103038
    59  H    0.085348
    60  H    0.092194
    61  H    0.106503
    62  H    0.106860
    63  H    0.078400
    64  H    0.105089
    65  H    0.074011
    66  H    0.070573
    67  H    0.088939
    68  H    0.104866
    69  H    0.119004
    70  H    0.100133
    71  H    0.104217
    72  H    0.077044
    73  H    0.079986
    74  H    0.076656
    75  H    0.140902
    76  H    0.109006
    77  H    0.139049
    78  H    0.133168
    79  H    0.123895
    80  H    0.095095
    81  H    0.087656
    82  H    0.078843
    83  H    0.069406
    84  H    0.095716
    85  H    0.067025
    86  H    0.067668
    87  H    0.102892
    88  H    0.113706
    89  H    0.091681
    90  H    0.127387
    91  H    0.108030
    92  H    0.092404
    93  H    0.074747
    94  H    0.070875
    95  H    0.081254
    96  H    0.084097
 Sum of Mulliken charges =  -0.00000

 Dipole moment (field-independent basis, Debye):
    X=              1.3658    Y=              0.0685    Z=             -0.0938  Tot=              1.3707
 Quadrupole moment (field-independent basis, Debye-Ang):
   XX=           -230.9893   YY=           -233.8974   ZZ=           -255.4779
   XY=              1.9487   XZ=             -4.0566   YZ=              1.5993

 Normal termination of Gaussian 16 at Thu Aug  1 12:35:44 2019.
