 Gaussian 16, Revision A.03,
 Gaussian 16:  ES64L-G16RevA.03 25-Dec-2016

 ---------------------------------
 # td=(NStates=1) B3LYP/6-31G(d,p)
 ---------------------------------

 --
 TD
 --
 Symbolic Z-matrix:
 Charge =  0 Multiplicity = 1

                         Standard orientation:
 ---------------------------------------------------------------------
 Center     Atomic      Atomic             Coordinates (Angstroms)
 Number     Number       Type             X           Y           Z
 ---------------------------------------------------------------------
      1          6           0       12.042827   -0.653683    0.762815
      2          6           0      -12.088431   -0.154645   -0.905864
      3          6           0       13.277673    0.126428    0.748204
      4          6           0      -12.846039   -1.339314   -1.318947
      5          6           0       13.058559    1.690570    0.647035
      6          6           0      -13.301643   -2.304892   -0.100928
      7          6           0       10.978400   -0.023287   -0.221136
      8          6           0      -10.959173   -0.452938    0.176149
      9          6           0       12.361438    1.955302   -0.656077
     10          6           0      -12.012330   -2.665387    0.651299
     11          6           0       11.140026    1.166472   -0.877301
     12          6           0      -10.974360   -1.565602    0.843660
     13          6           0       11.445897   -0.589605    2.277805
     14          6           0       12.488657   -2.134259    0.353268
     15          6           0      -13.065784    0.926267   -0.261304
     16          6           0      -11.380674    0.539666   -2.106508
     17          6           0        9.769975   -0.912673   -0.487645
     18          6           0       -9.899867    0.558590    0.221176
     19          6           0       10.261425    1.693475   -1.899527
     20          6           0       -9.918861   -1.840814    1.997139
     21          6           0        8.518739   -0.407216   -0.311442
     22          6           0       -8.576234    0.365867    0.261687
     23          6           0        7.420321   -1.255635   -0.396556
     24          6           0       -7.472114    1.326602    0.435945
     25          6           0        7.553912   -2.841233   -0.560129
     26          6           0       -7.875686    2.716890    0.603311
     27          6           0        6.038002   -0.718814   -0.364613
     28          6           0       -6.145439    0.958237    0.240765
     29          6           0        4.789556   -1.411912   -0.407414
     30          6           0       -4.924888    1.682086    0.575790
     31          6           0        3.559555   -0.641553   -0.364622
     32          6           0       -3.669527    1.281581    0.354083
     33          6           0        2.252376   -1.256963   -0.399066
     34          6           0       -2.437616    2.045194    0.424811
     35          6           0        2.227847   -2.754427   -0.617399
     36          6           0       -2.467775    3.560754    0.630461
     37          6           0        1.151039   -0.411640   -0.264585
     38          6           0       -1.299554    1.294079    0.285763
     39          6           0        1.217093    1.024818   -0.128024
     40          6           0        0.026264    1.802319    0.097197
     41          1           0       13.989434   -0.139307   -0.074996
     42          1           0       14.006604   -0.259948    1.685496
     43          1           0      -12.139139   -1.990025   -2.034853
     44          1           0      -13.776686   -1.099105   -1.926918
     45          1           0       13.878055    2.259113    0.787720
     46          1           0       12.443885    2.053094    1.515730
     47          1           0      -13.949955   -3.212287   -0.475792
     48          1           0      -14.136519   -1.801619    0.479780
     49          1           0       13.093005    1.820519   -1.417867
     50          1           0       12.001560    2.988612   -0.747233
     51          1           0      -11.687871   -3.415735    0.001460
     52          1           0      -12.183516   -3.145771    1.554952
     53          1           0       11.455348    0.573405    2.578942
     54          1           0       12.074967   -0.999220    3.132427
     55          1           0       10.405687   -1.073014    2.297994
     56          1           0       12.656844   -2.284869   -0.685760
     57          1           0       11.647122   -2.840645    0.614893
     58          1           0       13.427458   -2.559101    0.847234
     59          1           0      -13.346944    0.651968    0.742855
     60          1           0      -14.179108    1.143269   -0.835667
     61          1           0      -12.611508    1.931644   -0.076059
     62          1           0      -10.537640    0.001341   -2.731129
     63          1           0      -10.882623    1.365282   -1.697267
     64          1           0      -12.276227    0.636669   -2.814119
     65          1           0       10.046579   -1.862301   -0.292241
     66          1           0      -10.364242    1.786995    0.235390
     67          1           0        9.353612    1.079149   -2.208841
     68          1           0       11.018989    1.960903   -2.773174
     69          1           0        9.904025    2.649355   -1.592995
     70          1           0       -9.442362   -0.821811    2.488088
     71          1           0       -8.944929   -2.545886    1.703441
     72          1           0      -10.610979   -2.241505    2.813810
     73          1           0        8.243735    0.655065   -0.262411
     74          1           0       -8.285308   -0.631868    0.309021
     75          1           0        8.042484   -2.866088   -1.528944
     76          1           0        6.616618   -3.182739   -0.545741
     77          1           0        8.164107   -3.079989    0.235634
     78          1           0       -8.095030    2.755686    1.681043
     79          1           0       -8.636206    2.991611   -0.040325
     80          1           0       -7.104640    3.344269    0.308386
     81          1           0        6.030041    0.372818   -0.247372
     82          1           0       -6.015295   -0.162565    0.034106
     83          1           0        4.580359   -2.366706   -0.586482
     84          1           0       -5.107687    2.782587    0.693849
     85          1           0        3.586944    0.279930   -0.522618
     86          1           0       -3.772150    0.335781    0.093936
     87          1           0        2.553207   -2.848185   -1.733836
     88          1           0        1.000014   -3.066385   -0.405000
     89          1           0        3.042650   -3.442914   -0.112427
     90          1           0       -2.783152    3.714487    1.768747
     91          1           0       -3.248368    3.907955   -0.110652
     92          1           0       -1.367853    4.106691    0.548540
     93          1           0        0.075809   -1.050866   -0.338479
     94          1           0       -1.595574    0.158116    0.037828
     95          1           0        2.093024    1.579888   -0.243241
     96          1           0        0.067822    2.832012    0.235477
 ---------------------------------------------------------------------

 SCF Done:  E(RB3LYP) =  -1557.54760828     A.U. after   16 cycles

 Excitation energies and oscillator strengths:

 Excited State   1:      Singlet-A      1.9960 eV  621.17 nm  f=2.8131  <S**2>=0.000
     148 ->149         0.70389
     148 ->150         0.11482
     148 <-149        -0.12531
 This state for optimization and/or second-order correction.
 Total Energy, E(TD-HF/TD-DFT) =  -1557.47425796
 Copying the excited state density for this state as the 1-particle RhoCI density.

 The electronic state is 1-A.
 Alpha  occ. eigenvalues --  -10.21876 -10.21506 -10.20943 -10.20829 -10.20735
 Alpha  occ. eigenvalues --  -10.20493 -10.20441 -10.20264 -10.20203 -10.20100
 Alpha  occ. eigenvalues --  -10.19997 -10.19852 -10.19633 -10.19588 -10.19454
 Alpha  occ. eigenvalues --  -10.19410 -10.19272 -10.19153 -10.19132 -10.19121
 Alpha  occ. eigenvalues --  -10.18901 -10.18873 -10.18829 -10.18698 -10.18647
 Alpha  occ. eigenvalues --  -10.18543 -10.18447 -10.18343 -10.18291 -10.18202
 Alpha  occ. eigenvalues --  -10.18132 -10.17890 -10.17616 -10.17575 -10.17439
 Alpha  occ. eigenvalues --  -10.17421 -10.17362 -10.17302 -10.16900 -10.16407
 Alpha  occ. eigenvalues --   -0.84991  -0.84875  -0.83490  -0.82828  -0.81964
 Alpha  occ. eigenvalues --   -0.81468  -0.78843  -0.78632  -0.77866  -0.77218
 Alpha  occ. eigenvalues --   -0.76497  -0.75200  -0.73901  -0.71981  -0.71853
 Alpha  occ. eigenvalues --   -0.69599  -0.68674  -0.68594  -0.67350  -0.67185
 Alpha  occ. eigenvalues --   -0.66931  -0.66619  -0.66406  -0.65925  -0.65629
 Alpha  occ. eigenvalues --   -0.63233  -0.61915  -0.60299  -0.59573  -0.57817
 Alpha  occ. eigenvalues --   -0.57339  -0.55273  -0.55020  -0.53429  -0.53180
 Alpha  occ. eigenvalues --   -0.52251  -0.51602  -0.50326  -0.49690  -0.48600
 Alpha  occ. eigenvalues --   -0.48225  -0.47331  -0.47253  -0.46367  -0.46249
 Alpha  occ. eigenvalues --   -0.45859  -0.45336  -0.44891  -0.44271  -0.43963
 Alpha  occ. eigenvalues --   -0.43291  -0.43146  -0.42941  -0.42680  -0.42232
 Alpha  occ. eigenvalues --   -0.41997  -0.41899  -0.41554  -0.41296  -0.40834
 Alpha  occ. eigenvalues --   -0.40400  -0.40207  -0.39882  -0.39463  -0.39340
 Alpha  occ. eigenvalues --   -0.39041  -0.38775  -0.38626  -0.38117  -0.38036
 Alpha  occ. eigenvalues --   -0.37843  -0.37647  -0.37242  -0.36821  -0.36699
 Alpha  occ. eigenvalues --   -0.36165  -0.35591  -0.35338  -0.34887  -0.34857
 Alpha  occ. eigenvalues --   -0.34616  -0.34567  -0.34224  -0.34215  -0.33994
 Alpha  occ. eigenvalues --   -0.33887  -0.33432  -0.33074  -0.32757  -0.32354
 Alpha  occ. eigenvalues --   -0.32272  -0.31841  -0.31482  -0.31086  -0.30319
 Alpha  occ. eigenvalues --   -0.30169  -0.29891  -0.29684  -0.29325  -0.28829
 Alpha  occ. eigenvalues --   -0.28512  -0.27729  -0.26604  -0.24324  -0.22946
 Alpha  occ. eigenvalues --   -0.21369  -0.18711  -0.15845
 Alpha virt. eigenvalues --   -0.08615  -0.05597  -0.02248   0.00934   0.02736
 Alpha virt. eigenvalues --    0.03990   0.05378   0.05730   0.06114   0.07413
 Alpha virt. eigenvalues --    0.07549   0.07761   0.08214   0.08842   0.08940

 Mulliken charges:
               1
     1  C    0.026689
     2  C    0.012192
     3  C   -0.164938
     4  C   -0.178076
     5  C   -0.190725
     6  C   -0.202797
     7  C    0.032771
     8  C    0.112561
     9  C   -0.222627
    10  C   -0.207254
    11  C    0.103158
    12  C    0.038016
    13  C   -0.295472
    14  C   -0.325331
    15  C   -0.296800
    16  C   -0.274277
    17  C   -0.145013
    18  C   -0.150825
    19  C   -0.367986
    20  C   -0.346830
    21  C   -0.064554
    22  C   -0.074563
    23  C    0.054808
    24  C    0.093413
    25  C   -0.347199
    26  C   -0.354986
    27  C   -0.135404
    28  C   -0.141798
    29  C   -0.064501
    30  C   -0.099974
    31  C   -0.076685
    32  C   -0.072402
    33  C    0.112123
    34  C    0.114228
    35  C   -0.366061
    36  C   -0.357287
    37  C   -0.114477
    38  C   -0.087236
    39  C   -0.089461
    40  C   -0.112141
    41  H    0.086784
    42  H    0.051555
    43  H    0.073991
    44  H    0.085775
    45  H    0.094742
    46  H    0.087607
    47  H    0.077397
    48  H    0.091769
    49  H    0.112924
    50  H    0.087504
    51  H    0.127299
    52  H    0.097683
    53  H    0.087027
    54  H    0.096934
    55  H    0.097419
    56  H    0.116611
    57  H    0.089888
    58  H    0.098300
    59  H    0.114263
    60  H    0.061964
    61  H    0.097779
    62  H    0.083986
    63  H    0.107662
    64  H    0.086737
    65  H    0.081926
    66  H    0.053673
    67  H    0.115923
    68  H    0.092319
    69  H    0.119288
    70  H    0.103285
    71  H    0.094970
    72  H    0.099163
    73  H    0.089537
    74  H    0.080237
    75  H    0.127913
    76  H    0.113557
    77  H    0.128215
    78  H    0.124442
    79  H    0.122645
    80  H    0.109543
    81  H    0.069278
    82  H    0.061438
    83  H    0.064712
    84  H    0.060455
    85  H    0.058521
    86  H    0.066824
    87  H    0.124413
    88  H    0.079273
    89  H    0.121137
    90  H    0.119372
    91  H    0.127503
    92  H    0.098076
    93  H    0.065928
    94  H    0.071354
    95  H    0.097342
    96  H    0.071862
 Sum of Mulliken charges =  -0.00000

 Dipole moment (field-independent basis, Debye):
    X=              0.9009    Y=              0.3167    Z=             -0.2805  Tot=              0.9953
 Quadrupole moment (field-independent basis, Debye-Ang):
   XX=           -223.3323   YY=           -235.0555   ZZ=           -257.3118
   XY=              6.6586   XZ=             -7.5522   YZ=              1.3936

 Normal termination of Gaussian 16 at Mon Jul 29 22:30:46 2019.
