 Gaussian 16, Revision A.03,
 Gaussian 16:  ES64L-G16RevA.03 25-Dec-2016

 ---------------------------------
 # td=(NStates=1) B3LYP/6-31G(d,p)
 ---------------------------------

 --
 TD
 --
 Symbolic Z-matrix:
 Charge =  0 Multiplicity = 1

                         Standard orientation:
 ---------------------------------------------------------------------
 Center     Atomic      Atomic             Coordinates (Angstroms)
 Number     Number       Type             X           Y           Z
 ---------------------------------------------------------------------
      1          6           0       12.092715   -0.593004    0.712570
      2          6           0      -12.174193   -0.006300   -0.766297
      3          6           0       13.405483    0.221347    0.651655
      4          6           0      -12.975347   -1.237488   -1.200999
      5          6           0       13.193267    1.765543    0.764862
      6          6           0      -13.378622   -2.062395    0.004934
      7          6           0       10.990837    0.002677   -0.208331
      8          6           0      -10.940532   -0.476070    0.132132
      9          6           0       12.280845    2.206896   -0.359241
     10          6           0      -12.090222   -2.614594    0.653336
     11          6           0       11.138293    1.233783   -0.725039
     12          6           0      -10.955954   -1.649077    0.840685
     13          6           0       11.623984   -0.648327    2.204557
     14          6           0       12.487047   -1.951933    0.355539
     15          6           0      -13.040862    1.153486    0.038564
     16          6           0      -11.626623    0.648033   -2.017300
     17          6           0        9.850626   -0.867842   -0.499347
     18          6           0       -9.946388    0.519256    0.327299
     19          6           0       10.175387    1.897469   -1.793076
     20          6           0       -9.973839   -2.059092    1.795834
     21          6           0        8.598584   -0.465284   -0.334695
     22          6           0       -8.602609    0.410153    0.133674
     23          6           0        7.508358   -1.359828   -0.416809
     24          6           0       -7.509093    1.332855    0.205832
     25          6           0        7.647521   -2.844531   -0.706338
     26          6           0       -7.902123    2.711341    0.585394
     27          6           0        6.164122   -0.813651   -0.312619
     28          6           0       -6.201229    0.954676    0.150942
     29          6           0        4.814092   -1.369338   -0.520500
     30          6           0       -5.047876    1.761734    0.271814
     31          6           0        3.710434   -0.696566   -0.264737
     32          6           0       -3.795131    1.198664    0.244384
     33          6           0        2.382556   -1.336815   -0.369515
     34          6           0       -2.488252    1.857590    0.427592
     35          6           0        2.204840   -2.769774   -0.744172
     36          6           0       -2.505397    3.423399    0.588356
     37          6           0        1.192988   -0.650985   -0.264941
     38          6           0       -1.295913    1.180120    0.134766
     39          6           0        1.095622    0.804317    0.028343
     40          6           0        0.065016    1.598635    0.203781
     41          1           0       13.904596   -0.131730   -0.460467
     42          1           0       14.169441   -0.154039    1.419043
     43          1           0      -12.323295   -1.876621   -1.990426
     44          1           0      -13.892434   -0.845056   -1.736590
     45          1           0       14.019722    2.388624    0.525605
     46          1           0       12.728223    1.997207    1.795385
     47          1           0      -13.971326   -2.899357   -0.432390
     48          1           0      -13.874208   -1.604926    0.915716
     49          1           0       12.657059    2.332117   -1.241934
     50          1           0       12.002644    3.179187   -0.243102
     51          1           0      -11.543519   -3.614355    0.222550
     52          1           0      -12.345166   -3.156566    1.629223
     53          1           0       11.376183    0.296850    2.740236
     54          1           0       12.398167   -1.224315    2.853124
     55          1           0       10.807386   -1.330513    2.249958
     56          1           0       12.809427   -1.813554   -0.563634
     57          1           0       11.735144   -2.689842    0.469509
     58          1           0       13.226671   -2.403100    0.953392
     59          1           0      -13.424016    0.827232    0.953779
     60          1           0      -13.796916    1.200843   -0.607644
     61          1           0      -12.445933    1.985362    0.231463
     62          1           0      -10.945038   -0.009335   -2.442182
     63          1           0      -11.048908    1.466264   -1.857358
     64          1           0      -12.342251    0.947660   -2.672403
     65          1           0       10.275284   -1.784399   -0.806661
     66          1           0      -10.364851    1.358932    0.394786
     67          1           0        9.388382    1.121069   -1.982352
     68          1           0       10.741242    2.191962   -2.743622
     69          1           0        9.636229    2.686287   -1.279472
     70          1           0       -9.263571   -1.135170    1.911924
     71          1           0       -9.386878   -3.062873    1.543442
     72          1           0      -10.465028   -2.225334    2.732809
     73          1           0        8.494307    0.575287   -0.166407
     74          1           0       -8.372729   -0.594375    0.003951
     75          1           0        8.143953   -2.848005   -1.721803
     76          1           0        6.705322   -3.373220   -1.057067
     77          1           0        8.134822   -3.622867    0.009164
     78          1           0       -8.146326    3.019589    1.701006
     79          1           0       -8.872903    2.935914   -0.012835
     80          1           0       -7.049503    3.449345    0.261259
     81          1           0        5.936887    0.216930   -0.169596
     82          1           0       -5.921201   -0.088285   -0.182644
     83          1           0        4.695057   -2.336655   -0.841739
     84          1           0       -5.052081    2.936182    0.184250
     85          1           0        3.868179    0.298420   -0.064092
     86          1           0       -3.747232    0.090755    0.342192
     87          1           0        2.573146   -2.797784   -1.717816
     88          1           0        1.181174   -3.073249   -0.795221
     89          1           0        2.732106   -3.517775   -0.010695
     90          1           0       -2.902084    3.497253    1.531695
     91          1           0       -3.273992    3.828576   -0.172837
     92          1           0       -1.596340    3.733458    0.538850
     93          1           0        0.211514   -0.985343   -0.237900
     94          1           0       -1.417389    0.163035   -0.049413
     95          1           0        1.997563    1.484276    0.101136
     96          1           0        0.200830    2.535545    0.327534
 ---------------------------------------------------------------------

 SCF Done:  E(RB3LYP) =  -1557.59491888     A.U. after   15 cycles

 Excitation energies and oscillator strengths:

 Excited State   1:      Singlet-A      2.2857 eV  542.44 nm  f=2.6062  <S**2>=0.000
     148 ->149         0.70457
 This state for optimization and/or second-order correction.
 Total Energy, E(TD-HF/TD-DFT) =  -1557.51092203
 Copying the excited state density for this state as the 1-particle RhoCI density.

 The electronic state is 1-A.
 Alpha  occ. eigenvalues --  -10.21404 -10.20728 -10.20136 -10.20004 -10.19950
 Alpha  occ. eigenvalues --  -10.19630 -10.19485 -10.19436 -10.19435 -10.19421
 Alpha  occ. eigenvalues --  -10.19270 -10.19184 -10.19014 -10.18955 -10.18832
 Alpha  occ. eigenvalues --  -10.18812 -10.18757 -10.18750 -10.18444 -10.18380
 Alpha  occ. eigenvalues --  -10.18324 -10.18308 -10.18274 -10.18249 -10.18085
 Alpha  occ. eigenvalues --  -10.18016 -10.17884 -10.17853 -10.17802 -10.17652
 Alpha  occ. eigenvalues --  -10.17562 -10.17252 -10.17207 -10.16882 -10.16608
 Alpha  occ. eigenvalues --  -10.16275 -10.15894 -10.15758 -10.14865 -10.14163
 Alpha  occ. eigenvalues --   -0.85264  -0.84818  -0.83746  -0.82796  -0.82164
 Alpha  occ. eigenvalues --   -0.81484  -0.79499  -0.79274  -0.78717  -0.77961
 Alpha  occ. eigenvalues --   -0.77162  -0.75720  -0.74661  -0.72468  -0.72077
 Alpha  occ. eigenvalues --   -0.70179  -0.69560  -0.69023  -0.68284  -0.68097
 Alpha  occ. eigenvalues --   -0.67448  -0.67216  -0.66956  -0.66585  -0.66185
 Alpha  occ. eigenvalues --   -0.62935  -0.62409  -0.59872  -0.59168  -0.58012
 Alpha  occ. eigenvalues --   -0.57456  -0.55948  -0.55550  -0.54768  -0.53938
 Alpha  occ. eigenvalues --   -0.52935  -0.52055  -0.51779  -0.49752  -0.49144
 Alpha  occ. eigenvalues --   -0.47952  -0.47270  -0.47029  -0.46473  -0.46105
 Alpha  occ. eigenvalues --   -0.45597  -0.45411  -0.44930  -0.44386  -0.44333
 Alpha  occ. eigenvalues --   -0.43857  -0.43532  -0.43091  -0.42933  -0.42587
 Alpha  occ. eigenvalues --   -0.42469  -0.42203  -0.41999  -0.41929  -0.41455
 Alpha  occ. eigenvalues --   -0.41260  -0.40506  -0.40249  -0.39833  -0.39781
 Alpha  occ. eigenvalues --   -0.39604  -0.39434  -0.39277  -0.39091  -0.38735
 Alpha  occ. eigenvalues --   -0.38647  -0.38059  -0.37223  -0.36957  -0.36852
 Alpha  occ. eigenvalues --   -0.36199  -0.36170  -0.35794  -0.35654  -0.35091
 Alpha  occ. eigenvalues --   -0.35033  -0.34791  -0.34653  -0.34244  -0.33909
 Alpha  occ. eigenvalues --   -0.33473  -0.33304  -0.33153  -0.32816  -0.32530
 Alpha  occ. eigenvalues --   -0.32180  -0.32123  -0.31465  -0.30992  -0.30938
 Alpha  occ. eigenvalues --   -0.30837  -0.30461  -0.29961  -0.29576  -0.28899
 Alpha  occ. eigenvalues --   -0.27804  -0.27622  -0.26014  -0.23879  -0.22727
 Alpha  occ. eigenvalues --   -0.20814  -0.18633  -0.16645
 Alpha virt. eigenvalues --   -0.07671  -0.05401  -0.01508   0.01254   0.03147
 Alpha virt. eigenvalues --    0.04278   0.06498   0.07512   0.07883   0.08211
 Alpha virt. eigenvalues --    0.08276   0.08904   0.09192   0.09599   0.09684

 Mulliken charges:
               1
     1  C   -0.008896
     2  C   -0.030623
     3  C   -0.149637
     4  C   -0.164939
     5  C   -0.186643
     6  C   -0.179475
     7  C    0.046174
     8  C    0.053718
     9  C   -0.200233
    10  C   -0.225266
    11  C    0.025884
    12  C    0.111134
    13  C   -0.296320
    14  C   -0.298079
    15  C   -0.310688
    16  C   -0.293980
    17  C   -0.116661
    18  C   -0.119207
    19  C   -0.370259
    20  C   -0.366776
    21  C   -0.076596
    22  C   -0.083934
    23  C    0.105301
    24  C    0.129501
    25  C   -0.378377
    26  C   -0.362929
    27  C   -0.138710
    28  C   -0.126879
    29  C   -0.059067
    30  C   -0.069682
    31  C   -0.074474
    32  C   -0.114588
    33  C    0.090592
    34  C    0.044083
    35  C   -0.370322
    36  C   -0.347028
    37  C   -0.123098
    38  C   -0.100634
    39  C   -0.079966
    40  C   -0.063844
    41  H    0.040877
    42  H    0.081352
    43  H    0.087865
    44  H    0.077040
    45  H    0.098169
    46  H    0.093055
    47  H    0.092550
    48  H    0.106831
    49  H    0.113304
    50  H    0.098252
    51  H    0.070586
    52  H    0.080067
    53  H    0.096497
    54  H    0.076753
    55  H    0.106319
    56  H    0.106250
    57  H    0.095367
    58  H    0.103394
    59  H    0.105131
    60  H    0.112553
    61  H    0.111429
    62  H    0.106909
    63  H    0.099799
    64  H    0.096987
    65  H    0.097176
    66  H    0.048612
    67  H    0.110574
    68  H    0.104093
    69  H    0.118979
    70  H    0.105413
    71  H    0.091606
    72  H    0.114067
    73  H    0.096918
    74  H    0.069964
    75  H    0.117968
    76  H    0.110309
    77  H    0.115889
    78  H    0.110214
    79  H    0.098802
    80  H    0.091260
    81  H    0.066085
    82  H    0.082443
    83  H    0.066791
    84  H    0.074683
    85  H    0.078825
    86  H    0.075267
    87  H    0.135481
    88  H    0.117648
    89  H    0.102015
    90  H    0.135422
    91  H    0.109849
    92  H    0.112049
    93  H    0.084591
    94  H    0.060924
    95  H    0.062005
    96  H    0.058166
 Sum of Mulliken charges =  -0.00000

 Dipole moment (field-independent basis, Debye):
    X=              0.9397    Y=             -0.2171    Z=             -0.4694  Tot=              1.0726
 Quadrupole moment (field-independent basis, Debye-Ang):
   XX=           -218.0215   YY=           -233.4577   ZZ=           -253.2832
   XY=              0.3430   XZ=             -4.0843   YZ=              2.0467

 Normal termination of Gaussian 16 at Fri Aug  2 01:34:49 2019.
