 Gaussian 16, Revision A.03,
 Gaussian 16:  ES64L-G16RevA.03 25-Dec-2016

 ---------------------------------
 # td=(NStates=1) B3LYP/6-31G(d,p)
 ---------------------------------

 --
 TD
 --
 Symbolic Z-matrix:
 Charge =  0 Multiplicity = 1

                         Standard orientation:
 ---------------------------------------------------------------------
 Center     Atomic      Atomic             Coordinates (Angstroms)
 Number     Number       Type             X           Y           Z
 ---------------------------------------------------------------------
      1          6           0       12.151237   -0.581679    0.722242
      2          6           0      -12.199622    0.017915   -0.807112
      3          6           0       13.321034    0.285764    0.702826
      4          6           0      -13.044198   -1.181219   -1.117066
      5          6           0       13.119546    1.778900    0.738762
      6          6           0      -13.419418   -2.118998    0.039681
      7          6           0       11.038330    0.039378   -0.165947
      8          6           0      -11.015552   -0.430121    0.175802
      9          6           0       12.219551    2.239871   -0.464601
     10          6           0      -12.051075   -2.662954    0.630484
     11          6           0       11.128586    1.279767   -0.679701
     12          6           0      -11.087192   -1.621241    0.904200
     13          6           0       11.690168   -0.714706    2.148529
     14          6           0       12.609249   -2.067874    0.267022
     15          6           0      -12.885857    1.223726   -0.244809
     16          6           0      -11.483865    0.518028   -2.070025
     17          6           0        9.867933   -0.899531   -0.410100
     18          6           0       -9.923686    0.582151    0.355798
     19          6           0       10.056355    1.830425   -1.592047
     20          6           0      -10.050342   -1.992939    1.956905
     21          6           0        8.484345   -0.540593   -0.255434
     22          6           0       -8.561652    0.318636    0.273439
     23          6           0        7.416625   -1.367575   -0.575543
     24          6           0       -7.537239    1.234607    0.397307
     25          6           0        7.562570   -2.762898   -0.827682
     26          6           0       -7.881525    2.741552    0.506138
     27          6           0        6.230105   -0.729472   -0.392257
     28          6           0       -6.167033    0.819563    0.219998
     29          6           0        4.900132   -1.245425   -0.528100
     30          6           0       -4.983610    1.655167    0.336623
     31          6           0        3.660166   -0.685993   -0.285679
     32          6           0       -3.647997    1.088944    0.254508
     33          6           0        2.359091   -1.291242   -0.400985
     34          6           0       -2.464793    1.761274    0.349578
     35          6           0        2.245267   -2.677532   -0.733006
     36          6           0       -2.500834    3.272836    0.614984
     37          6           0        1.219837   -0.475476   -0.287566
     38          6           0       -1.293886    1.133591    0.125592
     39          6           0        1.123833    0.917386   -0.109065
     40          6           0       -0.050908    1.673376    0.012868
     41          1           0       14.039151    0.107677   -0.218994
     42          1           0       14.133258    0.069772    1.552876
     43          1           0      -12.604641   -1.825478   -1.868317
     44          1           0      -13.947937   -0.927225   -1.745106
     45          1           0       14.021612    2.451280    0.881332
     46          1           0       12.307959    2.030389    1.651171
     47          1           0      -14.008497   -2.955592   -0.367207
     48          1           0      -13.837679   -1.347435    0.835647
     49          1           0       12.739290    2.376661   -1.396806
     50          1           0       11.626742    3.193805   -0.102681
     51          1           0      -11.662797   -3.435830   -0.115209
     52          1           0      -12.352086   -3.075896    1.619482
     53          1           0       11.706485    0.119442    2.695704
     54          1           0       12.392357   -1.667374    2.571391
     55          1           0       10.614327   -1.130918    2.339431
     56          1           0       13.035625   -2.214621   -0.683734
     57          1           0       11.951932   -2.951010    0.481284
     58          1           0       13.521517   -2.194061    0.977367
     59          1           0      -13.307556    1.218245    0.859929
     60          1           0      -13.669285    1.489746   -0.919757
     61          1           0      -12.216092    2.230052   -0.298881
     62          1           0      -11.059070   -0.417459   -2.536555
     63          1           0      -10.830805    1.401213   -1.733270
     64          1           0      -12.265716    1.016682   -2.706112
     65          1           0       10.088728   -1.896643   -0.864935
     66          1           0      -10.103766    1.742653    0.367102
     67          1           0        9.463570    0.939322   -1.994072
     68          1           0       10.471774    2.310626   -2.435433
     69          1           0        9.480147    2.515463   -0.873433
     70          1           0       -9.433960   -1.037663    2.104185
     71          1           0       -9.541817   -2.766220    1.798364
     72          1           0      -10.764345   -2.245359    3.078253
     73          1           0        8.390305    0.312251    0.004805
     74          1           0       -8.344647   -0.613446    0.033968
     75          1           0        8.301726   -3.009681   -1.558925
     76          1           0        6.593898   -3.423020   -1.043484
     77          1           0        7.899877   -3.390545    0.211439
     78          1           0       -8.452622    2.754096    1.482003
     79          1           0       -8.755067    2.915126   -0.173221
     80          1           0       -7.032707    3.371068    0.468147
     81          1           0        6.234868    0.450925   -0.220560
     82          1           0       -5.942234   -0.253357    0.099263
     83          1           0        4.915887   -2.422650   -0.826027
     84          1           0       -5.217075    2.679160    0.524682
     85          1           0        3.717804    0.283227   -0.011396
     86          1           0       -3.424239    0.078150   -0.016660
     87          1           0        2.711991   -3.187682   -1.690504
     88          1           0        1.242557   -2.887542   -0.834903
     89          1           0        2.779627   -3.390494    0.090744
     90          1           0       -3.170524    3.486070    1.602755
     91          1           0       -2.947511    3.832219   -0.034599
     92          1           0       -1.492775    3.844607    0.723303
     93          1           0        0.209326   -0.884207   -0.299962
     94          1           0       -1.413821    0.113720   -0.287038
     95          1           0        2.076023    1.264850   -0.016636
     96          1           0        0.208853    2.760591    0.100410
 ---------------------------------------------------------------------

 SCF Done:  E(RB3LYP) =  -1557.53943236     A.U. after   17 cycles

 Excitation energies and oscillator strengths:

 Excited State   1:      Singlet-A      1.8464 eV  671.49 nm  f=3.4010  <S**2>=0.000
     148 ->149         0.71692
     148 <-149        -0.16444
 This state for optimization and/or second-order correction.
 Total Energy, E(TD-HF/TD-DFT) =  -1557.47157812
 Copying the excited state density for this state as the 1-particle RhoCI density.

 The electronic state is 1-A.
 Alpha  occ. eigenvalues --  -10.20321 -10.20310 -10.20306 -10.20229 -10.20044
 Alpha  occ. eigenvalues --  -10.19997 -10.19906 -10.19905 -10.19785 -10.19771
 Alpha  occ. eigenvalues --  -10.19618 -10.19565 -10.19503 -10.19461 -10.19279
 Alpha  occ. eigenvalues --  -10.19267 -10.19164 -10.19098 -10.19065 -10.19007
 Alpha  occ. eigenvalues --  -10.18949 -10.18881 -10.18847 -10.18753 -10.18604
 Alpha  occ. eigenvalues --  -10.18573 -10.18465 -10.18400 -10.18384 -10.18363
 Alpha  occ. eigenvalues --  -10.18316 -10.18151 -10.18131 -10.18117 -10.18010
 Alpha  occ. eigenvalues --  -10.17687 -10.17643 -10.17591 -10.17257 -10.16893
 Alpha  occ. eigenvalues --   -0.85443  -0.84861  -0.84512  -0.84134  -0.82892
 Alpha  occ. eigenvalues --   -0.82164  -0.79248  -0.79149  -0.78955  -0.76812
 Alpha  occ. eigenvalues --   -0.76348  -0.74980  -0.74257  -0.71910  -0.71789
 Alpha  occ. eigenvalues --   -0.70605  -0.69242  -0.68960  -0.68007  -0.67740
 Alpha  occ. eigenvalues --   -0.67439  -0.67379  -0.66808  -0.66595  -0.65548
 Alpha  occ. eigenvalues --   -0.63286  -0.62245  -0.59697  -0.58993  -0.57248
 Alpha  occ. eigenvalues --   -0.56695  -0.55447  -0.54979  -0.54501  -0.54161
 Alpha  occ. eigenvalues --   -0.52673  -0.52259  -0.51445  -0.50724  -0.49327
 Alpha  occ. eigenvalues --   -0.48795  -0.47937  -0.47727  -0.46946  -0.46425
 Alpha  occ. eigenvalues --   -0.45965  -0.45460  -0.45294  -0.44605  -0.44346
 Alpha  occ. eigenvalues --   -0.43908  -0.43188  -0.42923  -0.42586  -0.42292
 Alpha  occ. eigenvalues --   -0.41930  -0.41645  -0.41283  -0.40981  -0.40583
 Alpha  occ. eigenvalues --   -0.40540  -0.40474  -0.40346  -0.39973  -0.39749
 Alpha  occ. eigenvalues --   -0.39572  -0.38899  -0.38448  -0.38067  -0.37828
 Alpha  occ. eigenvalues --   -0.37493  -0.37092  -0.36906  -0.36712  -0.36319
 Alpha  occ. eigenvalues --   -0.36146  -0.36063  -0.35989  -0.35845  -0.35391
 Alpha  occ. eigenvalues --   -0.35189  -0.35013  -0.34529  -0.34386  -0.34358
 Alpha  occ. eigenvalues --   -0.33676  -0.33577  -0.33304  -0.32692  -0.32621
 Alpha  occ. eigenvalues --   -0.32176  -0.31593  -0.31460  -0.31325  -0.31103
 Alpha  occ. eigenvalues --   -0.30797  -0.29652  -0.29468  -0.29435  -0.28617
 Alpha  occ. eigenvalues --   -0.28098  -0.27433  -0.26004  -0.23921  -0.22890
 Alpha  occ. eigenvalues --   -0.21196  -0.18689  -0.15578
 Alpha virt. eigenvalues --   -0.09408  -0.05713  -0.02323   0.00683   0.02437
 Alpha virt. eigenvalues --    0.03621   0.05359   0.06042   0.06628   0.06744
 Alpha virt. eigenvalues --    0.07154   0.07470   0.07841   0.08752   0.08923

 Mulliken charges:
               1
     1  C    0.028018
     2  C    0.006995
     3  C   -0.159421
     4  C   -0.176320
     5  C   -0.181965
     6  C   -0.188899
     7  C    0.065058
     8  C    0.078196
     9  C   -0.207480
    10  C   -0.212020
    11  C    0.048058
    12  C    0.054980
    13  C   -0.272053
    14  C   -0.322430
    15  C   -0.287443
    16  C   -0.278548
    17  C   -0.176620
    18  C   -0.173990
    19  C   -0.349824
    20  C   -0.315705
    21  C   -0.021463
    22  C   -0.055924
    23  C    0.186509
    24  C    0.103097
    25  C   -0.381257
    26  C   -0.378103
    27  C   -0.135691
    28  C   -0.119497
    29  C   -0.086563
    30  C   -0.095938
    31  C   -0.105988
    32  C   -0.135475
    33  C    0.151800
    34  C    0.185037
    35  C   -0.378213
    36  C   -0.371638
    37  C   -0.129569
    38  C   -0.144524
    39  C   -0.062601
    40  C   -0.091769
    41  H    0.074981
    42  H    0.073864
    43  H    0.088026
    44  H    0.073296
    45  H    0.093069
    46  H    0.060946
    47  H    0.093742
    48  H    0.089651
    49  H    0.111956
    50  H    0.087981
    51  H    0.101529
    52  H    0.096306
    53  H    0.113703
    54  H    0.061956
    55  H    0.090307
    56  H    0.109253
    57  H    0.103244
    58  H    0.088801
    59  H    0.091280
    60  H    0.108216
    61  H    0.074521
    62  H    0.099899
    63  H    0.097488
    64  H    0.085537
    65  H    0.083149
    66  H    0.064720
    67  H    0.113691
    68  H    0.108580
    69  H    0.104685
    70  H    0.114241
    71  H    0.128855
    72  H    0.036196
    73  H    0.038455
    74  H    0.074566
    75  H    0.128744
    76  H    0.105120
    77  H    0.095253
    78  H    0.123803
    79  H    0.123590
    80  H    0.113587
    81  H    0.068143
    82  H    0.075469
    83  H    0.050001
    84  H    0.079584
    85  H    0.068331
    86  H    0.074849
    87  H    0.109140
    88  H    0.116525
    89  H    0.096310
    90  H    0.087887
    91  H    0.140233
    92  H    0.093270
    93  H    0.063983
    94  H    0.085166
    95  H    0.068065
    96  H    0.085439
 Sum of Mulliken charges =  -0.00000

 Dipole moment (field-independent basis, Debye):
    X=              0.4882    Y=              0.0110    Z=             -1.2810  Tot=              1.3709
 Quadrupole moment (field-independent basis, Debye-Ang):
   XX=           -223.4361   YY=           -233.1792   ZZ=           -258.7905
   XY=              3.1449   XZ=              0.5651   YZ=              4.7136

 Normal termination of Gaussian 16 at Wed Jul 31 21:32:19 2019.
