 Gaussian 16, Revision A.03,
 Gaussian 16:  ES64L-G16RevA.03 25-Dec-2016

 ---------------------------------
 # td=(NStates=1) B3LYP/6-31G(d,p)
 ---------------------------------

 --
 TD
 --
 Symbolic Z-matrix:
 Charge =  0 Multiplicity = 1

                         Standard orientation:
 ---------------------------------------------------------------------
 Center     Atomic      Atomic             Coordinates (Angstroms)
 Number     Number       Type             X           Y           Z
 ---------------------------------------------------------------------
      1          6           0       12.142218    0.554530   -0.492249
      2          6           0      -12.088582    0.061577    0.917757
      3          6           0       13.475199   -0.285502   -0.429584
      4          6           0      -13.028785    1.267665    1.227950
      5          6           0       13.186039   -1.740826   -0.451324
      6          6           0      -13.343574    2.153496   -0.030964
      7          6           0       10.999574   -0.021435    0.215179
      8          6           0      -10.972919    0.439833   -0.120469
      9          6           0       12.250281   -2.130773    0.648610
     10          6           0      -12.019243    2.570952   -0.650797
     11          6           0       11.178097   -1.247033    0.908829
     12          6           0      -10.997195    1.561878   -0.800916
     13          6           0       11.721318    0.584549   -2.028148
     14          6           0       12.491748    2.027423   -0.119917
     15          6           0      -12.933874   -1.012873    0.257942
     16          6           0      -11.535007   -0.540662    2.252757
     17          6           0        9.808617    0.815518    0.427161
     18          6           0       -9.962522   -0.654767   -0.156322
     19          6           0       10.023467   -1.852887    1.847604
     20          6           0       -9.841794    2.031197   -1.702318
     21          6           0        8.530197    0.481241    0.345500
     22          6           0       -8.631721   -0.452449   -0.177767
     23          6           0        7.326340    1.402584    0.396779
     24          6           0       -7.526653   -1.450751   -0.210716
     25          6           0        7.604643    2.893736    0.597287
     26          6           0       -7.899227   -2.916714   -0.305436
     27          6           0        6.141306    0.809691    0.241836
     28          6           0       -6.276399   -1.013036   -0.164134
     29          6           0        4.852361    1.396023    0.265880
     30          6           0       -5.028572   -1.738565   -0.516856
     31          6           0        3.679823    0.653320    0.182333
     32          6           0       -3.851827   -1.097186   -0.378170
     33          6           0        2.349372    1.284233    0.211051
     34          6           0       -2.472323   -1.731011   -0.535934
     35          6           0        2.280933    2.751236    0.458237
     36          6           0       -2.476670   -3.169128   -0.942803
     37          6           0        1.252746    0.521841    0.032404
     38          6           0       -1.357326   -1.085419   -0.318368
     39          6           0        1.071172   -0.841515   -0.285450
     40          6           0       -0.019681   -1.604174   -0.539714
     41          1           0       14.149183    0.097714    0.268905
     42          1           0       14.074248   -0.213676   -1.392393
     43          1           0      -12.598277    2.018194    1.959424
     44          1           0      -13.924138    0.852895    1.874877
     45          1           0       14.350086   -2.144995   -0.321320
     46          1           0       12.725846   -1.985853   -1.468253
     47          1           0      -14.029661    3.002262    0.442151
     48          1           0      -13.964225    1.482537   -0.570569
     49          1           0       12.861740   -2.359379    1.429603
     50          1           0       11.760657   -3.207402    0.483982
     51          1           0      -11.554023    3.306471    0.026535
     52          1           0      -12.180789    2.985830   -1.671682
     53          1           0       11.415042   -0.454511   -2.318776
     54          1           0       12.560264    0.912459   -2.675243
     55          1           0       10.790602    0.971724   -2.185767
     56          1           0       12.858035    2.005142    0.934197
     57          1           0       11.982232    2.760307   -0.156809
     58          1           0       13.233254    2.546837   -0.906268
     59          1           0      -13.298571   -0.648151   -0.520773
     60          1           0      -13.819750   -1.259755    1.041633
     61          1           0      -12.460560   -1.992982    0.104302
     62          1           0      -11.034733    0.167680    2.608316
     63          1           0      -10.875578   -1.423056    2.065766
     64          1           0      -12.361042   -0.684402    2.895652
     65          1           0       10.133586    1.815249    0.458144
     66          1           0      -10.447353   -1.603427   -0.370928
     67          1           0        9.246011   -1.159286    2.166128
     68          1           0       10.437896   -2.041570    2.790795
     69          1           0        9.518238   -2.628843    1.247443
     70          1           0       -9.355868    1.074130   -2.069622
     71          1           0       -9.296783    2.842178   -1.195032
     72          1           0      -10.185142    2.529539   -2.625353
     73          1           0        8.290435   -0.526783   -0.002377
     74          1           0       -8.177756    0.487547   -0.032082
     75          1           0        8.352885    3.158240    1.246683
     76          1           0        6.595093    3.324506    0.725280
     77          1           0        7.938004    3.469288   -0.399265
     78          1           0       -8.541809   -2.997596   -1.207626
     79          1           0       -8.639233   -2.874618    0.600953
     80          1           0       -6.909008   -3.610368   -0.189872
     81          1           0        6.174369   -0.374939   -0.184658
     82          1           0       -6.080124    0.026174   -0.191557
     83          1           0        4.596195    2.381692    0.693449
     84          1           0       -5.202788   -2.790773   -0.774746
     85          1           0        3.642660   -0.446177   -0.145475
     86          1           0       -3.803230   -0.024010   -0.061354
     87          1           0        2.687415    2.901498    1.415972
     88          1           0        1.195219    3.072363    0.497462
     89          1           0        2.970622    3.359948   -0.291019
     90          1           0       -2.808297   -3.502797   -2.033847
     91          1           0       -3.168754   -3.985044   -0.312836
     92          1           0       -1.370338   -3.679625   -1.102925
     93          1           0        0.216597    0.972157    0.128204
     94          1           0       -1.527573   -0.120076   -0.016895
     95          1           0        2.127537   -1.352191   -0.267219
     96          1           0        0.122119   -2.487199   -0.903731
 ---------------------------------------------------------------------

 SCF Done:  E(RB3LYP) =  -1557.54686548     A.U. after   14 cycles

 Excitation energies and oscillator strengths:

 Excited State   1:      Singlet-A      2.4962 eV  496.69 nm  f=2.6682  <S**2>=0.000
     148 ->149         0.70229
 This state for optimization and/or second-order correction.
 Total Energy, E(TD-HF/TD-DFT) =  -1557.45513114
 Copying the excited state density for this state as the 1-particle RhoCI density.

 The electronic state is 1-A.
 Alpha  occ. eigenvalues --  -10.21002 -10.20335 -10.20187 -10.20150 -10.19957
 Alpha  occ. eigenvalues --  -10.19946 -10.19882 -10.19742 -10.19626 -10.19414
 Alpha  occ. eigenvalues --  -10.19326 -10.19320 -10.19306 -10.19288 -10.19228
 Alpha  occ. eigenvalues --  -10.19210 -10.19157 -10.19128 -10.18783 -10.18736
 Alpha  occ. eigenvalues --  -10.18680 -10.18600 -10.18412 -10.18322 -10.18310
 Alpha  occ. eigenvalues --  -10.18279 -10.18160 -10.17994 -10.17970 -10.17769
 Alpha  occ. eigenvalues --  -10.17693 -10.17586 -10.17571 -10.17484 -10.17237
 Alpha  occ. eigenvalues --  -10.17212 -10.16583 -10.16315 -10.16051 -10.14950
 Alpha  occ. eigenvalues --   -0.85412  -0.85206  -0.84024  -0.83147  -0.82338
 Alpha  occ. eigenvalues --   -0.81640  -0.79111  -0.78986  -0.78576  -0.77652
 Alpha  occ. eigenvalues --   -0.76902  -0.75231  -0.74308  -0.72323  -0.72082
 Alpha  occ. eigenvalues --   -0.69952  -0.69552  -0.69513  -0.68657  -0.68119
 Alpha  occ. eigenvalues --   -0.67938  -0.67266  -0.67165  -0.66942  -0.66656
 Alpha  occ. eigenvalues --   -0.62758  -0.61753  -0.59898  -0.58881  -0.57677
 Alpha  occ. eigenvalues --   -0.57326  -0.56558  -0.55175  -0.54340  -0.53269
 Alpha  occ. eigenvalues --   -0.52321  -0.51677  -0.50151  -0.49725  -0.49350
 Alpha  occ. eigenvalues --   -0.48536  -0.47717  -0.47218  -0.46682  -0.46510
 Alpha  occ. eigenvalues --   -0.45919  -0.45552  -0.45220  -0.44773  -0.44184
 Alpha  occ. eigenvalues --   -0.44099  -0.43605  -0.43323  -0.42955  -0.42356
 Alpha  occ. eigenvalues --   -0.42116  -0.41935  -0.41731  -0.41358  -0.41127
 Alpha  occ. eigenvalues --   -0.40836  -0.40532  -0.40392  -0.40260  -0.39228
 Alpha  occ. eigenvalues --   -0.39207  -0.38922  -0.38678  -0.38279  -0.38068
 Alpha  occ. eigenvalues --   -0.37851  -0.37801  -0.37360  -0.37198  -0.36806
 Alpha  occ. eigenvalues --   -0.36527  -0.36399  -0.36108  -0.35414  -0.35182
 Alpha  occ. eigenvalues --   -0.34997  -0.34591  -0.34423  -0.34220  -0.33698
 Alpha  occ. eigenvalues --   -0.33532  -0.33325  -0.33153  -0.33078  -0.32991
 Alpha  occ. eigenvalues --   -0.32373  -0.31594  -0.31358  -0.31159  -0.30889
 Alpha  occ. eigenvalues --   -0.29884  -0.29608  -0.29448  -0.28959  -0.28504
 Alpha  occ. eigenvalues --   -0.28290  -0.27505  -0.26538  -0.24169  -0.22853
 Alpha  occ. eigenvalues --   -0.21041  -0.19267  -0.17300
 Alpha virt. eigenvalues --   -0.07487  -0.04438  -0.01682   0.00685   0.02763
 Alpha virt. eigenvalues --    0.04508   0.06045   0.06557   0.06685   0.06810
 Alpha virt. eigenvalues --    0.07381   0.07625   0.07855   0.08791   0.09318

 Mulliken charges:
               1
     1  C   -0.016276
     2  C   -0.033685
     3  C   -0.164293
     4  C   -0.192352
     5  C   -0.191648
     6  C   -0.194711
     7  C    0.064636
     8  C    0.080982
     9  C   -0.196779
    10  C   -0.204078
    11  C    0.041456
    12  C    0.042166
    13  C   -0.305016
    14  C   -0.284446
    15  C   -0.260002
    16  C   -0.280066
    17  C   -0.115543
    18  C   -0.159939
    19  C   -0.362418
    20  C   -0.360992
    21  C   -0.091984
    22  C   -0.077207
    23  C    0.124650
    24  C    0.111445
    25  C   -0.365620
    26  C   -0.359319
    27  C   -0.119773
    28  C   -0.142478
    29  C   -0.102183
    30  C   -0.066448
    31  C   -0.104230
    32  C   -0.126515
    33  C    0.130365
    34  C    0.158826
    35  C   -0.386804
    36  C   -0.375633
    37  C   -0.121380
    38  C   -0.111440
    39  C   -0.080303
    40  C   -0.058343
    41  H    0.097916
    42  H    0.085847
    43  H    0.077780
    44  H    0.069183
    45  H    0.062432
    46  H    0.100429
    47  H    0.079627
    48  H    0.110974
    49  H    0.117238
    50  H    0.078973
    51  H    0.111216
    52  H    0.097112
    53  H    0.083371
    54  H    0.096793
    55  H    0.110363
    56  H    0.091287
    57  H    0.105916
    58  H    0.064165
    59  H    0.106930
    60  H    0.060627
    61  H    0.095162
    62  H    0.112653
    63  H    0.093492
    64  H    0.096010
    65  H    0.076436
    66  H    0.093967
    67  H    0.118309
    68  H    0.113136
    69  H    0.114647
    70  H    0.119563
    71  H    0.115568
    72  H    0.094842
    73  H    0.076798
    74  H    0.085493
    75  H    0.132347
    76  H    0.110203
    77  H    0.101111
    78  H    0.127297
    79  H    0.116528
    80  H    0.096718
    81  H    0.066049
    82  H    0.072035
    83  H    0.085353
    84  H    0.082578
    85  H    0.076320
    86  H    0.078306
    87  H    0.138671
    88  H    0.106471
    89  H    0.112913
    90  H    0.104244
    91  H    0.093022
    92  H    0.083346
    93  H    0.061185
    94  H    0.071860
    95  H    0.054796
    96  H    0.071771
 Sum of Mulliken charges =  -0.00000

 Dipole moment (field-independent basis, Debye):
    X=              0.4431    Y=              1.0512    Z=             -0.0918  Tot=              1.1445
 Quadrupole moment (field-independent basis, Debye-Ang):
   XX=           -229.6558   YY=           -236.2629   ZZ=           -254.5190
   XY=              0.9382   XZ=              4.2268   YZ=              4.3217

 Normal termination of Gaussian 16 at Tue Jul 30 13:11:35 2019.
