 Gaussian 16, Revision A.03,
 Gaussian 16:  ES64L-G16RevA.03 25-Dec-2016

 ---------------------------------
 # td=(NStates=1) B3LYP/6-31G(d,p)
 ---------------------------------

 --
 TD
 --
 Symbolic Z-matrix:
 Charge =  0 Multiplicity = 1

                         Standard orientation:
 ---------------------------------------------------------------------
 Center     Atomic      Atomic             Coordinates (Angstroms)
 Number     Number       Type             X           Y           Z
 ---------------------------------------------------------------------
      1          6           0      -12.123480   -0.522545   -0.736458
      2          6           0       12.040455    0.030199    0.903615
      3          6           0      -13.364700    0.335879   -0.756331
      4          6           0       12.970693   -1.163330    1.211042
      5          6           0      -13.131107    1.815523   -0.695561
      6          6           0       13.426554   -2.002642    0.066327
      7          6           0      -11.072229   -0.073779    0.182852
      8          6           0       10.966602   -0.394667   -0.118065
      9          6           0      -12.320580    2.065080    0.583647
     10          6           0       12.268686   -2.589999   -0.751994
     11          6           0      -11.128067    1.166448    0.871891
     12          6           0       11.134595   -1.603276   -0.898073
     13          6           0      -11.549330   -0.609804   -2.169448
     14          6           0      -12.431266   -1.918996   -0.330987
     15          6           0       12.983144    1.190459    0.311525
     16          6           0       11.411033    0.604214    2.161929
     17          6           0       -9.869550   -0.874155    0.357304
     18          6           0        9.874861    0.543524   -0.309961
     19          6           0      -10.248159    1.692375    1.881798
     20          6           0        9.971720   -2.052260   -1.808546
     21          6           0       -8.595281   -0.458950    0.311815
     22          6           0        8.553254    0.254329   -0.272981
     23          6           0       -7.420577   -1.383516    0.331798
     24          6           0        7.471599    1.209332   -0.460063
     25          6           0       -7.635418   -2.808512    0.762561
     26          6           0        7.874254    2.746943   -0.686061
     27          6           0       -6.170135   -0.712918    0.220656
     28          6           0        6.180925    0.832475   -0.343526
     29          6           0       -4.894783   -1.324477    0.437308
     30          6           0        5.003442    1.591148   -0.373984
     31          6           0       -3.694979   -0.664988    0.436962
     32          6           0        3.742973    1.144804   -0.299370
     33          6           0       -2.424332   -1.175316    0.492728
     34          6           0        2.612652    1.798576   -0.409779
     35          6           0       -2.246199   -2.673898    0.821558
     36          6           0        2.488394    3.314966   -0.531340
     37          6           0       -1.221625   -0.511102    0.161828
     38          6           0        1.365503    1.090430   -0.209748
     39          6           0       -1.068829    0.798966   -0.125949
     40          6           0        0.062471    1.553842   -0.271707
     41          1           0      -14.205849    0.018980   -0.062076
     42          1           0      -13.995062   -0.086926   -1.559723
     43          1           0       12.406793   -1.857828    1.987031
     44          1           0       13.773438   -0.643958    1.846052
     45          1           0      -13.972926    2.371137   -1.013459
     46          1           0      -12.457429    2.164489   -1.496970
     47          1           0       14.219976   -2.870618    0.484308
     48          1           0       14.054728   -1.368875   -0.544800
     49          1           0      -13.032672    1.872906    1.471669
     50          1           0      -12.105330    3.146563    0.530742
     51          1           0       11.884611   -3.517949   -0.277143
     52          1           0       12.756818   -3.021211   -1.764532
     53          1           0      -11.352514    0.324516   -2.609539
     54          1           0      -12.302363   -1.233771   -2.892090
     55          1           0      -10.505260   -1.207520   -2.042647
     56          1           0      -12.380947   -2.098159    0.728548
     57          1           0      -11.941974   -2.950265   -0.694827
     58          1           0      -13.416929   -2.274393   -0.748833
     59          1           0       13.570986    0.829608   -0.609088
     60          1           0       13.856507    1.215229    1.019198
     61          1           0       12.511563    2.160717    0.135967
     62          1           0       10.973480   -0.261225    2.739840
     63          1           0       10.881961    1.391127    1.881328
     64          1           0       12.324861    0.990602    2.655640
     65          1           0       -9.885830   -1.948444   -0.010150
     66          1           0       10.234414    1.560122   -0.572585
     67          1           0       -9.796334    0.810780    2.198937
     68          1           0      -10.823248    2.042371    2.821489
     69          1           0       -9.519547    2.757961    1.757320
     70          1           0        9.396776   -1.135445   -2.086301
     71          1           0        9.347109   -2.948401   -1.329960
     72          1           0       10.198549   -2.335357   -2.727920
     73          1           0       -8.417163    0.651987    0.137145
     74          1           0        8.096266   -0.852902   -0.167301
     75          1           0       -8.196837   -2.916402    1.859427
     76          1           0       -6.701900   -3.377925    0.782972
     77          1           0       -8.098859   -3.328223   -0.110134
     78          1           0        8.630880    3.031730   -1.429956
     79          1           0        8.412173    3.125030    0.258223
     80          1           0        7.192167    3.442109   -0.851336
     81          1           0       -6.402828    0.394434    0.152528
     82          1           0        5.978955   -0.205990   -0.255433
     83          1           0       -4.746275   -2.360312    0.695968
     84          1           0        5.035037    2.682221   -0.608866
     85          1           0       -3.840992    0.441677    0.206335
     86          1           0        3.542940    0.142383   -0.169815
     87          1           0       -2.458503   -2.700696    2.094069
     88          1           0       -1.049100   -2.953824    0.630211
     89          1           0       -2.884877   -3.165458    0.236572
     90          1           0        3.070808    3.966915   -1.341632
     91          1           0        2.717829    3.756617    0.547087
     92          1           0        1.438293    3.710276   -0.616488
     93          1           0       -0.212031   -0.986818    0.285248
     94          1           0        1.540286    0.002980   -0.136256
     95          1           0       -1.973460    1.462255   -0.478861
     96          1           0       -0.130280    2.578891   -0.630397
 ---------------------------------------------------------------------

 SCF Done:  E(RB3LYP) =  -1557.57370161     A.U. after   17 cycles

 Excitation energies and oscillator strengths:

 Excited State   1:      Singlet-A      1.8305 eV  677.32 nm  f=3.3820  <S**2>=0.000
     148 ->149         0.71602
     148 <-149        -0.17135
 This state for optimization and/or second-order correction.
 Total Energy, E(TD-HF/TD-DFT) =  -1557.50643124
 Copying the excited state density for this state as the 1-particle RhoCI density.

 The electronic state is 1-A.
 Alpha  occ. eigenvalues --  -10.21009 -10.20523 -10.20399 -10.20287 -10.20202
 Alpha  occ. eigenvalues --  -10.20148 -10.20031 -10.19964 -10.19840 -10.19740
 Alpha  occ. eigenvalues --  -10.19644 -10.19641 -10.19619 -10.19553 -10.19454
 Alpha  occ. eigenvalues --  -10.19316 -10.19188 -10.19080 -10.19078 -10.19018
 Alpha  occ. eigenvalues --  -10.19015 -10.18800 -10.18752 -10.18736 -10.18699
 Alpha  occ. eigenvalues --  -10.18631 -10.18499 -10.18499 -10.18444 -10.18273
 Alpha  occ. eigenvalues --  -10.18249 -10.18193 -10.18032 -10.17919 -10.17914
 Alpha  occ. eigenvalues --  -10.17872 -10.17672 -10.16949 -10.16627 -10.16219
 Alpha  occ. eigenvalues --   -0.86256  -0.84512  -0.84179  -0.83616  -0.82016
 Alpha  occ. eigenvalues --   -0.81403  -0.79783  -0.79234  -0.77907  -0.77891
 Alpha  occ. eigenvalues --   -0.77208  -0.75373  -0.74088  -0.72551  -0.71707
 Alpha  occ. eigenvalues --   -0.69995  -0.68831  -0.68511  -0.67816  -0.67764
 Alpha  occ. eigenvalues --   -0.67644  -0.67485  -0.66656  -0.66487  -0.65800
 Alpha  occ. eigenvalues --   -0.63433  -0.62208  -0.60536  -0.59433  -0.56589
 Alpha  occ. eigenvalues --   -0.56410  -0.55954  -0.55142  -0.53501  -0.53198
 Alpha  occ. eigenvalues --   -0.52288  -0.51884  -0.50465  -0.49703  -0.48896
 Alpha  occ. eigenvalues --   -0.48126  -0.47984  -0.47715  -0.46845  -0.46467
 Alpha  occ. eigenvalues --   -0.45799  -0.44857  -0.44765  -0.44397  -0.43871
 Alpha  occ. eigenvalues --   -0.43386  -0.42862  -0.42664  -0.42504  -0.42160
 Alpha  occ. eigenvalues --   -0.41966  -0.41822  -0.41294  -0.41101  -0.41035
 Alpha  occ. eigenvalues --   -0.40762  -0.40052  -0.39732  -0.39473  -0.39230
 Alpha  occ. eigenvalues --   -0.38799  -0.38737  -0.38477  -0.38137  -0.37950
 Alpha  occ. eigenvalues --   -0.37607  -0.37053  -0.36994  -0.36490  -0.36341
 Alpha  occ. eigenvalues --   -0.35917  -0.35885  -0.35367  -0.35280  -0.34710
 Alpha  occ. eigenvalues --   -0.34685  -0.34534  -0.34031  -0.33948  -0.33712
 Alpha  occ. eigenvalues --   -0.33664  -0.33359  -0.33083  -0.32901  -0.32755
 Alpha  occ. eigenvalues --   -0.32163  -0.32024  -0.31754  -0.31578  -0.31120
 Alpha  occ. eigenvalues --   -0.30932  -0.30303  -0.29964  -0.29296  -0.28721
 Alpha  occ. eigenvalues --   -0.28353  -0.28216  -0.26365  -0.24300  -0.22282
 Alpha  occ. eigenvalues --   -0.20619  -0.18885  -0.15446
 Alpha virt. eigenvalues --   -0.09429  -0.05313  -0.01960  -0.00145   0.01832
 Alpha virt. eigenvalues --    0.03356   0.05724   0.06612   0.06736   0.07209
 Alpha virt. eigenvalues --    0.07652   0.07889   0.08299   0.08804   0.09195

 Mulliken charges:
               1
     1  C    0.023037
     2  C   -0.029942
     3  C   -0.176506
     4  C   -0.159571
     5  C   -0.192346
     6  C   -0.172193
     7  C    0.098548
     8  C    0.085363
     9  C   -0.216245
    10  C   -0.208317
    11  C    0.061363
    12  C    0.050856
    13  C   -0.267346
    14  C   -0.316782
    15  C   -0.312272
    16  C   -0.267145
    17  C   -0.160713
    18  C   -0.167067
    19  C   -0.355895
    20  C   -0.353498
    21  C   -0.096514
    22  C   -0.089371
    23  C    0.097754
    24  C    0.134539
    25  C   -0.363740
    26  C   -0.379806
    27  C   -0.116253
    28  C   -0.128196
    29  C   -0.094523
    30  C   -0.088209
    31  C   -0.087325
    32  C   -0.082127
    33  C    0.093546
    34  C    0.151498
    35  C   -0.340080
    36  C   -0.383298
    37  C   -0.121647
    38  C   -0.133179
    39  C   -0.063779
    40  C   -0.098425
    41  H    0.084015
    42  H    0.078677
    43  H    0.067310
    44  H    0.074203
    45  H    0.098099
    46  H    0.092092
    47  H    0.058806
    48  H    0.105253
    49  H    0.093656
    50  H    0.093022
    51  H    0.111469
    52  H    0.084504
    53  H    0.110299
    54  H    0.073902
    55  H    0.083698
    56  H    0.114462
    57  H    0.082098
    58  H    0.085482
    59  H    0.094191
    60  H    0.095212
    61  H    0.102711
    62  H    0.100834
    63  H    0.112518
    64  H    0.087458
    65  H    0.081620
    66  H    0.096705
    67  H    0.129031
    68  H    0.096702
    69  H    0.079402
    70  H    0.114615
    71  H    0.088365
    72  H    0.112704
    73  H    0.090140
    74  H    0.084775
    75  H    0.115432
    76  H    0.111823
    77  H    0.123048
    78  H    0.111261
    79  H    0.103540
    80  H    0.118293
    81  H    0.088342
    82  H    0.071650
    83  H    0.082357
    84  H    0.073085
    85  H    0.071230
    86  H    0.060070
    87  H    0.088975
    88  H    0.089224
    89  H    0.135253
    90  H    0.101509
    91  H    0.109592
    92  H    0.109629
    93  H    0.078525
    94  H    0.075314
    95  H    0.066868
    96  H    0.082753
 Sum of Mulliken charges =  -0.00000

 Dipole moment (field-independent basis, Debye):
    X=             -1.1968    Y=             -0.0046    Z=             -0.5336  Tot=              1.3103
 Quadrupole moment (field-independent basis, Debye-Ang):
   XX=           -223.2711   YY=           -234.0135   ZZ=           -256.5813
   XY=              3.1457   XZ=             -0.6004   YZ=             -2.6121

 Normal termination of Gaussian 16 at Mon Jul 29 07:29:27 2019.
