 Gaussian 16, Revision A.03,
 Gaussian 16:  ES64L-G16RevA.03 25-Dec-2016

 ---------------------------------
 # td=(NStates=1) B3LYP/6-31G(d,p)
 ---------------------------------

 --
 TD
 --
 Symbolic Z-matrix:
 Charge =  0 Multiplicity = 1

                         Standard orientation:
 ---------------------------------------------------------------------
 Center     Atomic      Atomic             Coordinates (Angstroms)
 Number     Number       Type             X           Y           Z
 ---------------------------------------------------------------------
      1          6           0       12.113736    0.459406   -0.817094
      2          6           0      -12.055516   -0.128365    0.972438
      3          6           0       13.408331   -0.417079   -0.663054
      4          6           0      -12.959068    1.047068    1.415950
      5          6           0       13.095907   -1.854927   -0.546532
      6          6           0      -13.414621    1.898497    0.259967
      7          6           0       11.052473   -0.064443    0.186203
      8          6           0      -11.026270    0.351527   -0.099187
      9          6           0       12.202545   -2.174255    0.703748
     10          6           0      -12.340401    2.563103   -0.518414
     11          6           0       11.145231   -1.217670    0.935789
     12          6           0      -11.193589    1.509575   -0.719716
     13          6           0       11.555901    0.482213   -2.253382
     14          6           0       12.558401    1.934567   -0.333858
     15          6           0      -12.994953   -1.184246    0.261916
     16          6           0      -11.301338   -0.781773    2.248790
     17          6           0        9.813905    0.815141    0.259606
     18          6           0       -9.905466   -0.533231   -0.335293
     19          6           0       10.178158   -1.608852    2.120973
     20          6           0      -10.221374    1.949593   -1.925098
     21          6           0        8.487348    0.403905    0.299937
     22          6           0       -8.537209   -0.196052   -0.321202
     23          6           0        7.376275    1.334245    0.505357
     24          6           0       -7.484135   -1.195715   -0.454151
     25          6           0        7.656124    2.772982    0.762287
     26          6           0       -7.853809   -2.653387   -0.803889
     27          6           0        6.193834    0.861273    0.356091
     28          6           0       -6.154945   -0.766155   -0.400524
     29          6           0        4.861622    1.505599    0.536144
     30          6           0       -5.022015   -1.526874   -0.477177
     31          6           0        3.678067    0.933701    0.154928
     32          6           0       -3.695952   -1.073085   -0.390861
     33          6           0        2.356737    1.330537    0.272305
     34          6           0       -2.516968   -1.765918   -0.443195
     35          6           0        2.276951    2.856324    0.456734
     36          6           0       -2.438527   -3.348640   -0.553463
     37          6           0        1.225629    0.631894    0.105630
     38          6           0       -1.355876   -1.087418   -0.388360
     39          6           0        1.233317   -0.765459   -0.198147
     40          6           0        0.018380   -1.590805   -0.331026
     41          1           0       13.928168   -0.224027    0.272717
     42          1           0       14.196310   -0.243183   -1.379480
     43          1           0      -12.348773    1.584881    2.012676
     44          1           0      -13.761202    0.825952    2.185366
     45          1           0       14.125697   -2.382845   -0.249428
     46          1           0       12.536378   -2.256795   -1.505351
     47          1           0      -14.013904    2.877600    0.544425
     48          1           0      -14.085188    1.316709   -0.447994
     49          1           0       12.928539   -2.183313    1.606359
     50          1           0       11.872412   -3.203380    0.693192
     51          1           0      -12.098364    3.663351   -0.130780
     52          1           0      -12.677657    2.894622   -1.484935
     53          1           0       11.561521   -0.430850   -2.780011
     54          1           0       12.276848    1.141695   -2.751568
     55          1           0       10.455812    0.812637   -2.235081
     56          1           0       12.663141    1.992073    0.874373
     57          1           0       11.735532    2.642705   -0.484664
     58          1           0       13.424622    2.404137   -1.030128
     59          1           0      -13.290091   -0.926641   -0.737149
     60          1           0      -13.950902   -1.503525    0.999281
     61          1           0      -12.194910   -1.979296    0.248467
     62          1           0      -10.653156   -0.050325    2.726169
     63          1           0      -10.775572   -1.623455    2.019166
     64          1           0      -12.050198   -0.970994    3.084854
     65          1           0       10.035905    1.886337    0.234456
     66          1           0      -10.227952   -1.642251   -0.423893
     67          1           0        9.727970   -0.639598    2.243372
     68          1           0       10.888817   -1.838122    3.047339
     69          1           0        9.792347   -2.528413    1.906946
     70          1           0       -9.648993    1.144633   -1.904764
     71          1           0       -9.580059    2.687880   -1.627545
     72          1           0      -10.720652    2.286753   -2.655410
     73          1           0        8.374213   -0.683647    0.258727
     74          1           0       -8.454063    0.915994   -0.154622
     75          1           0        8.364972    2.914386    1.478228
     76          1           0        6.850754    3.624393    0.859970
     77          1           0        8.187063    3.075138   -0.099120
     78          1           0       -8.118977   -2.608157   -1.765748
     79          1           0       -8.771536   -3.159953   -0.144685
     80          1           0       -6.985953   -3.482022   -0.691617
     81          1           0        6.088211   -0.262665    0.097810
     82          1           0       -5.838193    0.247767   -0.283179
     83          1           0        4.798901    2.612965    0.849090
     84          1           0       -5.344338   -2.548030   -0.495421
     85          1           0        3.801260   -0.021486   -0.258553
     86          1           0       -3.640543    0.098110   -0.439210
     87          1           0        2.573170    3.039582    1.685123
     88          1           0        1.346421    3.209390    0.365556
     89          1           0        2.712036    3.218571   -0.366824
     90          1           0       -2.865780   -3.550364   -1.464613
     91          1           0       -2.961153   -3.728756    0.251006
     92          1           0       -1.357522   -3.648173   -0.517225
     93          1           0        0.260605    1.097336    0.293013
     94          1           0       -1.514107   -0.167809   -0.357461
     95          1           0        2.167083   -1.296819   -0.160147
     96          1           0        0.153993   -2.671496   -0.858106
 ---------------------------------------------------------------------

 SCF Done:  E(RB3LYP) =  -1557.54776712     A.U. after   16 cycles

 Excitation energies and oscillator strengths:

 Excited State   1:      Singlet-A      2.0907 eV  593.02 nm  f=3.2261  <S**2>=0.000
     148 ->149         0.70364
     148 <-149        -0.12947
 This state for optimization and/or second-order correction.
 Total Energy, E(TD-HF/TD-DFT) =  -1557.47093426
 Copying the excited state density for this state as the 1-particle RhoCI density.

 The electronic state is 1-A.
 Alpha  occ. eigenvalues --  -10.21291 -10.20981 -10.20852 -10.20492 -10.20453
 Alpha  occ. eigenvalues --  -10.20036 -10.20018 -10.19953 -10.19920 -10.19658
 Alpha  occ. eigenvalues --  -10.19539 -10.19533 -10.19328 -10.19178 -10.19170
 Alpha  occ. eigenvalues --  -10.19152 -10.19083 -10.19048 -10.19009 -10.18852
 Alpha  occ. eigenvalues --  -10.18772 -10.18708 -10.18676 -10.18442 -10.18212
 Alpha  occ. eigenvalues --  -10.18201 -10.18194 -10.18123 -10.18094 -10.17984
 Alpha  occ. eigenvalues --  -10.17927 -10.17786 -10.17524 -10.17442 -10.17142
 Alpha  occ. eigenvalues --  -10.17126 -10.17125 -10.16999 -10.16623 -10.13720
 Alpha  occ. eigenvalues --   -0.84644  -0.84597  -0.84099  -0.83658  -0.82940
 Alpha  occ. eigenvalues --   -0.81812  -0.78408  -0.78017  -0.77495  -0.77089
 Alpha  occ. eigenvalues --   -0.76542  -0.75426  -0.73977  -0.72056  -0.71560
 Alpha  occ. eigenvalues --   -0.70501  -0.69976  -0.69087  -0.68841  -0.67859
 Alpha  occ. eigenvalues --   -0.67811  -0.67762  -0.67125  -0.66509  -0.66107
 Alpha  occ. eigenvalues --   -0.63238  -0.62006  -0.59130  -0.58578  -0.57098
 Alpha  occ. eigenvalues --   -0.56419  -0.55775  -0.55064  -0.53876  -0.53505
 Alpha  occ. eigenvalues --   -0.52646  -0.52383  -0.51144  -0.49949  -0.49023
 Alpha  occ. eigenvalues --   -0.48062  -0.47438  -0.47126  -0.46314  -0.46069
 Alpha  occ. eigenvalues --   -0.45814  -0.45245  -0.44878  -0.44216  -0.44089
 Alpha  occ. eigenvalues --   -0.43783  -0.43435  -0.43283  -0.43056  -0.42708
 Alpha  occ. eigenvalues --   -0.42577  -0.42375  -0.42312  -0.41570  -0.41048
 Alpha  occ. eigenvalues --   -0.40459  -0.40347  -0.40125  -0.39949  -0.39148
 Alpha  occ. eigenvalues --   -0.38938  -0.38881  -0.38544  -0.38160  -0.38106
 Alpha  occ. eigenvalues --   -0.37726  -0.37557  -0.37381  -0.36766  -0.36572
 Alpha  occ. eigenvalues --   -0.36386  -0.36275  -0.35734  -0.35384  -0.35329
 Alpha  occ. eigenvalues --   -0.35247  -0.34957  -0.34534  -0.34454  -0.34040
 Alpha  occ. eigenvalues --   -0.33747  -0.33591  -0.33536  -0.33183  -0.33130
 Alpha  occ. eigenvalues --   -0.32837  -0.32140  -0.31620  -0.31097  -0.30758
 Alpha  occ. eigenvalues --   -0.30252  -0.29884  -0.29446  -0.28864  -0.28057
 Alpha  occ. eigenvalues --   -0.27630  -0.26922  -0.26190  -0.24491  -0.23113
 Alpha  occ. eigenvalues --   -0.21309  -0.19274  -0.16157
 Alpha virt. eigenvalues --   -0.08736  -0.05228  -0.02002   0.00628   0.02730
 Alpha virt. eigenvalues --    0.04604   0.05601   0.06406   0.07116   0.07591
 Alpha virt. eigenvalues --    0.07845   0.08183   0.08484   0.08862   0.09013

 Mulliken charges:
               1
     1  C    0.011084
     2  C   -0.026227
     3  C   -0.155187
     4  C   -0.159305
     5  C   -0.186332
     6  C   -0.180931
     7  C    0.051798
     8  C    0.096602
     9  C   -0.219754
    10  C   -0.206671
    11  C    0.051681
    12  C    0.004550
    13  C   -0.301531
    14  C   -0.306791
    15  C   -0.274020
    16  C   -0.316431
    17  C   -0.159015
    18  C   -0.154932
    19  C   -0.345019
    20  C   -0.342398
    21  C   -0.105057
    22  C   -0.094221
    23  C    0.159479
    24  C    0.071772
    25  C   -0.384505
    26  C   -0.362108
    27  C   -0.146296
    28  C   -0.088865
    29  C   -0.089200
    30  C   -0.056354
    31  C   -0.095657
    32  C   -0.158015
    33  C    0.096374
    34  C    0.125130
    35  C   -0.350570
    36  C   -0.360815
    37  C   -0.106192
    38  C   -0.062033
    39  C   -0.101340
    40  C   -0.135770
    41  H    0.093517
    42  H    0.088590
    43  H    0.100643
    44  H    0.079562
    45  H    0.069466
    46  H    0.079034
    47  H    0.063543
    48  H    0.091981
    49  H    0.084938
    50  H    0.102584
    51  H    0.083264
    52  H    0.103914
    53  H    0.111708
    54  H    0.097468
    55  H    0.103810
    56  H    0.092861
    57  H    0.102420
    58  H    0.085328
    59  H    0.115026
    60  H    0.072872
    61  H    0.087422
    62  H    0.110217
    63  H    0.112116
    64  H    0.089504
    65  H    0.072799
    66  H    0.076092
    67  H    0.132657
    68  H    0.082864
    69  H    0.125990
    70  H    0.115202
    71  H    0.109913
    72  H    0.106153
    73  H    0.095488
    74  H    0.101306
    75  H    0.129423
    76  H    0.105770
    77  H    0.133123
    78  H    0.156439
    79  H    0.093329
    80  H    0.100400
    81  H    0.068465
    82  H    0.066297
    83  H    0.079777
    84  H    0.055164
    85  H    0.066363
    86  H    0.068379
    87  H    0.090492
    88  H    0.104886
    89  H    0.134846
    90  H    0.130540
    91  H    0.128602
    92  H    0.102211
    93  H    0.090528
    94  H    0.046340
    95  H    0.094232
    96  H    0.077214
 Sum of Mulliken charges =  -0.00000

 Dipole moment (field-independent basis, Debye):
    X=              1.3144    Y=              0.5095    Z=             -0.3564  Tot=              1.4540
 Quadrupole moment (field-independent basis, Debye-Ang):
   XX=           -233.0801   YY=           -234.8368   ZZ=           -253.8431
   XY=             -1.2128   XZ=              1.4775   YZ=              0.5494

 Normal termination of Gaussian 16 at Tue Jul 23 11:26:41 2019.
