 Gaussian 16, Revision A.03,
 Gaussian 16:  ES64L-G16RevA.03 25-Dec-2016

 ---------------------------------
 # td=(NStates=1) B3LYP/6-31G(d,p)
 ---------------------------------

 --
 TD
 --
 Symbolic Z-matrix:
 Charge =  0 Multiplicity = 1

                         Standard orientation:
 ---------------------------------------------------------------------
 Center     Atomic      Atomic             Coordinates (Angstroms)
 Number     Number       Type             X           Y           Z
 ---------------------------------------------------------------------
      1          6           0       12.121212    0.394222   -0.959994
      2          6           0      -12.011393   -0.097616    0.904440
      3          6           0       13.338090   -0.476451   -0.699927
      4          6           0      -13.080144    1.139821    1.206442
      5          6           0       13.112969   -1.984301   -0.429781
      6          6           0      -13.489793    1.943591    0.023286
      7          6           0       11.164786    0.082512    0.194779
      8          6           0      -11.018658    0.340204   -0.120780
      9          6           0       12.353612   -2.032729    0.927537
     10          6           0      -12.194050    2.596922   -0.624586
     11          6           0       11.215044   -1.001984    1.130770
     12          6           0      -11.135083    1.496640   -0.883003
     13          6           0       11.582169    0.189004   -2.369107
     14          6           0       12.465137    1.828994   -0.716532
     15          6           0      -13.036612   -1.241755    0.387008
     16          6           0      -11.380823   -0.451335    2.216607
     17          6           0        9.951256    0.860944    0.227786
     18          6           0       -9.952989   -0.596700   -0.338432
     19          6           0       10.293439   -1.257805    2.338175
     20          6           0      -10.139976    1.949238   -1.964117
     21          6           0        8.654486    0.470960    0.272138
     22          6           0       -8.587629   -0.328250   -0.145341
     23          6           0        7.460476    1.352378    0.400019
     24          6           0       -7.527515   -1.262330   -0.362567
     25          6           0        7.751832    2.836811    0.459519
     26          6           0       -7.786945   -2.771276   -0.605646
     27          6           0        6.171156    0.808031    0.417088
     28          6           0       -6.206302   -0.835427   -0.249749
     29          6           0        4.863083    1.412634    0.364835
     30          6           0       -5.018046   -1.587253   -0.408267
     31          6           0        3.668659    0.679782    0.312349
     32          6           0       -3.810203   -1.050195   -0.368093
     33          6           0        2.373602    1.275750    0.430972
     34          6           0       -2.566253   -1.689408   -0.463624
     35          6           0        2.159439    2.767959    0.824146
     36          6           0       -2.554617   -3.155409   -0.858979
     37          6           0        1.200197    0.503024    0.174022
     38          6           0       -1.304280   -0.987732   -0.258610
     39          6           0        1.121494   -0.828447   -0.118269
     40          6           0       -0.015223   -1.519668   -0.382578
     41          1           0       13.988337    0.025791    0.056984
     42          1           0       13.937145   -0.360189   -1.584422
     43          1           0      -12.584955    1.684677    2.119294
     44          1           0      -13.852000    0.561995    1.729663
     45          1           0       13.998824   -2.579699   -0.575354
     46          1           0       12.477492   -2.571394   -1.330559
     47          1           0      -14.201628    2.801833    0.159821
     48          1           0      -13.951685    1.291279   -0.769978
     49          1           0       12.902707   -1.791464    1.664676
     50          1           0       12.026089   -3.108868    1.457463
     51          1           0      -11.703858    3.411740    0.142535
     52          1           0      -12.493179    2.982841   -1.473417
     53          1           0       11.193040   -0.805888   -2.509352
     54          1           0       12.391853    0.352688   -3.171982
     55          1           0       10.871216    0.963101   -2.644117
     56          1           0       12.508543    2.227632    0.354677
     57          1           0       11.656922    2.757918   -1.085650
     58          1           0       13.578565    1.873235   -1.102419
     59          1           0      -13.512828   -0.901503   -0.570056
     60          1           0      -13.823986   -1.470418    1.244867
     61          1           0      -12.431545   -2.245808    0.548567
     62          1           0      -10.404116    0.047145    2.532929
     63          1           0      -11.072518   -1.504706    2.136700
     64          1           0      -12.056703   -0.515577    3.147027
     65          1           0       10.398880    1.996544    0.258028
     66          1           0      -10.400149   -1.557685   -0.514004
     67          1           0        9.630241   -0.624298    2.462369
     68          1           0       10.876741   -1.330730    3.138641
     69          1           0        9.637761   -2.001062    2.046962
     70          1           0       -9.475170    1.281522   -2.380142
     71          1           0       -9.615171    2.918158   -1.602716
     72          1           0      -10.788903    1.954730   -2.785284
     73          1           0        8.487942   -0.607989    0.120375
     74          1           0       -8.370192    0.801299    0.384469
     75          1           0        8.479088    3.453535    1.263369
     76          1           0        6.856117    3.368877    0.531131
     77          1           0        8.224255    3.044115   -0.459292
     78          1           0       -8.486073   -2.826829   -1.525553
     79          1           0       -8.564020   -3.263854    0.135243
     80          1           0       -6.969191   -3.502405   -0.714733
     81          1           0        6.114569   -0.378055    0.186661
     82          1           0       -6.156199    0.126192    0.032510
     83          1           0        4.625036    2.541104    0.447866
     84          1           0       -5.156748   -2.598554   -0.599969
     85          1           0        3.905635   -0.389801    0.210491
     86          1           0       -3.587190   -0.022289   -0.333122
     87          1           0        2.747235    3.061412    1.857258
     88          1           0        1.106718    2.975828    1.097395
     89          1           0        2.566308    3.288641    0.084172
     90          1           0       -2.568499   -3.133612   -2.025304
     91          1           0       -3.398058   -3.528187   -0.260735
     92          1           0       -1.522752   -3.574519   -0.662643
     93          1           0        0.201789    0.927816    0.496525
     94          1           0       -1.412996    0.103774   -0.128611
     95          1           0        2.042137   -1.500043   -0.049881
     96          1           0       -0.104504   -2.770102   -0.492999
 ---------------------------------------------------------------------

 SCF Done:  E(RB3LYP) =  -1557.50867618     A.U. after   16 cycles

 Excitation energies and oscillator strengths:

 Excited State   1:      Singlet-A      1.9644 eV  631.15 nm  f=3.3044  <S**2>=0.000
     148 ->149         0.71235
     148 <-149        -0.14134
 This state for optimization and/or second-order correction.
 Total Energy, E(TD-HF/TD-DFT) =  -1557.43648535
 Copying the excited state density for this state as the 1-particle RhoCI density.

 The electronic state is 1-A.
 Alpha  occ. eigenvalues --  -10.20947 -10.20827 -10.20619 -10.20404 -10.20391
 Alpha  occ. eigenvalues --  -10.20380 -10.20324 -10.20275 -10.20063 -10.19941
 Alpha  occ. eigenvalues --  -10.19907 -10.19898 -10.19884 -10.19741 -10.19702
 Alpha  occ. eigenvalues --  -10.19388 -10.19099 -10.19058 -10.18898 -10.18887
 Alpha  occ. eigenvalues --  -10.18828 -10.18819 -10.18810 -10.18719 -10.18573
 Alpha  occ. eigenvalues --  -10.18525 -10.18463 -10.18330 -10.18289 -10.18117
 Alpha  occ. eigenvalues --  -10.18070 -10.18053 -10.18015 -10.17977 -10.17925
 Alpha  occ. eigenvalues --  -10.17529 -10.17495 -10.17446 -10.16975 -10.14835
 Alpha  occ. eigenvalues --   -0.85186  -0.84245  -0.83648  -0.82671  -0.81386
 Alpha  occ. eigenvalues --   -0.80685  -0.79135  -0.78786  -0.77752  -0.77100
 Alpha  occ. eigenvalues --   -0.76650  -0.74954  -0.73999  -0.72529  -0.71672
 Alpha  occ. eigenvalues --   -0.69825  -0.69185  -0.68323  -0.68026  -0.67799
 Alpha  occ. eigenvalues --   -0.67720  -0.67282  -0.66367  -0.66101  -0.65353
 Alpha  occ. eigenvalues --   -0.62960  -0.62006  -0.60081  -0.59161  -0.56864
 Alpha  occ. eigenvalues --   -0.56136  -0.55971  -0.55406  -0.53928  -0.52674
 Alpha  occ. eigenvalues --   -0.52025  -0.51607  -0.49442  -0.49159  -0.48423
 Alpha  occ. eigenvalues --   -0.47731  -0.47372  -0.47103  -0.46443  -0.46358
 Alpha  occ. eigenvalues --   -0.45550  -0.45242  -0.44944  -0.44676  -0.44560
 Alpha  occ. eigenvalues --   -0.43768  -0.43481  -0.43240  -0.42738  -0.42391
 Alpha  occ. eigenvalues --   -0.42249  -0.42108  -0.41622  -0.41273  -0.40804
 Alpha  occ. eigenvalues --   -0.40732  -0.40181  -0.39518  -0.39058  -0.39015
 Alpha  occ. eigenvalues --   -0.38424  -0.38310  -0.38194  -0.38146  -0.37809
 Alpha  occ. eigenvalues --   -0.37645  -0.37501  -0.37140  -0.36627  -0.36386
 Alpha  occ. eigenvalues --   -0.36062  -0.35928  -0.35709  -0.35483  -0.35154
 Alpha  occ. eigenvalues --   -0.34922  -0.34803  -0.34394  -0.34133  -0.33523
 Alpha  occ. eigenvalues --   -0.33233  -0.33080  -0.33064  -0.32772  -0.32712
 Alpha  occ. eigenvalues --   -0.32507  -0.31726  -0.31693  -0.31449  -0.31193
 Alpha  occ. eigenvalues --   -0.30683  -0.30407  -0.29265  -0.28439  -0.28204
 Alpha  occ. eigenvalues --   -0.27579  -0.27038  -0.25598  -0.23377  -0.21799
 Alpha  occ. eigenvalues --   -0.20425  -0.18708  -0.15574
 Alpha virt. eigenvalues --   -0.08693  -0.05110  -0.01708   0.00559   0.02329
 Alpha virt. eigenvalues --    0.03671   0.05707   0.06109   0.06247   0.07088
 Alpha virt. eigenvalues --    0.07145   0.08111   0.08188   0.08546   0.08826

 Mulliken charges:
               1
     1  C    0.052098
     2  C   -0.012052
     3  C   -0.194645
     4  C   -0.159556
     5  C   -0.179060
     6  C   -0.193504
     7  C    0.017953
     8  C    0.079565
     9  C   -0.202986
    10  C   -0.183599
    11  C    0.012529
    12  C    0.014692
    13  C   -0.294042
    14  C   -0.312114
    15  C   -0.300028
    16  C   -0.315481
    17  C   -0.084988
    18  C   -0.140376
    19  C   -0.324756
    20  C   -0.339729
    21  C   -0.125411
    22  C   -0.108254
    23  C    0.114872
    24  C    0.133039
    25  C   -0.358642
    26  C   -0.378859
    27  C   -0.147402
    28  C   -0.107668
    29  C   -0.079347
    30  C   -0.082445
    31  C   -0.088820
    32  C   -0.059954
    33  C    0.068574
    34  C    0.061130
    35  C   -0.359655
    36  C   -0.353503
    37  C   -0.123391
    38  C   -0.107175
    39  C   -0.067375
    40  C   -0.093733
    41  H    0.097597
    42  H    0.085736
    43  H    0.074817
    44  H    0.083786
    45  H    0.106429
    46  H    0.065792
    47  H    0.089532
    48  H    0.090421
    49  H    0.131844
    50  H    0.058261
    51  H    0.086074
    52  H    0.102618
    53  H    0.114242
    54  H    0.087155
    55  H    0.111111
    56  H    0.113606
    57  H    0.078048
    58  H    0.082125
    59  H    0.116186
    60  H    0.090677
    61  H    0.085451
    62  H    0.110045
    63  H    0.095826
    64  H    0.091150
    65  H    0.055374
    66  H    0.090234
    67  H    0.124245
    68  H    0.113062
    69  H    0.122279
    70  H    0.118958
    71  H    0.104745
    72  H    0.113261
    73  H    0.079301
    74  H    0.076497
    75  H    0.086577
    76  H    0.112362
    77  H    0.133797
    78  H    0.108841
    79  H    0.103793
    80  H    0.119403
    81  H    0.065367
    82  H    0.062584
    83  H    0.073271
    84  H    0.073314
    85  H    0.082125
    86  H    0.070156
    87  H    0.091569
    88  H    0.115530
    89  H    0.144132
    90  H    0.123405
    91  H    0.118696
    92  H    0.098668
    93  H    0.080142
    94  H    0.071906
    95  H    0.082017
    96  H    0.059958
 Sum of Mulliken charges =  -0.00000

 Dipole moment (field-independent basis, Debye):
    X=              0.2240    Y=              0.0621    Z=             -0.0097  Tot=              0.2327
 Quadrupole moment (field-independent basis, Debye-Ang):
   XX=           -204.1991   YY=           -237.9518   ZZ=           -252.7794
   XY=             -0.9257   XZ=              4.0963   YZ=              1.0842

 Normal termination of Gaussian 16 at Sun Jul 28 12:56:32 2019.
