 Gaussian 16, Revision A.03,
 Gaussian 16:  ES64L-G16RevA.03 25-Dec-2016

 ---------------------------------
 # td=(NStates=1) B3LYP/6-31G(d,p)
 ---------------------------------

 --
 TD
 --
 Symbolic Z-matrix:
 Charge =  0 Multiplicity = 1

                         Standard orientation:
 ---------------------------------------------------------------------
 Center     Atomic      Atomic             Coordinates (Angstroms)
 Number     Number       Type             X           Y           Z
 ---------------------------------------------------------------------
      1          6           0      -12.212569   -0.647091   -0.667919
      2          6           0       12.099918   -0.062690    1.033914
      3          6           0      -13.609522    0.116903   -0.325657
      4          6           0       12.915583   -1.366558    1.341902
      5          6           0      -13.274568    1.682946   -0.406027
      6          6           0       13.422552   -2.095993    0.106730
      7          6           0      -11.042637   -0.125002    0.253024
      8          6           0       10.965024   -0.496730   -0.047808
      9          6           0      -12.438728    2.000071    0.735772
     10          6           0       12.148416   -2.716105   -0.590765
     11          6           0      -11.233006    1.052823    0.885313
     12          6           0       11.030699   -1.591492   -0.770058
     13          6           0      -11.706807   -0.608223   -2.209317
     14          6           0      -12.501618   -2.125482   -0.377511
     15          6           0       12.967289    1.059981    0.524017
     16          6           0       11.463005    0.503641    2.315889
     17          6           0       -9.859469   -0.878626    0.359029
     18          6           0        9.966147    0.549771   -0.223250
     19          6           0      -10.273760    1.624864    1.905659
     20          6           0       10.101249   -2.113214   -1.860317
     21          6           0       -8.565986   -0.464470    0.360331
     22          6           0        8.612244    0.336844   -0.236961
     23          6           0       -7.337651   -1.327451    0.369244
     24          6           0        7.540912    1.340560   -0.470611
     25          6           0       -7.545129   -2.716773    0.678693
     26          6           0        8.044355    2.704086   -0.639403
     27          6           0       -6.209665   -0.655351    0.190511
     28          6           0        6.306812    0.852820   -0.510541
     29          6           0       -4.901674   -1.224623    0.205790
     30          6           0        5.097741    1.665183   -0.603976
     31          6           0       -3.786934   -0.393637    0.025268
     32          6           0        3.889721    1.135722   -0.496551
     33          6           0       -2.452077   -0.965726    0.272651
     34          6           0        2.592862    1.974331   -0.576374
     35          6           0       -2.259590   -2.552316    0.557096
     36          6           0        2.599239    3.337782   -0.808120
     37          6           0       -1.227596   -0.352682    0.010789
     38          6           0        1.533589    1.205008   -0.305367
     39          6           0       -0.973299    1.022160   -0.231784
     40          6           0        0.094322    1.704666   -0.217310
     41          1           0      -13.956965   -0.215635    0.655525
     42          1           0      -14.459791   -0.074741   -1.077179
     43          1           0       12.396313   -1.716694    2.178916
     44          1           0       13.810754   -0.960891    1.803115
     45          1           0      -14.237942    2.279970   -0.367948
     46          1           0      -12.737415    2.081018   -1.366884
     47          1           0       13.926581   -3.031553    0.506163
     48          1           0       14.161569   -1.385350   -0.513554
     49          1           0      -13.032168    1.937097    1.651383
     50          1           0      -11.944246    3.093492    0.830039
     51          1           0       11.772728   -3.504180    0.177078
     52          1           0       12.440587   -3.016156   -1.536156
     53          1           0      -11.575239    0.353188   -2.379610
     54          1           0      -12.537723   -1.032459   -2.758909
     55          1           0      -10.901086   -1.282877   -2.293798
     56          1           0      -12.574536   -2.224060    0.607306
     57          1           0      -11.724596   -2.752085   -0.759038
     58          1           0      -13.419841   -2.450239   -0.881992
     59          1           0       13.758597    0.756978   -0.373464
     60          1           0       13.635553    1.264350    1.544819
     61          1           0       12.226885    1.892320    0.243481
     62          1           0       10.631275   -0.184724    2.748687
     63          1           0       10.818643    1.227633    2.013669
     64          1           0       12.350164    0.812872    2.910660
     65          1           0      -10.199888   -1.847304    0.431753
     66          1           0       10.244009    1.637724   -0.362539
     67          1           0       -9.495289    0.907440    2.346165
     68          1           0      -10.708843    1.985252    2.963640
     69          1           0       -9.669670    2.402747    1.432719
     70          1           0        9.111309   -1.407652   -1.889114
     71          1           0        9.731317   -3.094308   -1.540439
     72          1           0       10.579747   -2.194923   -2.808702
     73          1           0       -8.536183    0.633909    0.450824
     74          1           0        8.108478   -0.607662    0.077756
     75          1           0       -8.066040   -2.957575    1.588875
     76          1           0       -6.654123   -3.363352    0.791099
     77          1           0       -8.248063   -3.201348   -0.035034
     78          1           0        8.799642    2.860308   -1.522087
     79          1           0        8.428627    3.021754    0.561704
     80          1           0        7.065553    3.447125   -0.896286
     81          1           0       -5.951033    0.383389   -0.122142
     82          1           0        6.175746   -0.164881   -0.365305
     83          1           0       -4.785376   -2.140874    0.786189
     84          1           0        5.006567    2.800597   -0.717538
     85          1           0       -3.994351    0.768164    0.097351
     86          1           0        3.729836    0.066542   -0.474830
     87          1           0       -2.759376   -2.815094    1.680069
     88          1           0       -1.207272   -2.716671    0.658889
     89          1           0       -2.707099   -3.227402   -0.230774
     90          1           0        3.005284    3.634922   -1.829212
     91          1           0        3.061667    3.879185    0.146416
     92          1           0        1.656753    3.788377   -1.070779
     93          1           0       -0.407347   -1.020603   -0.032596
     94          1           0        1.723956    0.030181   -0.126234
     95          1           0       -1.928253    1.672262   -0.282685
     96          1           0        0.185244    2.632932   -0.605412
 ---------------------------------------------------------------------

 SCF Done:  E(RB3LYP) =  -1557.56014129     A.U. after   14 cycles

 Excitation energies and oscillator strengths:

 Excited State   1:      Singlet-A      2.5496 eV  486.29 nm  f=2.4458  <S**2>=0.000
     147 ->149        -0.11588
     148 ->149         0.69314
 This state for optimization and/or second-order correction.
 Total Energy, E(TD-HF/TD-DFT) =  -1557.46644547
 Copying the excited state density for this state as the 1-particle RhoCI density.

 The electronic state is 1-A.
 Alpha  occ. eigenvalues --  -10.21850 -10.21080 -10.20533 -10.20367 -10.20304
 Alpha  occ. eigenvalues --  -10.20194 -10.19889 -10.19590 -10.19407 -10.19280
 Alpha  occ. eigenvalues --  -10.19275 -10.19187 -10.19136 -10.18912 -10.18859
 Alpha  occ. eigenvalues --  -10.18850 -10.18653 -10.18626 -10.18578 -10.18577
 Alpha  occ. eigenvalues --  -10.18513 -10.18483 -10.18468 -10.18459 -10.18380
 Alpha  occ. eigenvalues --  -10.18376 -10.18371 -10.18234 -10.18232 -10.18201
 Alpha  occ. eigenvalues --  -10.18019 -10.17912 -10.17839 -10.17798 -10.17149
 Alpha  occ. eigenvalues --  -10.17093 -10.16844 -10.16207 -10.15690 -10.15674
 Alpha  occ. eigenvalues --   -0.84704  -0.84133  -0.83783  -0.83315  -0.82404
 Alpha  occ. eigenvalues --   -0.81340  -0.79029  -0.78200  -0.78055  -0.77520
 Alpha  occ. eigenvalues --   -0.76918  -0.75298  -0.74562  -0.72108  -0.71607
 Alpha  occ. eigenvalues --   -0.69831  -0.69024  -0.68903  -0.68057  -0.67382
 Alpha  occ. eigenvalues --   -0.67277  -0.66627  -0.66311  -0.66244  -0.65946
 Alpha  occ. eigenvalues --   -0.62520  -0.60785  -0.59148  -0.58190  -0.56927
 Alpha  occ. eigenvalues --   -0.56513  -0.54850  -0.54122  -0.53886  -0.53346
 Alpha  occ. eigenvalues --   -0.52798  -0.51136  -0.50495  -0.49073  -0.48586
 Alpha  occ. eigenvalues --   -0.47940  -0.47572  -0.47025  -0.46367  -0.46142
 Alpha  occ. eigenvalues --   -0.45677  -0.45406  -0.44629  -0.44286  -0.43903
 Alpha  occ. eigenvalues --   -0.43758  -0.43224  -0.43186  -0.42683  -0.42434
 Alpha  occ. eigenvalues --   -0.42068  -0.41781  -0.41273  -0.41167  -0.40837
 Alpha  occ. eigenvalues --   -0.40377  -0.40008  -0.39931  -0.39703  -0.39387
 Alpha  occ. eigenvalues --   -0.39146  -0.38921  -0.38659  -0.38424  -0.38167
 Alpha  occ. eigenvalues --   -0.38094  -0.38059  -0.37373  -0.36759  -0.36531
 Alpha  occ. eigenvalues --   -0.36406  -0.36010  -0.35674  -0.35556  -0.34832
 Alpha  occ. eigenvalues --   -0.34655  -0.34395  -0.34239  -0.33721  -0.33578
 Alpha  occ. eigenvalues --   -0.33043  -0.32867  -0.32751  -0.32232  -0.31998
 Alpha  occ. eigenvalues --   -0.31922  -0.31655  -0.31175  -0.31038  -0.30845
 Alpha  occ. eigenvalues --   -0.29974  -0.29659  -0.29502  -0.28423  -0.28143
 Alpha  occ. eigenvalues --   -0.27623  -0.26547  -0.25644  -0.24689  -0.22894
 Alpha  occ. eigenvalues --   -0.21191  -0.19004  -0.17296
 Alpha virt. eigenvalues --   -0.07264  -0.04210  -0.01376   0.00847   0.02987
 Alpha virt. eigenvalues --    0.04619   0.05574   0.06035   0.06794   0.07243
 Alpha virt. eigenvalues --    0.07587   0.08066   0.08510   0.08705   0.08933

 Mulliken charges:
               1
     1  C   -0.029063
     2  C   -0.028626
     3  C   -0.187522
     4  C   -0.165322
     5  C   -0.186668
     6  C   -0.188055
     7  C    0.066938
     8  C    0.093304
     9  C   -0.192520
    10  C   -0.202582
    11  C    0.056490
    12  C    0.036193
    13  C   -0.290178
    14  C   -0.311242
    15  C   -0.252619
    16  C   -0.292772
    17  C   -0.102689
    18  C   -0.174203
    19  C   -0.379246
    20  C   -0.355051
    21  C   -0.104583
    22  C   -0.095916
    23  C    0.129429
    24  C    0.174903
    25  C   -0.392574
    26  C   -0.362756
    27  C   -0.109713
    28  C   -0.137793
    29  C   -0.076950
    30  C   -0.090061
    31  C   -0.136864
    32  C   -0.096793
    33  C    0.079623
    34  C    0.161501
    35  C   -0.351831
    36  C   -0.404601
    37  C   -0.111800
    38  C   -0.142887
    39  C   -0.061567
    40  C   -0.084677
    41  H    0.105275
    42  H    0.084449
    43  H    0.101017
    44  H    0.071924
    45  H    0.078564
    46  H    0.090198
    47  H    0.086946
    48  H    0.087595
    49  H    0.107694
    50  H    0.075731
    51  H    0.102299
    52  H    0.104135
    53  H    0.110935
    54  H    0.094723
    55  H    0.112434
    56  H    0.108911
    57  H    0.095533
    58  H    0.096048
    59  H    0.076636
    60  H    0.068287
    61  H    0.097395
    62  H    0.086954
    63  H    0.113708
    64  H    0.096741
    65  H    0.067706
    66  H    0.087645
    67  H    0.107309
    68  H    0.084050
    69  H    0.119276
    70  H    0.089458
    71  H    0.113630
    72  H    0.117827
    73  H    0.081686
    74  H    0.072932
    75  H    0.131324
    76  H    0.108505
    77  H    0.123200
    78  H    0.125151
    79  H    0.092617
    80  H    0.077328
    81  H    0.080457
    82  H    0.078699
    83  H    0.093323
    84  H    0.077767
    85  H    0.094103
    86  H    0.073817
    87  H    0.080913
    88  H    0.116049
    89  H    0.122595
    90  H    0.118186
    91  H    0.120465
    92  H    0.120930
    93  H    0.079145
    94  H    0.060807
    95  H    0.061853
    96  H    0.068463
 Sum of Mulliken charges =  -0.00000

 Dipole moment (field-independent basis, Debye):
    X=             -1.5068    Y=             -0.4451    Z=              0.1856  Tot=              1.5821
 Quadrupole moment (field-independent basis, Debye-Ang):
   XX=           -231.2809   YY=           -235.1689   ZZ=           -254.0892
   XY=              2.3325   XZ=             -6.3229   YZ=             -3.6514

 Normal termination of Gaussian 16 at Wed Jul 31 23:48:44 2019.
