 Gaussian 16, Revision A.03,
 Gaussian 16:  ES64L-G16RevA.03 25-Dec-2016

 ---------------------------------
 # td=(NStates=1) B3LYP/6-31G(d,p)
 ---------------------------------

 --
 TD
 --
 Symbolic Z-matrix:
 Charge =  0 Multiplicity = 1

                         Standard orientation:
 ---------------------------------------------------------------------
 Center     Atomic      Atomic             Coordinates (Angstroms)
 Number     Number       Type             X           Y           Z
 ---------------------------------------------------------------------
      1          6           0      -12.208469   -0.671544   -0.640707
      2          6           0       12.131200   -0.077566    0.987564
      3          6           0      -13.554287    0.180048   -0.408256
      4          6           0       13.004968   -1.272434    1.255159
      5          6           0      -13.261565    1.674471   -0.533347
      6          6           0       13.506108   -2.160427    0.036773
      7          6           0      -11.152307   -0.081221    0.251171
      8          6           0       11.068999   -0.381930   -0.132320
      9          6           0      -12.400440    2.034718    0.684393
     10          6           0       12.194833   -2.540607   -0.724571
     11          6           0      -11.204381    1.161912    0.913891
     12          6           0       11.142471   -1.493073   -0.858511
     13          6           0      -11.738480   -0.510105   -2.115686
     14          6           0      -12.444125   -2.130219   -0.329415
     15          6           0       13.128985    0.988336    0.370969
     16          6           0       11.589172    0.419617    2.290584
     17          6           0       -9.836181   -0.896142    0.295799
     18          6           0       10.019539    0.640183   -0.121569
     19          6           0      -10.156613    1.759285    1.778693
     20          6           0       10.045279   -1.979534   -1.851876
     21          6           0       -8.541099   -0.366326    0.158379
     22          6           0        8.606179    0.418027   -0.190606
     23          6           0       -7.372715   -1.212613    0.280434
     24          6           0        7.487788    1.365573   -0.387483
     25          6           0       -7.603290   -2.696922    0.585823
     26          6           0        7.904898    2.774189   -0.602182
     27          6           0       -6.217935   -0.741543    0.311232
     28          6           0        6.244507    0.927034   -0.363054
     29          6           0       -4.878227   -1.346683    0.382598
     30          6           0        4.980464    1.809545   -0.449814
     31          6           0       -3.658310   -0.759819    0.288374
     32          6           0        3.708055    1.209806   -0.353849
     33          6           0       -2.358922   -1.297033    0.285227
     34          6           0        2.505302    1.873596   -0.396112
     35          6           0       -2.306062   -2.732812    0.668655
     36          6           0        2.547476    3.360610   -0.904106
     37          6           0       -1.305226   -0.524826    0.123326
     38          6           0        1.308154    1.214666   -0.253023
     39          6           0       -1.181829    0.902085   -0.157963
     40          6           0       -0.060374    1.690949   -0.203567
     41          1           0      -14.143043   -0.116005    0.630316
     42          1           0      -14.297553   -0.101633   -1.314104
     43          1           0       12.606845   -1.853233    2.155420
     44          1           0       13.891350   -0.930324    1.832352
     45          1           0      -14.092401    2.408419   -0.555139
     46          1           0      -12.804318    1.989228   -1.363177
     47          1           0       14.104928   -3.164464    0.190680
     48          1           0       14.182165   -1.611113   -0.766446
     49          1           0      -13.056389    2.159451    1.713436
     50          1           0      -12.057866    3.089266    0.614190
     51          1           0       11.779740   -3.601758   -0.220462
     52          1           0       12.598341   -2.891680   -1.663577
     53          1           0      -11.736345    0.577707   -2.331008
     54          1           0      -12.380885   -1.171911   -2.789663
     55          1           0      -10.908379   -1.088030   -2.365892
     56          1           0      -12.885336   -2.278446    0.790710
     57          1           0      -11.658625   -2.647713   -0.650006
     58          1           0      -13.187783   -2.361733   -0.953065
     59          1           0       13.502524    0.383536   -0.405909
     60          1           0       13.691968    1.421072    1.164632
     61          1           0       12.320003    1.764429   -0.135213
     62          1           0       10.987959   -0.294116    2.680023
     63          1           0       10.898065    1.409579    1.955221
     64          1           0       12.367084    0.606286    3.203285
     65          1           0       -9.834077   -1.958995    0.582603
     66          1           0       10.480120    1.730137   -0.141890
     67          1           0       -9.327294    1.073517    1.992619
     68          1           0      -10.672945    2.325560    2.722780
     69          1           0       -9.563804    2.549388    1.158184
     70          1           0        9.384717   -1.172021   -2.253099
     71          1           0        9.731875   -2.947550   -1.684773
     72          1           0       10.814928   -2.285810   -2.723342
     73          1           0       -8.284137    0.705035    0.094114
     74          1           0        8.367587   -0.720878    0.006709
     75          1           0       -7.904296   -2.974990    1.745357
     76          1           0       -6.619474   -3.360432    0.540047
     77          1           0       -8.422232   -3.332348   -0.198027
     78          1           0        8.365259    2.763302   -1.695266
     79          1           0        8.697527    3.118262    0.152407
     80          1           0        7.144166    3.599665   -0.562156
     81          1           0       -6.278049    0.291008   -0.262425
     82          1           0        6.187832   -0.154479   -0.415445
     83          1           0       -4.892012   -2.545728    0.341257
     84          1           0        5.133996    2.995336   -0.318674
     85          1           0       -3.769953    0.287988    0.192148
     86          1           0        3.577512    0.049713   -0.236699
     87          1           0       -2.892100   -2.937043    1.501547
     88          1           0       -1.248508   -3.020568    0.993872
     89          1           0       -2.503401   -3.570947    0.011518
     90          1           0        3.033059    3.451564   -1.866887
     91          1           0        3.152668    3.777326   -0.258600
     92          1           0        1.605169    3.883392   -0.948833
     93          1           0       -0.400503   -1.053572    0.239508
     94          1           0        1.367774    0.085186    0.125893
     95          1           0       -2.167679    1.527996   -0.027581
     96          1           0       -0.087018    2.936536   -0.049631
 ---------------------------------------------------------------------

 SCF Done:  E(RB3LYP) =  -1557.51680774     A.U. after   15 cycles

 Excitation energies and oscillator strengths:

 Excited State   1:      Singlet-A      2.3791 eV  521.15 nm  f=2.8735  <S**2>=0.000
     148 ->149         0.69971
 This state for optimization and/or second-order correction.
 Total Energy, E(TD-HF/TD-DFT) =  -1557.42937897
 Copying the excited state density for this state as the 1-particle RhoCI density.

 The electronic state is 1-A.
 Alpha  occ. eigenvalues --  -10.21753 -10.21742 -10.21340 -10.20632 -10.20606
 Alpha  occ. eigenvalues --  -10.20528 -10.20506 -10.20233 -10.20133 -10.20127
 Alpha  occ. eigenvalues --  -10.20048 -10.19993 -10.19988 -10.19913 -10.19767
 Alpha  occ. eigenvalues --  -10.19624 -10.19617 -10.19445 -10.19388 -10.19369
 Alpha  occ. eigenvalues --  -10.19228 -10.19170 -10.19166 -10.19152 -10.19109
 Alpha  occ. eigenvalues --  -10.18990 -10.18898 -10.18763 -10.18755 -10.18535
 Alpha  occ. eigenvalues --  -10.18490 -10.18414 -10.18284 -10.18014 -10.17823
 Alpha  occ. eigenvalues --  -10.17418 -10.17361 -10.17269 -10.17109 -10.16247
 Alpha  occ. eigenvalues --   -0.84989  -0.84735  -0.84352  -0.83428  -0.83065
 Alpha  occ. eigenvalues --   -0.81936  -0.78739  -0.78724  -0.78377  -0.76657
 Alpha  occ. eigenvalues --   -0.76329  -0.74780  -0.73315  -0.71844  -0.71238
 Alpha  occ. eigenvalues --   -0.70728  -0.69034  -0.68796  -0.68144  -0.67723
 Alpha  occ. eigenvalues --   -0.67393  -0.67017  -0.66792  -0.66040  -0.65817
 Alpha  occ. eigenvalues --   -0.63049  -0.62075  -0.60082  -0.59428  -0.56847
 Alpha  occ. eigenvalues --   -0.56161  -0.55680  -0.55102  -0.53654  -0.51844
 Alpha  occ. eigenvalues --   -0.51393  -0.51029  -0.50110  -0.49263  -0.48447
 Alpha  occ. eigenvalues --   -0.47571  -0.47376  -0.46535  -0.46517  -0.46194
 Alpha  occ. eigenvalues --   -0.45474  -0.45176  -0.44968  -0.44472  -0.44206
 Alpha  occ. eigenvalues --   -0.43607  -0.42848  -0.42649  -0.42574  -0.42287
 Alpha  occ. eigenvalues --   -0.41880  -0.41640  -0.41536  -0.41392  -0.40794
 Alpha  occ. eigenvalues --   -0.40700  -0.40517  -0.40064  -0.39640  -0.39349
 Alpha  occ. eigenvalues --   -0.39176  -0.38694  -0.38164  -0.38101  -0.37745
 Alpha  occ. eigenvalues --   -0.37489  -0.37379  -0.36996  -0.36425  -0.36252
 Alpha  occ. eigenvalues --   -0.36151  -0.35930  -0.35779  -0.35628  -0.35248
 Alpha  occ. eigenvalues --   -0.34979  -0.34520  -0.34010  -0.33915  -0.33674
 Alpha  occ. eigenvalues --   -0.33517  -0.33214  -0.33067  -0.32607  -0.32405
 Alpha  occ. eigenvalues --   -0.32093  -0.31887  -0.31577  -0.31446  -0.30345
 Alpha  occ. eigenvalues --   -0.30200  -0.29872  -0.29695  -0.29102  -0.28715
 Alpha  occ. eigenvalues --   -0.28254  -0.27527  -0.25571  -0.24327  -0.22726
 Alpha  occ. eigenvalues --   -0.21250  -0.19508  -0.17450
 Alpha virt. eigenvalues --   -0.08225  -0.05063  -0.02461  -0.00115   0.02381
 Alpha virt. eigenvalues --    0.03640   0.04938   0.05737   0.06393   0.06804
 Alpha virt. eigenvalues --    0.06931   0.07216   0.07615   0.07957   0.08479

 Mulliken charges:
               1
     1  C   -0.020464
     2  C   -0.017548
     3  C   -0.163226
     4  C   -0.171602
     5  C   -0.183067
     6  C   -0.196558
     7  C    0.068873
     8  C    0.082394
     9  C   -0.223133
    10  C   -0.213740
    11  C    0.108928
    12  C    0.071732
    13  C   -0.297521
    14  C   -0.287912
    15  C   -0.264216
    16  C   -0.280768
    17  C   -0.159643
    18  C   -0.147171
    19  C   -0.363848
    20  C   -0.351203
    21  C   -0.100388
    22  C   -0.134566
    23  C    0.204202
    24  C    0.160238
    25  C   -0.363817
    26  C   -0.367574
    27  C   -0.163046
    28  C   -0.133246
    29  C   -0.098826
    30  C   -0.125981
    31  C   -0.102910
    32  C   -0.094168
    33  C    0.159733
    34  C    0.117499
    35  C   -0.396709
    36  C   -0.363279
    37  C   -0.120524
    38  C   -0.124119
    39  C   -0.083179
    40  C   -0.099767
    41  H    0.076647
    42  H    0.062441
    43  H    0.078432
    44  H    0.080892
    45  H    0.085826
    46  H    0.114455
    47  H    0.086951
    48  H    0.089064
    49  H    0.069769
    50  H    0.090643
    51  H    0.074613
    52  H    0.103282
    53  H    0.109599
    54  H    0.078604
    55  H    0.117591
    56  H    0.084000
    57  H    0.107312
    58  H    0.111019
    59  H    0.112323
    60  H    0.107264
    61  H    0.056250
    62  H    0.120222
    63  H    0.072894
    64  H    0.078935
    65  H    0.103725
    66  H    0.085701
    67  H    0.125650
    68  H    0.089395
    69  H    0.101236
    70  H    0.124026
    71  H    0.131262
    72  H    0.073322
    73  H    0.080596
    74  H    0.084569
    75  H    0.102185
    76  H    0.094264
    77  H    0.079937
    78  H    0.115173
    79  H    0.111597
    80  H    0.103395
    81  H    0.064554
    82  H    0.082306
    83  H    0.064205
    84  H    0.089384
    85  H    0.069504
    86  H    0.082450
    87  H    0.134161
    88  H    0.091317
    89  H    0.125652
    90  H    0.126783
    91  H    0.130477
    92  H    0.105401
    93  H    0.072276
    94  H    0.065628
    95  H    0.082772
    96  H    0.078188
 Sum of Mulliken charges =  -0.00000

 Dipole moment (field-independent basis, Debye):
    X=              0.3029    Y=             -0.3764    Z=             -0.2337  Tot=              0.5366
 Quadrupole moment (field-independent basis, Debye-Ang):
   XX=           -237.7872   YY=           -232.9127   ZZ=           -256.0114
   XY=             -7.2116   XZ=              5.0123   YZ=             -0.6238

 Normal termination of Gaussian 16 at Thu Aug  1 08:01:38 2019.
