 Gaussian 16, Revision A.03,
 Gaussian 16:  ES64L-G16RevA.03 25-Dec-2016

 ---------------------------------
 # td=(NStates=1) B3LYP/6-31G(d,p)
 ---------------------------------

 --
 TD
 --
 Symbolic Z-matrix:
 Charge =  0 Multiplicity = 1

                         Standard orientation:
 ---------------------------------------------------------------------
 Center     Atomic      Atomic             Coordinates (Angstroms)
 Number     Number       Type             X           Y           Z
 ---------------------------------------------------------------------
      1          6           0      -12.208335   -0.616396   -0.626220
      2          6           0       12.236155   -0.044612    0.826846
      3          6           0      -13.458900    0.176245   -0.557626
      4          6           0       12.934104   -1.361605    1.295870
      5          6           0      -13.300188    1.691935   -0.587159
      6          6           0       13.331777   -2.108050    0.033465
      7          6           0      -11.060154   -0.091968    0.307176
      8          6           0       11.043558   -0.441670   -0.150887
      9          6           0      -12.329260    2.028777    0.473097
     10          6           0       12.110440   -2.676176   -0.554840
     11          6           0      -11.113941    1.129244    0.752075
     12          6           0       10.965106   -1.622843   -0.789024
     13          6           0      -11.630672   -0.754086   -2.009751
     14          6           0      -12.536844   -2.041520   -0.141251
     15          6           0       13.191985    0.950308    0.177674
     16          6           0       11.777567    0.640670    2.203532
     17          6           0       -9.933951   -0.955381    0.562951
     18          6           0        9.923651    0.541352   -0.237789
     19          6           0      -10.196247    1.886531    1.796402
     20          6           0        9.942480   -2.074163   -1.727768
     21          6           0       -8.670140   -0.533915    0.319485
     22          6           0        8.625171    0.366630   -0.094625
     23          6           0       -7.387695   -1.277866    0.488641
     24          6           0        7.522610    1.350407   -0.218389
     25          6           0       -7.497643   -2.736708    0.786897
     26          6           0        7.954582    2.740291   -0.555914
     27          6           0       -6.175812   -0.686360    0.261094
     28          6           0        6.305357    0.803171   -0.188539
     29          6           0       -4.897231   -1.306609    0.260589
     30          6           0        5.111899    1.614011   -0.321810
     31          6           0       -3.751798   -0.553250    0.162571
     32          6           0        3.817613    1.156110   -0.379630
     33          6           0       -2.457726   -1.105578    0.230605
     34          6           0        2.509269    1.901290   -0.508056
     35          6           0       -2.229618   -2.612194    0.518299
     36          6           0        2.640256    3.374114   -0.622973
     37          6           0       -1.328484   -0.390962    0.037759
     38          6           0        1.334685    1.349708   -0.334097
     39          6           0       -1.209446    0.999636   -0.303318
     40          6           0       -0.088934    1.785255   -0.353138
     41          1           0      -13.823190   -0.120296    0.439732
     42          1           0      -14.230181   -0.206908   -1.524249
     43          1           0       12.190215   -1.967153    2.046504
     44          1           0       14.010333   -1.251899    1.657641
     45          1           0      -14.244966    2.399628   -0.662631
     46          1           0      -12.927602    2.036252   -1.521096
     47          1           0       13.985389   -2.970905    0.123481
     48          1           0       13.965989   -1.498814   -0.845685
     49          1           0      -12.890847    2.185574    1.587007
     50          1           0      -11.930110    3.138512    0.360505
     51          1           0       11.626878   -3.438674   -0.198548
     52          1           0       12.334232   -3.121507   -1.587155
     53          1           0      -11.200554    0.091839   -2.326751
     54          1           0      -12.387227   -1.263035   -2.778668
     55          1           0      -10.960810   -1.540317   -2.110759
     56          1           0      -12.816188   -1.944621    0.877406
     57          1           0      -11.741878   -2.914967   -0.382908
     58          1           0      -13.338258   -2.511667   -0.783256
     59          1           0       13.541351    0.625790   -0.617609
     60          1           0       14.062874    1.404760    0.697195
     61          1           0       12.475742    1.714336   -0.134495
     62          1           0       11.044943   -0.025256    2.575587
     63          1           0       11.411187    1.562958    1.970890
     64          1           0       12.613381    0.835007    2.872778
     65          1           0      -10.067110   -1.898024    0.523907
     66          1           0       10.176677    1.703662   -0.362670
     67          1           0       -9.469256    1.213333    2.182073
     68          1           0      -10.684513    2.126080    2.763746
     69          1           0       -9.727626    2.671698    1.182944
     70          1           0        9.293139   -1.282708   -1.908882
     71          1           0        9.411093   -2.957591   -1.245017
     72          1           0       10.353530   -2.490210   -2.653622
     73          1           0       -8.606648    0.381365   -0.151862
     74          1           0        8.121036   -0.510977    0.009751
     75          1           0       -8.268029   -2.776778    1.548429
     76          1           0       -6.627161   -3.338076    1.009606
     77          1           0       -8.141570   -3.261345    0.097106
     78          1           0        8.619810    2.780912   -1.282301
     79          1           0        8.575020    3.255527    0.130117
     80          1           0        7.029973    3.323020   -0.808143
     81          1           0       -6.031555    0.332206   -0.122522
     82          1           0        6.314479   -0.183699    0.071762
     83          1           0       -4.676184   -2.513168    0.619575
     84          1           0        5.118526    2.635168   -0.509984
     85          1           0       -3.873620    0.624107   -0.101782
     86          1           0        3.539740    0.148289   -0.247921
     87          1           0       -2.726733   -2.894417    1.333863
     88          1           0       -1.287158   -2.880150    0.716485
     89          1           0       -2.620590   -3.122893   -0.318890
     90          1           0        3.323197    3.685735   -1.308127
     91          1           0        3.060200    3.631035    0.397368
     92          1           0        1.754879    3.787279   -0.836556
     93          1           0       -0.375760   -0.841669    0.119885
     94          1           0        1.174381    0.114009   -0.489193
     95          1           0       -2.157243    1.440530   -0.682038
     96          1           0       -0.187107    2.916470   -0.805374
 ---------------------------------------------------------------------

 SCF Done:  E(RB3LYP) =  -1557.52878931     A.U. after   14 cycles

 Excitation energies and oscillator strengths:

 Excited State   1:      Singlet-A      2.4598 eV  504.04 nm  f=2.7781  <S**2>=0.000
     148 ->149         0.69972
 This state for optimization and/or second-order correction.
 Total Energy, E(TD-HF/TD-DFT) =  -1557.43839284
 Copying the excited state density for this state as the 1-particle RhoCI density.

 The electronic state is 1-A.
 Alpha  occ. eigenvalues --  -10.20702 -10.20699 -10.20493 -10.20212 -10.20037
 Alpha  occ. eigenvalues --  -10.19938 -10.19871 -10.19675 -10.19674 -10.19522
 Alpha  occ. eigenvalues --  -10.19500 -10.19318 -10.19277 -10.19120 -10.18991
 Alpha  occ. eigenvalues --  -10.18983 -10.18904 -10.18838 -10.18773 -10.18657
 Alpha  occ. eigenvalues --  -10.18521 -10.18464 -10.18396 -10.18328 -10.18295
 Alpha  occ. eigenvalues --  -10.18165 -10.17993 -10.17870 -10.17806 -10.17783
 Alpha  occ. eigenvalues --  -10.17273 -10.17058 -10.16950 -10.16902 -10.16588
 Alpha  occ. eigenvalues --  -10.16332 -10.16204 -10.16051 -10.15503 -10.15147
 Alpha  occ. eigenvalues --   -0.86085  -0.84724  -0.83848  -0.83536  -0.82488
 Alpha  occ. eigenvalues --   -0.81992  -0.79206  -0.78618  -0.78376  -0.77964
 Alpha  occ. eigenvalues --   -0.77262  -0.75663  -0.74984  -0.72796  -0.72723
 Alpha  occ. eigenvalues --   -0.71027  -0.70524  -0.69302  -0.69014  -0.68883
 Alpha  occ. eigenvalues --   -0.68353  -0.68063  -0.67206  -0.67169  -0.66052
 Alpha  occ. eigenvalues --   -0.63501  -0.61980  -0.59773  -0.59095  -0.57712
 Alpha  occ. eigenvalues --   -0.57148  -0.55611  -0.54997  -0.54640  -0.53380
 Alpha  occ. eigenvalues --   -0.53049  -0.51767  -0.50400  -0.49991  -0.49013
 Alpha  occ. eigenvalues --   -0.48306  -0.47936  -0.47365  -0.46807  -0.46428
 Alpha  occ. eigenvalues --   -0.45721  -0.45095  -0.44795  -0.44706  -0.44457
 Alpha  occ. eigenvalues --   -0.44276  -0.43557  -0.43347  -0.43257  -0.42973
 Alpha  occ. eigenvalues --   -0.42652  -0.42220  -0.42042  -0.41527  -0.41319
 Alpha  occ. eigenvalues --   -0.41018  -0.40741  -0.40481  -0.40254  -0.39970
 Alpha  occ. eigenvalues --   -0.39641  -0.39438  -0.39201  -0.38897  -0.38767
 Alpha  occ. eigenvalues --   -0.38279  -0.38005  -0.37664  -0.37394  -0.37255
 Alpha  occ. eigenvalues --   -0.37205  -0.37116  -0.36861  -0.36525  -0.35255
 Alpha  occ. eigenvalues --   -0.34913  -0.34849  -0.34039  -0.34022  -0.33541
 Alpha  occ. eigenvalues --   -0.33503  -0.33273  -0.33204  -0.32809  -0.32659
 Alpha  occ. eigenvalues --   -0.32249  -0.31888  -0.31270  -0.31105  -0.30697
 Alpha  occ. eigenvalues --   -0.30412  -0.29732  -0.28948  -0.28708  -0.27896
 Alpha  occ. eigenvalues --   -0.27788  -0.27242  -0.26672  -0.24723  -0.23127
 Alpha  occ. eigenvalues --   -0.21686  -0.19372  -0.17239
 Alpha virt. eigenvalues --   -0.07675  -0.04752  -0.01466   0.01066   0.02852
 Alpha virt. eigenvalues --    0.04558   0.05885   0.06241   0.06370   0.07415
 Alpha virt. eigenvalues --    0.07886   0.08138   0.08209   0.08881   0.09089

 Mulliken charges:
               1
     1  C   -0.003781
     2  C   -0.012181
     3  C   -0.147290
     4  C   -0.158418
     5  C   -0.178857
     6  C   -0.186990
     7  C    0.074482
     8  C    0.044738
     9  C   -0.199851
    10  C   -0.194358
    11  C    0.029086
    12  C    0.068368
    13  C   -0.278569
    14  C   -0.305428
    15  C   -0.282992
    16  C   -0.293260
    17  C   -0.095198
    18  C   -0.169988
    19  C   -0.351575
    20  C   -0.360537
    21  C   -0.096178
    22  C   -0.052646
    23  C    0.116994
    24  C    0.146893
    25  C   -0.387184
    26  C   -0.386696
    27  C   -0.132623
    28  C   -0.122656
    29  C   -0.074103
    30  C   -0.090686
    31  C   -0.107393
    32  C   -0.099297
    33  C    0.102307
    34  C    0.097103
    35  C   -0.367876
    36  C   -0.361711
    37  C   -0.117422
    38  C   -0.125985
    39  C   -0.081082
    40  C   -0.101230
    41  H    0.093224
    42  H    0.051199
    43  H    0.078712
    44  H    0.084628
    45  H    0.082646
    46  H    0.108377
    47  H    0.086925
    48  H    0.076680
    49  H    0.065621
    50  H    0.075147
    51  H    0.114910
    52  H    0.067528
    53  H    0.108196
    54  H    0.066136
    55  H    0.108292
    56  H    0.109564
    57  H    0.078353
    58  H    0.094689
    59  H    0.107271
    60  H    0.093525
    61  H    0.093323
    62  H    0.101929
    63  H    0.098276
    64  H    0.100390
    65  H    0.059535
    66  H    0.054039
    67  H    0.119412
    68  H    0.110804
    69  H    0.118587
    70  H    0.123747
    71  H    0.102165
    72  H    0.112362
    73  H    0.083198
    74  H    0.058495
    75  H    0.120553
    76  H    0.114631
    77  H    0.124215
    78  H    0.136948
    79  H    0.124733
    80  H    0.099712
    81  H    0.080208
    82  H    0.084018
    83  H    0.064694
    84  H    0.075439
    85  H    0.076500
    86  H    0.061865
    87  H    0.126754
    88  H    0.113980
    89  H    0.127672
    90  H    0.123409
    91  H    0.119537
    92  H    0.109655
    93  H    0.074640
    94  H    0.051496
    95  H    0.082576
    96  H    0.062947
 Sum of Mulliken charges =  -0.00000

 Dipole moment (field-independent basis, Debye):
    X=             -0.0549    Y=             -0.8881    Z=             -0.8194  Tot=              1.2096
 Quadrupole moment (field-independent basis, Debye-Ang):
   XX=           -228.0194   YY=           -232.6019   ZZ=           -254.6918
   XY=              1.0192   XZ=             -0.9305   YZ=             -3.5844

 Normal termination of Gaussian 16 at Thu Aug  1 07:04:42 2019.
