 Gaussian 16, Revision A.03,
 Gaussian 16:  ES64L-G16RevA.03 25-Dec-2016

 ---------------------------------
 # td=(NStates=1) B3LYP/6-31G(d,p)
 ---------------------------------

 --
 TD
 --
 Symbolic Z-matrix:
 Charge =  0 Multiplicity = 1

                         Standard orientation:
 ---------------------------------------------------------------------
 Center     Atomic      Atomic             Coordinates (Angstroms)
 Number     Number       Type             X           Y           Z
 ---------------------------------------------------------------------
      1          6           0      -12.152802   -0.632959   -0.792147
      2          6           0       12.094250   -0.001419    0.915310
      3          6           0      -13.427446    0.241663   -0.616417
      4          6           0       13.051594   -1.116280    1.212456
      5          6           0      -13.283994    1.714059   -0.488663
      6          6           0       13.365940   -1.961334    0.038876
      7          6           0      -11.005884   -0.033240    0.243393
      8          6           0       10.901113   -0.466319   -0.010575
      9          6           0      -12.390603    2.064303    0.728384
     10          6           0       12.077781   -2.562357   -0.585469
     11          6           0      -11.081092    1.174595    0.835219
     12          6           0       10.961092   -1.572283   -0.867466
     13          6           0      -11.444846   -0.506004   -2.118386
     14          6           0      -12.558554   -2.058254   -0.322339
     15          6           0       12.833750    1.192754    0.165651
     16          6           0       11.570689    0.471543    2.245152
     17          6           0       -9.877531   -0.865832    0.450065
     18          6           0        9.815048    0.539457   -0.060276
     19          6           0      -10.140462    1.733748    1.888301
     20          6           0        9.817616   -2.137528   -1.750573
     21          6           0       -8.538916   -0.474675    0.237783
     22          6           0        8.543238    0.274388   -0.261461
     23          6           0       -7.315507   -1.292438    0.400383
     24          6           0        7.556512    1.297535   -0.323975
     25          6           0       -7.609711   -2.720884    0.619734
     26          6           0        7.861639    2.728437   -0.551630
     27          6           0       -6.114975   -0.682203    0.237852
     28          6           0        6.195871    0.980589   -0.313933
     29          6           0       -4.829873   -1.239338    0.459775
     30          6           0        5.087516    1.646665   -0.496633
     31          6           0       -3.693141   -0.548353    0.326017
     32          6           0        3.818383    1.098932   -0.373615
     33          6           0       -2.389522   -1.276693    0.397923
     34          6           0        2.524206    1.807980   -0.545024
     35          6           0       -2.191207   -2.721026    0.560324
     36          6           0        2.526745    3.286133   -0.803747
     37          6           0       -1.216743   -0.476548    0.197943
     38          6           0        1.454692    0.993816   -0.419972
     39          6           0       -1.069653    0.898647   -0.121007
     40          6           0        0.084020    1.551296   -0.424442
     41          1           0      -13.982002   -0.258883    0.232985
     42          1           0      -13.980820   -0.040860   -1.610495
     43          1           0       12.632591   -1.946116    1.983900
     44          1           0       13.980813   -0.630950    1.710238
     45          1           0      -14.094835    2.341667   -0.435004
     46          1           0      -12.773415    2.130391   -1.367499
     47          1           0       14.180358   -2.757188    0.229800
     48          1           0       13.578455   -1.332632   -0.846248
     49          1           0      -13.086585    2.006793    1.498393
     50          1           0      -11.991346    3.084410    0.865901
     51          1           0       11.909923   -3.604880    0.137495
     52          1           0       12.333634   -2.784099   -1.645773
     53          1           0      -10.931504    0.409140   -2.288222
     54          1           0      -12.264572   -0.695677   -2.933487
     55          1           0      -10.742193   -1.345075   -2.257346
     56          1           0      -12.812801   -2.238989    0.716206
     57          1           0      -11.642858   -2.664256   -0.905567
     58          1           0      -13.463839   -2.395717   -0.902418
     59          1           0       13.125332    0.736117   -0.904490
     60          1           0       13.773115    1.367726    0.673231
     61          1           0       12.175580    2.167284    0.009956
     62          1           0       10.973052   -0.050706    2.867583
     63          1           0       10.776566    1.289908    2.148171
     64          1           0       12.291051    0.685190    2.984965
     65          1           0       -9.983075   -1.831230    0.676999
     66          1           0       10.289628    1.552938   -0.128871
     67          1           0       -9.426220    1.169268    2.278191
     68          1           0      -10.815795    2.215618    2.650505
     69          1           0       -9.557869    2.767652    1.621095
     70          1           0        8.916543   -1.284907   -1.930291
     71          1           0        9.648221   -3.020490   -1.131526
     72          1           0       10.455802   -2.549554   -2.528633
     73          1           0       -8.175157    0.488918    0.037455
     74          1           0        8.389476   -0.772647   -0.232993
     75          1           0       -8.154865   -2.588118    1.554492
     76          1           0       -6.754158   -3.337724    0.984222
     77          1           0       -8.115304   -3.298309   -0.203027
     78          1           0        8.389236    3.172807   -1.483209
     79          1           0        8.515228    3.021865    0.270806
     80          1           0        7.024506    3.419765   -0.529778
     81          1           0       -6.264834    0.430269    0.012225
     82          1           0        6.197975   -0.008788   -0.136844
     83          1           0       -4.929525   -2.448402    0.667443
     84          1           0        4.989750    2.781986   -0.695091
     85          1           0       -3.696940    0.452655    0.290581
     86          1           0        4.035329   -0.101306   -0.056279
     87          1           0       -2.664979   -3.054545    1.592178
     88          1           0       -1.128838   -3.078109    0.598913
     89          1           0       -2.604445   -3.163826   -0.164279
     90          1           0        3.377198    3.511475   -1.566346
     91          1           0        2.579205    3.658243    0.172238
     92          1           0        1.643171    3.566509   -1.324049
     93          1           0       -0.408855   -1.166027    0.283036
     94          1           0        1.447290   -0.053923   -0.286400
     95          1           0       -2.038239    1.521017   -0.192254
     96          1           0        0.001434    2.450880   -0.539526
 ---------------------------------------------------------------------

 SCF Done:  E(RB3LYP) =  -1557.51928525     A.U. after   16 cycles

 Excitation energies and oscillator strengths:

 Excited State   1:      Singlet-A      2.1738 eV  570.36 nm  f=3.1009  <S**2>=0.000
     148 ->149         0.70616
 This state for optimization and/or second-order correction.
 Total Energy, E(TD-HF/TD-DFT) =  -1557.43939942
 Copying the excited state density for this state as the 1-particle RhoCI density.

 The electronic state is 1-A.
 Alpha  occ. eigenvalues --  -10.20858 -10.20343 -10.20245 -10.20184 -10.20157
 Alpha  occ. eigenvalues --  -10.19737 -10.19657 -10.19559 -10.19410 -10.19383
 Alpha  occ. eigenvalues --  -10.19324 -10.19279 -10.19276 -10.19163 -10.19117
 Alpha  occ. eigenvalues --  -10.19033 -10.18823 -10.18767 -10.18557 -10.18549
 Alpha  occ. eigenvalues --  -10.18345 -10.18279 -10.18167 -10.18099 -10.18074
 Alpha  occ. eigenvalues --  -10.18058 -10.18047 -10.17988 -10.17948 -10.17921
 Alpha  occ. eigenvalues --  -10.17887 -10.17821 -10.17661 -10.17636 -10.17595
 Alpha  occ. eigenvalues --  -10.17557 -10.17205 -10.16675 -10.16331 -10.15541
 Alpha  occ. eigenvalues --   -0.84856  -0.84337  -0.83758  -0.83215  -0.82516
 Alpha  occ. eigenvalues --   -0.81521  -0.79295  -0.78375  -0.78205  -0.77829
 Alpha  occ. eigenvalues --   -0.77244  -0.75625  -0.75028  -0.72406  -0.72101
 Alpha  occ. eigenvalues --   -0.70731  -0.69337  -0.68673  -0.68597  -0.68494
 Alpha  occ. eigenvalues --   -0.67797  -0.67238  -0.66641  -0.66453  -0.65725
 Alpha  occ. eigenvalues --   -0.62853  -0.61762  -0.59599  -0.58767  -0.57347
 Alpha  occ. eigenvalues --   -0.56452  -0.55902  -0.54510  -0.53870  -0.53214
 Alpha  occ. eigenvalues --   -0.52383  -0.52305  -0.50768  -0.50033  -0.49420
 Alpha  occ. eigenvalues --   -0.48063  -0.47493  -0.47260  -0.46582  -0.46434
 Alpha  occ. eigenvalues --   -0.45711  -0.45535  -0.45060  -0.44889  -0.44431
 Alpha  occ. eigenvalues --   -0.43767  -0.43636  -0.43190  -0.43048  -0.42980
 Alpha  occ. eigenvalues --   -0.42612  -0.41827  -0.41541  -0.41160  -0.41041
 Alpha  occ. eigenvalues --   -0.40779  -0.40574  -0.39811  -0.39670  -0.39547
 Alpha  occ. eigenvalues --   -0.39426  -0.39267  -0.38856  -0.38679  -0.38386
 Alpha  occ. eigenvalues --   -0.37680  -0.37384  -0.37361  -0.37175  -0.36672
 Alpha  occ. eigenvalues --   -0.35968  -0.35786  -0.35355  -0.35127  -0.34918
 Alpha  occ. eigenvalues --   -0.34695  -0.34352  -0.34024  -0.33941  -0.33755
 Alpha  occ. eigenvalues --   -0.33428  -0.33216  -0.33108  -0.32788  -0.32434
 Alpha  occ. eigenvalues --   -0.31758  -0.31709  -0.31603  -0.31203  -0.30910
 Alpha  occ. eigenvalues --   -0.30659  -0.30404  -0.29361  -0.28786  -0.28334
 Alpha  occ. eigenvalues --   -0.27928  -0.27242  -0.26205  -0.23958  -0.22306
 Alpha  occ. eigenvalues --   -0.20865  -0.18320  -0.15957
 Alpha virt. eigenvalues --   -0.07747  -0.05036  -0.01539   0.00829   0.02593
 Alpha virt. eigenvalues --    0.04552   0.05978   0.06751   0.06853   0.07536
 Alpha virt. eigenvalues --    0.07575   0.08028   0.08727   0.09230   0.09637

 Mulliken charges:
               1
     1  C    0.012941
     2  C    0.001472
     3  C   -0.159236
     4  C   -0.142452
     5  C   -0.189576
     6  C   -0.183672
     7  C    0.043752
     8  C    0.055071
     9  C   -0.237189
    10  C   -0.199461
    11  C    0.082031
    12  C    0.005369
    13  C   -0.291897
    14  C   -0.308869
    15  C   -0.290743
    16  C   -0.303960
    17  C   -0.153479
    18  C   -0.097214
    19  C   -0.350258
    20  C   -0.344460
    21  C   -0.080340
    22  C   -0.132622
    23  C    0.118300
    24  C    0.101898
    25  C   -0.376831
    26  C   -0.382485
    27  C   -0.134109
    28  C   -0.102226
    29  C   -0.079869
    30  C   -0.055438
    31  C   -0.080692
    32  C   -0.106270
    33  C    0.080354
    34  C    0.062907
    35  C   -0.364973
    36  C   -0.365805
    37  C   -0.118204
    38  C   -0.073524
    39  C   -0.100617
    40  C   -0.051006
    41  H    0.085581
    42  H    0.070658
    43  H    0.069668
    44  H    0.075008
    45  H    0.098659
    46  H    0.094715
    47  H    0.082702
    48  H    0.091865
    49  H    0.113273
    50  H    0.088881
    51  H    0.060293
    52  H    0.091692
    53  H    0.128646
    54  H    0.076644
    55  H    0.108395
    56  H    0.124766
    57  H    0.072952
    58  H    0.099825
    59  H    0.089521
    60  H    0.106887
    61  H    0.098018
    62  H    0.114371
    63  H    0.080422
    64  H    0.095169
    65  H    0.085093
    66  H    0.082750
    67  H    0.124035
    68  H    0.103889
    69  H    0.075298
    70  H    0.116523
    71  H    0.136087
    72  H    0.109799
    73  H    0.065815
    74  H    0.104494
    75  H    0.130433
    76  H    0.093454
    77  H    0.125239
    78  H    0.100777
    79  H    0.112777
    80  H    0.110934
    81  H    0.064041
    82  H    0.057372
    83  H    0.070301
    84  H    0.064551
    85  H    0.082849
    86  H    0.059182
    87  H    0.099786
    88  H    0.108051
    89  H    0.143244
    90  H    0.116605
    91  H    0.148988
    92  H    0.126830
    93  H    0.062962
    94  H    0.085129
    95  H    0.073038
    96  H    0.034447
 Sum of Mulliken charges =  -0.00000

 Dipole moment (field-independent basis, Debye):
    X=             -1.6623    Y=             -0.0036    Z=              0.2856  Tot=              1.6867
 Quadrupole moment (field-independent basis, Debye-Ang):
   XX=           -224.5704   YY=           -233.9884   ZZ=           -253.9144
   XY=              1.0571   XZ=             -0.4645   YZ=             -2.4575

 Normal termination of Gaussian 16 at Sat Jul 27 16:24:06 2019.
