 Gaussian 16, Revision A.03,
 Gaussian 16:  ES64L-G16RevA.03 25-Dec-2016

 ---------------------------------
 # td=(NStates=1) B3LYP/6-31G(d,p)
 ---------------------------------

 --
 TD
 --
 Symbolic Z-matrix:
 Charge =  0 Multiplicity = 1

                         Standard orientation:
 ---------------------------------------------------------------------
 Center     Atomic      Atomic             Coordinates (Angstroms)
 Number     Number       Type             X           Y           Z
 ---------------------------------------------------------------------
      1          6           0       12.171727    0.390667   -0.766996
      2          6           0      -12.099055   -0.057557    0.973150
      3          6           0       13.481602   -0.323793   -0.643356
      4          6           0      -13.038252    0.985502    1.330372
      5          6           0       13.229559   -1.847457   -0.671129
      6          6           0      -13.476503    1.950854    0.140904
      7          6           0       11.040155   -0.088184    0.208860
      8          6           0      -11.048794    0.354678   -0.126043
      9          6           0       12.495042   -2.201206    0.660345
     10          6           0      -12.145958    2.579081   -0.504020
     11          6           0       11.150425   -1.204304    0.892006
     12          6           0      -11.089016    1.535036   -0.786762
     13          6           0       11.641408    0.557812   -2.211215
     14          6           0       12.548179    1.860689   -0.304799
     15          6           0      -13.049452   -1.239082    0.295683
     16          6           0      -11.423816   -0.737691    2.104252
     17          6           0        9.959795    0.811681    0.328901
     18          6           0       -9.990686   -0.521726   -0.336797
     19          6           0       10.180210   -1.716946    1.939434
     20          6           0      -10.013311    1.989681   -1.832921
     21          6           0        8.676516    0.395186    0.332210
     22          6           0       -8.715273   -0.302586   -0.316786
     23          6           0        7.503919    1.219415    0.438493
     24          6           0       -7.580868   -1.256464   -0.430949
     25          6           0        7.699893    2.661321    0.604391
     26          6           0       -7.957059   -2.677774   -0.824073
     27          6           0        6.220230    0.769790    0.287746
     28          6           0       -6.316684   -0.860301   -0.286278
     29          6           0        4.875783    1.374347    0.321774
     30          6           0       -5.151266   -1.653349   -0.401322
     31          6           0        3.734984    0.739337    0.294750
     32          6           0       -3.854832   -0.988436   -0.260178
     33          6           0        2.381725    1.297037    0.328711
     34          6           0       -2.610039   -1.602766   -0.361366
     35          6           0        2.395836    2.854943    0.579848
     36          6           0       -2.590980   -3.109599   -0.844852
     37          6           0        1.234079    0.720733    0.182124
     38          6           0       -1.410955   -0.840546   -0.148787
     39          6           0        1.030365   -0.655843    0.000916
     40          6           0       -0.136439   -1.354256   -0.218603
     41          1           0       13.884014    0.149925    0.410338
     42          1           0       14.189145   -0.154294   -1.535261
     43          1           0      -12.631425    1.560746    2.047958
     44          1           0      -13.954855    0.605019    1.880002
     45          1           0       14.297727   -2.332372   -0.700005
     46          1           0       12.709829   -2.160601   -1.732301
     47          1           0      -14.100773    2.770888    0.606024
     48          1           0      -13.890485    1.324463   -0.577307
     49          1           0       12.917296   -2.235038    1.755009
     50          1           0       12.201319   -3.284433    0.777564
     51          1           0      -11.740949    3.357342    0.172798
     52          1           0      -12.559892    3.314229   -1.405016
     53          1           0       11.544668   -0.418977   -2.592589
     54          1           0       12.157966    1.461093   -2.951492
     55          1           0       10.554891    0.859257   -2.054198
     56          1           0       12.727545    1.963278    0.946710
     57          1           0       11.822741    2.734396   -0.575544
     58          1           0       13.576723    2.027568   -0.623830
     59          1           0      -13.736374   -1.097869   -0.500547
     60          1           0      -13.648140   -1.679149    1.018922
     61          1           0      -12.191184   -2.036021   -0.275306
     62          1           0      -10.662102   -0.080340    2.564343
     63          1           0      -11.035077   -1.814118    1.855101
     64          1           0      -12.085629   -1.052590    2.948412
     65          1           0       10.128143    1.837340    0.642944
     66          1           0      -10.109919   -1.736623   -0.414820
     67          1           0        9.600420   -1.011408    2.549731
     68          1           0       10.842099   -2.002524    2.731374
     69          1           0        9.588606   -2.683720    1.589916
     70          1           0       -9.513863    1.103356   -2.074968
     71          1           0       -9.448863    2.857524   -1.463712
     72          1           0      -10.762678    2.435442   -2.684227
     73          1           0        8.515616   -0.598439   -0.240105
     74          1           0       -8.376917    0.752156   -0.252036
     75          1           0        8.161035    2.805344    1.590237
     76          1           0        6.800898    3.229528    0.672561
     77          1           0        8.420033    3.072612   -0.163738
     78          1           0       -8.409404   -2.693729   -2.087524
     79          1           0       -8.728130   -2.949376   -0.084628
     80          1           0       -7.059275   -3.311265   -0.694478
     81          1           0        6.159292   -0.134906    0.191692
     82          1           0       -6.071559    0.141510   -0.102163
     83          1           0        4.761446    2.602759    0.446804
     84          1           0       -5.092931   -2.756255   -0.589237
     85          1           0        4.050573   -0.341869    0.468693
     86          1           0       -3.845712    0.034701   -0.048343
     87          1           0        2.960085    3.120241    1.423854
     88          1           0        1.355605    3.190475    0.663042
     89          1           0        2.940067    3.521040   -0.127388
     90          1           0       -2.879206   -3.120815   -1.945146
     91          1           0       -3.118364   -3.985000   -0.235653
     92          1           0       -1.514893   -3.522365   -0.739569
     93          1           0        0.214566    1.057810    0.385588
     94          1           0       -1.623905    0.270229   -0.062558
     95          1           0        2.015962   -1.329571   -0.153597
     96          1           0       -0.018968   -2.484153   -0.458160
 ---------------------------------------------------------------------

 SCF Done:  E(RB3LYP) =  -1557.52125959     A.U. after   16 cycles

 Excitation energies and oscillator strengths:

 Excited State   1:      Singlet-A      2.1873 eV  566.83 nm  f=3.1528  <S**2>=0.000
     148 ->149         0.69689
     148 ->150        -0.12267
     148 <-149        -0.12806
 This state for optimization and/or second-order correction.
 Total Energy, E(TD-HF/TD-DFT) =  -1557.44087746
 Copying the excited state density for this state as the 1-particle RhoCI density.

 The electronic state is 1-A.
 Alpha  occ. eigenvalues --  -10.21097 -10.20818 -10.20773 -10.20560 -10.20492
 Alpha  occ. eigenvalues --  -10.20390 -10.20353 -10.20075 -10.19974 -10.19913
 Alpha  occ. eigenvalues --  -10.19800 -10.19751 -10.19741 -10.19626 -10.19500
 Alpha  occ. eigenvalues --  -10.19394 -10.19351 -10.19346 -10.19262 -10.19168
 Alpha  occ. eigenvalues --  -10.19013 -10.18867 -10.18726 -10.18663 -10.18452
 Alpha  occ. eigenvalues --  -10.18447 -10.18402 -10.18398 -10.18225 -10.18223
 Alpha  occ. eigenvalues --  -10.18158 -10.17948 -10.17927 -10.17926 -10.17917
 Alpha  occ. eigenvalues --  -10.17846 -10.17841 -10.17413 -10.17205 -10.16751
 Alpha  occ. eigenvalues --   -0.85379  -0.85246  -0.84090  -0.83106  -0.82673
 Alpha  occ. eigenvalues --   -0.81573  -0.79613  -0.78949  -0.78055  -0.77186
 Alpha  occ. eigenvalues --   -0.76443  -0.75578  -0.73691  -0.72320  -0.71499
 Alpha  occ. eigenvalues --   -0.70067  -0.68929  -0.68024  -0.67894  -0.67620
 Alpha  occ. eigenvalues --   -0.67202  -0.67164  -0.66680  -0.66087  -0.65456
 Alpha  occ. eigenvalues --   -0.62965  -0.61927  -0.60343  -0.58825  -0.57381
 Alpha  occ. eigenvalues --   -0.56483  -0.55776  -0.55129  -0.53703  -0.53012
 Alpha  occ. eigenvalues --   -0.52560  -0.51817  -0.50622  -0.50020  -0.49159
 Alpha  occ. eigenvalues --   -0.48341  -0.47793  -0.46725  -0.46475  -0.46079
 Alpha  occ. eigenvalues --   -0.45732  -0.45072  -0.44538  -0.44139  -0.43785
 Alpha  occ. eigenvalues --   -0.43297  -0.42965  -0.42532  -0.42217  -0.42079
 Alpha  occ. eigenvalues --   -0.41671  -0.41548  -0.41181  -0.40704  -0.40387
 Alpha  occ. eigenvalues --   -0.40234  -0.39930  -0.39762  -0.39707  -0.39181
 Alpha  occ. eigenvalues --   -0.39074  -0.38713  -0.38533  -0.38069  -0.38023
 Alpha  occ. eigenvalues --   -0.37734  -0.37540  -0.37302  -0.36642  -0.36535
 Alpha  occ. eigenvalues --   -0.36102  -0.35709  -0.35441  -0.35279  -0.35078
 Alpha  occ. eigenvalues --   -0.34568  -0.34288  -0.34091  -0.34024  -0.33844
 Alpha  occ. eigenvalues --   -0.33564  -0.33241  -0.33135  -0.32576  -0.32248
 Alpha  occ. eigenvalues --   -0.32055  -0.31916  -0.31452  -0.30773  -0.30596
 Alpha  occ. eigenvalues --   -0.29954  -0.29894  -0.29488  -0.29281  -0.28907
 Alpha  occ. eigenvalues --   -0.28370  -0.27662  -0.26730  -0.24642  -0.23477
 Alpha  occ. eigenvalues --   -0.21541  -0.19782  -0.16296
 Alpha virt. eigenvalues --   -0.08574  -0.05037  -0.01255   0.00971   0.02976
 Alpha virt. eigenvalues --    0.04404   0.05890   0.06512   0.06747   0.06884
 Alpha virt. eigenvalues --    0.07206   0.07628   0.07796   0.08015   0.08247

 Mulliken charges:
               1
     1  C    0.029523
     2  C    0.030132
     3  C   -0.167888
     4  C   -0.171638
     5  C   -0.187028
     6  C   -0.192251
     7  C    0.092079
     8  C    0.109185
     9  C   -0.215346
    10  C   -0.222021
    11  C    0.038422
    12  C    0.033585
    13  C   -0.294908
    14  C   -0.308346
    15  C   -0.304481
    16  C   -0.305241
    17  C   -0.126815
    18  C   -0.156473
    19  C   -0.354197
    20  C   -0.340368
    21  C   -0.104664
    22  C   -0.069525
    23  C    0.128830
    24  C    0.098509
    25  C   -0.381349
    26  C   -0.344435
    27  C   -0.103855
    28  C   -0.098261
    29  C   -0.051688
    30  C   -0.091714
    31  C   -0.101076
    32  C   -0.123979
    33  C    0.117425
    34  C    0.113928
    35  C   -0.384713
    36  C   -0.372749
    37  C   -0.108417
    38  C   -0.119369
    39  C   -0.092962
    40  C   -0.090924
    41  H    0.083373
    42  H    0.086678
    43  H    0.093504
    44  H    0.075798
    45  H    0.084770
    46  H    0.093556
    47  H    0.087473
    48  H    0.116580
    49  H    0.099580
    50  H    0.093754
    51  H    0.107121
    52  H    0.067167
    53  H    0.104481
    54  H    0.077020
    55  H    0.103851
    56  H    0.055666
    57  H    0.090223
    58  H    0.110385
    59  H    0.106545
    60  H    0.106482
    61  H    0.049112
    62  H    0.105280
    63  H    0.095453
    64  H    0.094055
    65  H    0.098923
    66  H    0.060454
    67  H    0.119613
    68  H    0.101994
    69  H    0.104746
    70  H    0.130550
    71  H    0.119443
    72  H    0.081832
    73  H    0.079910
    74  H    0.069975
    75  H    0.115198
    76  H    0.111101
    77  H    0.111404
    78  H    0.080427
    79  H    0.125135
    80  H    0.106897
    81  H    0.034463
    82  H    0.076403
    83  H    0.043339
    84  H    0.089695
    85  H    0.079872
    86  H    0.070251
    87  H    0.126894
    88  H    0.103228
    89  H    0.117151
    90  H    0.130528
    91  H    0.105081
    92  H    0.094972
    93  H    0.085202
    94  H    0.086512
    95  H    0.060900
    96  H    0.085061
 Sum of Mulliken charges =  -0.00000

 Dipole moment (field-independent basis, Debye):
    X=              0.5153    Y=              0.0492    Z=              0.8422  Tot=              0.9885
 Quadrupole moment (field-independent basis, Debye-Ang):
   XX=           -222.8130   YY=           -237.2850   ZZ=           -254.3413
   XY=             -7.9990   XZ=             -3.8281   YZ=              2.6750

 Normal termination of Gaussian 16 at Thu Aug  1 12:16:04 2019.
