 Gaussian 16, Revision A.03,
 Gaussian 16:  ES64L-G16RevA.03 25-Dec-2016

 ---------------------------------
 # td=(NStates=1) B3LYP/6-31G(d,p)
 ---------------------------------

 --
 TD
 --
 Symbolic Z-matrix:
 Charge =  0 Multiplicity = 1

                         Standard orientation:
 ---------------------------------------------------------------------
 Center     Atomic      Atomic             Coordinates (Angstroms)
 Number     Number       Type             X           Y           Z
 ---------------------------------------------------------------------
      1          6           0      -12.145976   -0.433909   -0.879470
      2          6           0       12.039016   -0.009582    0.971947
      3          6           0      -13.384233    0.431824   -0.725239
      4          6           0       12.837858   -1.282272    1.269924
      5          6           0      -13.029362    1.915623   -0.515080
      6          6           0       13.351059   -2.081744    0.087789
      7          6           0      -11.052380   -0.009347    0.259632
      8          6           0       10.994828   -0.426836   -0.080568
      9          6           0      -12.187663    2.196922    0.760046
     10          6           0       12.208535   -2.538449   -0.774232
     11          6           0      -11.173503    1.089604    0.969787
     12          6           0       11.114711   -1.526311   -0.895235
     13          6           0      -11.581822   -0.456641   -2.332686
     14          6           0      -12.586691   -1.964750   -0.527504
     15          6           0       13.007384    1.088960    0.440329
     16          6           0       11.442864    0.364380    2.316743
     17          6           0       -9.898126   -1.013443    0.399749
     18          6           0        9.816219    0.624591   -0.217331
     19          6           0      -10.174996    1.590171    2.012872
     20          6           0       10.125266   -1.882636   -2.040567
     21          6           0       -8.617196   -0.594943    0.330557
     22          6           0        8.555461    0.430404   -0.444307
     23          6           0       -7.449831   -1.413117    0.336207
     24          6           0        7.580976    1.386041   -0.593160
     25          6           0       -7.721516   -2.890632    0.648593
     26          6           0        8.043409    2.892023   -0.566224
     27          6           0       -6.191876   -0.835208    0.241035
     28          6           0        6.229742    0.900942   -0.450493
     29          6           0       -4.886106   -1.442185    0.353766
     30          6           0        5.013578    1.700171   -0.456049
     31          6           0       -3.697909   -0.612277    0.281811
     32          6           0        3.759289    1.079102   -0.387412
     33          6           0       -2.444710   -1.213002    0.415444
     34          6           0        2.572186    1.822962   -0.364644
     35          6           0       -2.341953   -2.766152    0.757305
     36          6           0        2.516432    3.400513   -0.586228
     37          6           0       -1.239138   -0.575187    0.140104
     38          6           0        1.385051    1.092518   -0.192630
     39          6           0       -1.165465    0.889011   -0.058148
     40          6           0        0.053727    1.591012   -0.161573
     41          1           0      -13.911091    0.022674   -0.076293
     42          1           0      -14.038748    0.199857   -1.565178
     43          1           0       12.269675   -2.084676    1.830512
     44          1           0       13.822510   -1.114888    1.842983
     45          1           0      -13.794600    2.647179   -0.567513
     46          1           0      -12.363450    2.199551   -1.394319
     47          1           0       13.978446   -3.043098    0.487781
     48          1           0       14.174691   -1.550244   -0.597766
     49          1           0      -12.903958    2.246473    1.619481
     50          1           0      -11.701576    3.211373    0.782190
     51          1           0       11.697947   -3.496644   -0.368338
     52          1           0       12.479649   -2.890764   -1.781219
     53          1           0      -11.438297    0.626719   -2.668184
     54          1           0      -12.236307   -0.895434   -3.052773
     55          1           0      -10.595921   -1.080502   -2.491577
     56          1           0      -12.766076   -2.071728    0.427597
     57          1           0      -11.924096   -2.709494   -0.719961
     58          1           0      -13.279257   -2.322368   -1.018076
     59          1           0       13.380994    1.020424   -0.590451
     60          1           0       13.904173    1.204633    1.202080
     61          1           0       12.431563    2.036808    0.563203
     62          1           0       10.875036   -0.752418    2.720294
     63          1           0       10.774704    1.070095    2.264859
     64          1           0       12.186169    0.505662    3.231951
     65          1           0       -9.826081   -2.024585    0.742180
     66          1           0       10.093151    1.702098   -0.046025
     67          1           0       -9.630722    0.715900    2.388449
     68          1           0      -10.673388    1.945493    2.978102
     69          1           0       -9.551338    2.266100    1.565787
     70          1           0        9.307975   -1.157070   -2.256604
     71          1           0        9.408849   -2.768881   -1.737263
     72          1           0       10.788766   -2.165685   -3.007354
     73          1           0       -8.229124    0.370383    0.341719
     74          1           0        8.031531   -0.607686   -0.552909
     75          1           0       -8.003369   -3.046907    1.798809
     76          1           0       -6.837271   -3.382822    0.707504
     77          1           0       -8.152834   -3.458490    0.122593
     78          1           0        8.780060    3.197603   -1.426970
     79          1           0        8.578509    3.222517    0.496807
     80          1           0        7.198020    3.478715   -0.709062
     81          1           0       -6.302004    0.181298    0.005470
     82          1           0        6.217426   -0.139950   -0.332618
     83          1           0       -4.773201   -2.485586    0.476064
     84          1           0        5.253585    2.731558   -0.871646
     85          1           0       -4.097537    0.423637   -0.025488
     86          1           0        3.660075    0.010672   -0.290941
     87          1           0       -2.728566   -2.835039    1.809508
     88          1           0       -1.208623   -3.005028    0.994872
     89          1           0       -2.908654   -3.515643    0.218770
     90          1           0        2.958574    3.604699   -1.715581
     91          1           0        3.352162    3.849262    0.036462
     92          1           0        1.390566    3.695208   -0.416370
     93          1           0       -0.309053   -1.028541    0.426062
     94          1           0        1.513135    0.025687   -0.013009
     95          1           0       -2.178475    1.345243   -0.075096
     96          1           0       -0.207152    2.767737   -0.182671
 ---------------------------------------------------------------------

 SCF Done:  E(RB3LYP) =  -1557.52471603     A.U. after   16 cycles

 Excitation energies and oscillator strengths:

 Excited State   1:      Singlet-A      1.9895 eV  623.19 nm  f=3.1362  <S**2>=0.000
     148 ->149         0.71355
     148 <-149        -0.13763
 This state for optimization and/or second-order correction.
 Total Energy, E(TD-HF/TD-DFT) =  -1557.45160347
 Copying the excited state density for this state as the 1-particle RhoCI density.

 The electronic state is 1-A.
 Alpha  occ. eigenvalues --  -10.21168 -10.20928 -10.20579 -10.20570 -10.20449
 Alpha  occ. eigenvalues --  -10.20302 -10.20270 -10.20178 -10.20081 -10.20073
 Alpha  occ. eigenvalues --  -10.19967 -10.19859 -10.19859 -10.19850 -10.19683
 Alpha  occ. eigenvalues --  -10.19654 -10.19581 -10.19465 -10.19336 -10.19321
 Alpha  occ. eigenvalues --  -10.19267 -10.19012 -10.18965 -10.18903 -10.18576
 Alpha  occ. eigenvalues --  -10.18528 -10.18525 -10.18520 -10.18514 -10.18418
 Alpha  occ. eigenvalues --  -10.18237 -10.17914 -10.17803 -10.17680 -10.17586
 Alpha  occ. eigenvalues --  -10.17204 -10.16799 -10.16312 -10.15845 -10.13185
 Alpha  occ. eigenvalues --   -0.84599  -0.84127  -0.83212  -0.82979  -0.82225
 Alpha  occ. eigenvalues --   -0.81596  -0.78437  -0.78203  -0.78075  -0.76712
 Alpha  occ. eigenvalues --   -0.75708  -0.74639  -0.73574  -0.72683  -0.71086
 Alpha  occ. eigenvalues --   -0.70262  -0.69459  -0.69004  -0.67977  -0.67731
 Alpha  occ. eigenvalues --   -0.67439  -0.67403  -0.67154  -0.66305  -0.65858
 Alpha  occ. eigenvalues --   -0.63400  -0.62052  -0.60012  -0.58444  -0.56876
 Alpha  occ. eigenvalues --   -0.56373  -0.55694  -0.55404  -0.54389  -0.53552
 Alpha  occ. eigenvalues --   -0.52537  -0.51342  -0.50892  -0.49677  -0.49005
 Alpha  occ. eigenvalues --   -0.48048  -0.47254  -0.46838  -0.46450  -0.46029
 Alpha  occ. eigenvalues --   -0.45183  -0.44784  -0.44329  -0.44236  -0.43675
 Alpha  occ. eigenvalues --   -0.43330  -0.43134  -0.42548  -0.42342  -0.42224
 Alpha  occ. eigenvalues --   -0.42101  -0.41665  -0.41301  -0.40555  -0.40386
 Alpha  occ. eigenvalues --   -0.39945  -0.39658  -0.39459  -0.39337  -0.39027
 Alpha  occ. eigenvalues --   -0.38836  -0.38681  -0.38534  -0.38082  -0.37935
 Alpha  occ. eigenvalues --   -0.37860  -0.37740  -0.37583  -0.37241  -0.36492
 Alpha  occ. eigenvalues --   -0.36292  -0.36009  -0.35623  -0.35400  -0.35311
 Alpha  occ. eigenvalues --   -0.35221  -0.35067  -0.34353  -0.34008  -0.33717
 Alpha  occ. eigenvalues --   -0.33522  -0.33196  -0.32948  -0.32810  -0.32786
 Alpha  occ. eigenvalues --   -0.32196  -0.31677  -0.31419  -0.31271  -0.31054
 Alpha  occ. eigenvalues --   -0.30661  -0.30334  -0.29904  -0.29716  -0.28545
 Alpha  occ. eigenvalues --   -0.27972  -0.27613  -0.26056  -0.24235  -0.23230
 Alpha  occ. eigenvalues --   -0.21729  -0.18959  -0.15973
 Alpha virt. eigenvalues --   -0.08968  -0.05753  -0.01398   0.01102   0.02590
 Alpha virt. eigenvalues --    0.04083   0.05309   0.06411   0.06883   0.07215
 Alpha virt. eigenvalues --    0.07789   0.08314   0.08505   0.08674   0.08789

 Mulliken charges:
               1
     1  C   -0.001557
     2  C    0.003466
     3  C   -0.144894
     4  C   -0.160275
     5  C   -0.201494
     6  C   -0.183646
     7  C    0.049664
     8  C    0.058161
     9  C   -0.213097
    10  C   -0.201603
    11  C    0.062754
    12  C    0.074992
    13  C   -0.300978
    14  C   -0.317062
    15  C   -0.293791
    16  C   -0.262565
    17  C   -0.158137
    18  C   -0.167828
    19  C   -0.361990
    20  C   -0.350159
    21  C   -0.050671
    22  C   -0.050354
    23  C    0.103194
    24  C    0.104212
    25  C   -0.364686
    26  C   -0.362933
    27  C   -0.142863
    28  C   -0.120576
    29  C   -0.075592
    30  C   -0.110173
    31  C   -0.104410
    32  C   -0.105361
    33  C    0.084098
    34  C    0.131954
    35  C   -0.374516
    36  C   -0.351938
    37  C   -0.110448
    38  C   -0.118890
    39  C   -0.098735
    40  C   -0.102522
    41  H    0.100910
    42  H    0.080416
    43  H    0.091088
    44  H    0.075870
    45  H    0.088512
    46  H    0.088822
    47  H    0.065234
    48  H    0.075583
    49  H    0.100017
    50  H    0.098067
    51  H    0.096429
    52  H    0.095924
    53  H    0.089205
    54  H    0.104185
    55  H    0.091658
    56  H    0.105662
    57  H    0.096144
    58  H    0.096836
    59  H    0.114653
    60  H    0.087137
    61  H    0.095596
    62  H    0.053925
    63  H    0.107344
    64  H    0.091919
    65  H    0.099088
    66  H    0.080513
    67  H    0.109374
    68  H    0.092999
    69  H    0.128668
    70  H    0.120552
    71  H    0.096676
    72  H    0.089539
    73  H    0.060323
    74  H    0.064382
    75  H    0.097233
    76  H    0.102368
    77  H    0.126336
    78  H    0.110734
    79  H    0.100889
    80  H    0.110748
    81  H    0.073186
    82  H    0.076090
    83  H    0.082836
    84  H    0.090539
    85  H    0.097172
    86  H    0.088576
    87  H    0.119270
    88  H    0.097057
    89  H    0.130451
    90  H    0.100853
    91  H    0.123005
    92  H    0.110147
    93  H    0.080195
    94  H    0.080663
    95  H    0.089628
    96  H    0.070025
 Sum of Mulliken charges =  -0.00000

 Dipole moment (field-independent basis, Debye):
    X=             -0.8268    Y=             -0.4859    Z=              0.3001  Tot=              1.0049
 Quadrupole moment (field-independent basis, Debye-Ang):
   XX=           -232.2677   YY=           -232.7647   ZZ=           -255.7837
   XY=              5.7464   XZ=             -3.7954   YZ=             -1.1233

 Normal termination of Gaussian 16 at Sat Jul 27 19:10:19 2019.
