 Gaussian 16, Revision A.03,
 Gaussian 16:  ES64L-G16RevA.03 25-Dec-2016

 ---------------------------------
 # td=(NStates=1) B3LYP/6-31G(d,p)
 ---------------------------------

 --
 TD
 --
 Symbolic Z-matrix:
 Charge =  0 Multiplicity = 1

                         Standard orientation:
 ---------------------------------------------------------------------
 Center     Atomic      Atomic             Coordinates (Angstroms)
 Number     Number       Type             X           Y           Z
 ---------------------------------------------------------------------
      1          6           0       12.106288    0.516792   -0.831214
      2          6           0      -12.130310   -0.115100    0.813130
      3          6           0       13.438784   -0.322407   -0.700428
      4          6           0      -13.038536    1.126533    1.312668
      5          6           0       13.099109   -1.785102   -0.568137
      6          6           0      -13.401815    1.984996    0.231245
      7          6           0       11.057512   -0.000478    0.283686
      8          6           0      -10.921501    0.445035   -0.149688
      9          6           0       12.331194   -2.119514    0.683230
     10          6           0      -12.290514    2.647342   -0.435722
     11          6           0       11.186997   -1.152061    0.908609
     12          6           0      -10.997386    1.690210   -0.664013
     13          6           0       11.445592    0.436238   -2.239429
     14          6           0       12.493568    1.984288   -0.552052
     15          6           0      -12.969228   -1.093335    0.072149
     16          6           0      -11.385910   -0.835988    2.119375
     17          6           0        9.888516    0.951285    0.415784
     18          6           0       -9.831944   -0.547484   -0.398249
     19          6           0       10.218788   -1.465628    2.118026
     20          6           0       -9.997879    2.360233   -1.566184
     21          6           0        8.567981    0.488910    0.330631
     22          6           0       -8.571047   -0.339836   -0.158846
     23          6           0        7.377299    1.410583    0.411779
     24          6           0       -7.525495   -1.312284   -0.544101
     25          6           0        7.658505    2.803148    0.743336
     26          6           0       -7.888065   -2.810978   -0.735494
     27          6           0        6.206752    0.718280    0.284659
     28          6           0       -6.179589   -0.782361   -0.380050
     29          6           0        4.921274    1.283192    0.385944
     30          6           0       -5.012982   -1.632359   -0.528517
     31          6           0        3.747870    0.524043    0.405322
     32          6           0       -3.804668   -1.123924   -0.405702
     33          6           0        2.491338    1.171270    0.321124
     34          6           0       -2.501786   -1.831231   -0.464443
     35          6           0        2.324156    2.751540    0.295419
     36          6           0       -2.531859   -3.366917   -0.545578
     37          6           0        1.245763    0.524222    0.218016
     38          6           0       -1.395448   -1.036242   -0.287849
     39          6           0        1.108354   -0.967598   -0.011980
     40          6           0       -0.078068   -1.616915   -0.151348
     41          1           0       13.875315    0.220414    0.310134
     42          1           0       14.001479    0.044802   -1.568847
     43          1           0      -12.428190    1.686092    2.087014
     44          1           0      -13.837505    0.754627    1.704334
     45          1           0       13.976745   -2.381430   -0.833587
     46          1           0       12.654485   -1.980366   -1.631408
     47          1           0      -14.031421    2.795503    0.444274
     48          1           0      -14.107357    1.576035   -0.663119
     49          1           0       12.949743   -2.071100    1.560786
     50          1           0       11.772797   -3.016988    0.369015
     51          1           0      -12.031221    3.720041   -0.051873
     52          1           0      -12.629924    2.914535   -1.397683
     53          1           0       11.252157   -0.713568   -2.290558
     54          1           0       12.040698    0.784452   -2.993421
     55          1           0       10.554817    0.845034   -2.116463
     56          1           0       12.770368    2.103145    0.586901
     57          1           0       11.436555    2.600624   -0.487634
     58          1           0       13.384126    2.304442   -1.060065
     59          1           0      -13.572304   -0.309460   -0.662167
     60          1           0      -13.540737   -1.809365    0.707090
     61          1           0      -12.539589   -2.017572   -0.680973
     62          1           0      -10.694681   -0.030086    2.729749
     63          1           0      -10.840489   -1.817103    1.947792
     64          1           0      -12.196129   -0.932861    2.743554
     65          1           0       10.083144    1.922751    0.441515
     66          1           0      -10.167477   -1.574774   -0.785716
     67          1           0        9.742007   -0.559885    2.554879
     68          1           0       10.679448   -2.114490    2.941903
     69          1           0        9.346790   -2.059856    1.654614
     70          1           0       -9.262606    1.600803   -1.727048
     71          1           0       -9.494427    3.168333   -0.968183
     72          1           0      -10.479101    2.702959   -2.469013
     73          1           0        8.103626   -0.595363    0.392927
     74          1           0       -8.379176    0.623225    0.290177
     75          1           0        8.370344    3.074670    1.666609
     76          1           0        6.725800    3.267986    0.969850
     77          1           0        7.985308    3.339605   -0.084985
     78          1           0       -8.573625   -2.906794   -1.391835
     79          1           0       -8.469029   -3.130033   -0.016853
     80          1           0       -7.079487   -3.448813   -0.893504
     81          1           0        6.192558   -0.458924    0.122019
     82          1           0       -6.108911    0.231562    0.017957
     83          1           0        4.866903    2.409008    0.096632
     84          1           0       -5.185333   -2.604286   -0.932566
     85          1           0        3.927498   -0.737549    0.502984
     86          1           0       -3.780439   -0.053661   -0.113848
     87          1           0        2.572970    3.257010    1.202906
     88          1           0        1.162052    3.182556    0.187699
     89          1           0        2.916336    3.164245   -0.548367
     90          1           0       -2.849272   -3.629869   -1.671159
     91          1           0       -3.402565   -3.807010    0.071375
     92          1           0       -1.437602   -3.774937   -0.439002
     93          1           0        0.403488    1.185451    0.098934
     94          1           0       -1.443033    0.000455   -0.043806
     95          1           0        1.982765   -1.596247    0.096671
     96          1           0        0.061655   -2.710373   -0.187265
 ---------------------------------------------------------------------

 SCF Done:  E(RB3LYP) =  -1557.54591570     A.U. after   15 cycles

 Excitation energies and oscillator strengths:

 Excited State   1:      Singlet-A      2.3123 eV  536.18 nm  f=2.6898  <S**2>=0.000
     148 ->149         0.70376
 This state for optimization and/or second-order correction.
 Total Energy, E(TD-HF/TD-DFT) =  -1557.46093844
 Copying the excited state density for this state as the 1-particle RhoCI density.

 The electronic state is 1-A.
 Alpha  occ. eigenvalues --  -10.21223 -10.21068 -10.21018 -10.20813 -10.20628
 Alpha  occ. eigenvalues --  -10.20437 -10.19945 -10.19899 -10.19804 -10.19685
 Alpha  occ. eigenvalues --  -10.19592 -10.19541 -10.19172 -10.19116 -10.19106
 Alpha  occ. eigenvalues --  -10.18897 -10.18778 -10.18629 -10.18603 -10.18575
 Alpha  occ. eigenvalues --  -10.18545 -10.18518 -10.18462 -10.18433 -10.18349
 Alpha  occ. eigenvalues --  -10.18326 -10.18259 -10.18154 -10.18127 -10.18111
 Alpha  occ. eigenvalues --  -10.18108 -10.18054 -10.17857 -10.17662 -10.17641
 Alpha  occ. eigenvalues --  -10.17603 -10.17288 -10.16924 -10.16080 -10.15241
 Alpha  occ. eigenvalues --   -0.84201  -0.84074  -0.83006  -0.82716  -0.81624
 Alpha  occ. eigenvalues --   -0.80842  -0.78853  -0.77687  -0.77494  -0.77043
 Alpha  occ. eigenvalues --   -0.76749  -0.75284  -0.73903  -0.73509  -0.71326
 Alpha  occ. eigenvalues --   -0.69515  -0.68931  -0.68431  -0.68138  -0.67910
 Alpha  occ. eigenvalues --   -0.66829  -0.66575  -0.66474  -0.66187  -0.65711
 Alpha  occ. eigenvalues --   -0.62579  -0.61144  -0.58778  -0.58471  -0.56273
 Alpha  occ. eigenvalues --   -0.55932  -0.54590  -0.54004  -0.53692  -0.52788
 Alpha  occ. eigenvalues --   -0.52284  -0.51943  -0.49993  -0.49669  -0.48173
 Alpha  occ. eigenvalues --   -0.47774  -0.47454  -0.47224  -0.46749  -0.46183
 Alpha  occ. eigenvalues --   -0.45209  -0.44864  -0.44455  -0.44231  -0.43632
 Alpha  occ. eigenvalues --   -0.43276  -0.42824  -0.42352  -0.42301  -0.42008
 Alpha  occ. eigenvalues --   -0.41599  -0.41364  -0.41259  -0.41063  -0.40794
 Alpha  occ. eigenvalues --   -0.40770  -0.40569  -0.39961  -0.39874  -0.39797
 Alpha  occ. eigenvalues --   -0.39408  -0.39209  -0.38776  -0.38645  -0.38392
 Alpha  occ. eigenvalues --   -0.37995  -0.37604  -0.37363  -0.37253  -0.36886
 Alpha  occ. eigenvalues --   -0.36379  -0.35974  -0.35645  -0.35504  -0.35425
 Alpha  occ. eigenvalues --   -0.35245  -0.35056  -0.34396  -0.34133  -0.33420
 Alpha  occ. eigenvalues --   -0.33310  -0.32918  -0.32693  -0.32414  -0.31963
 Alpha  occ. eigenvalues --   -0.31700  -0.31547  -0.31401  -0.30736  -0.30293
 Alpha  occ. eigenvalues --   -0.29716  -0.29372  -0.28902  -0.28777  -0.28223
 Alpha  occ. eigenvalues --   -0.26785  -0.26446  -0.25785  -0.23899  -0.22807
 Alpha  occ. eigenvalues --   -0.21332  -0.18792  -0.16482
 Alpha virt. eigenvalues --   -0.07575  -0.04734  -0.00904   0.01199   0.03278
 Alpha virt. eigenvalues --    0.04448   0.05813   0.06671   0.06977   0.07035
 Alpha virt. eigenvalues --    0.07423   0.07878   0.08101   0.08349   0.08479

 Mulliken charges:
               1
     1  C   -0.014081
     2  C   -0.003447
     3  C   -0.162113
     4  C   -0.151885
     5  C   -0.192987
     6  C   -0.186908
     7  C    0.087150
     8  C    0.039903
     9  C   -0.203110
    10  C   -0.209399
    11  C    0.023914
    12  C    0.042816
    13  C   -0.275162
    14  C   -0.300873
    15  C   -0.274848
    16  C   -0.313169
    17  C   -0.161614
    18  C   -0.133975
    19  C   -0.355335
    20  C   -0.357249
    21  C   -0.077372
    22  C   -0.070020
    23  C    0.135574
    24  C    0.064855
    25  C   -0.384561
    26  C   -0.360334
    27  C   -0.132617
    28  C   -0.131777
    29  C   -0.093888
    30  C   -0.069793
    31  C   -0.101038
    32  C   -0.108359
    33  C    0.095306
    34  C    0.120601
    35  C   -0.366317
    36  C   -0.365293
    37  C   -0.125695
    38  C   -0.104421
    39  C   -0.096197
    40  C   -0.089915
    41  H    0.059281
    42  H    0.082883
    43  H    0.097436
    44  H    0.100978
    45  H    0.088530
    46  H    0.086281
    47  H    0.098599
    48  H    0.075510
    49  H    0.123030
    50  H    0.115713
    51  H    0.079398
    52  H    0.105292
    53  H    0.080114
    54  H    0.100647
    55  H    0.115609
    56  H    0.081610
    57  H    0.070602
    58  H    0.108622
    59  H    0.086201
    60  H    0.100003
    61  H    0.063052
    62  H    0.075836
    63  H    0.103642
    64  H    0.110030
    65  H    0.082294
    66  H    0.069599
    67  H    0.123713
    68  H    0.090545
    69  H    0.100339
    70  H    0.117706
    71  H    0.107395
    72  H    0.111770
    73  H    0.076714
    74  H    0.086576
    75  H    0.112584
    76  H    0.111274
    77  H    0.137453
    78  H    0.128333
    79  H    0.132911
    80  H    0.112942
    81  H    0.075644
    82  H    0.082706
    83  H    0.084692
    84  H    0.076173
    85  H    0.076342
    86  H    0.071334
    87  H    0.129598
    88  H    0.079524
    89  H    0.119621
    90  H    0.105596
    91  H    0.124385
    92  H    0.109354
    93  H    0.082993
    94  H    0.088531
    95  H    0.077325
    96  H    0.068771
 Sum of Mulliken charges =  -0.00000

 Dipole moment (field-independent basis, Debye):
    X=             -1.5716    Y=              0.1951    Z=              0.2369  Tot=              1.6013
 Quadrupole moment (field-independent basis, Debye-Ang):
   XX=           -222.1638   YY=           -230.2819   ZZ=           -256.4106
   XY=             -0.1637   XZ=             -2.8198   YZ=              2.2332

 Normal termination of Gaussian 16 at Fri Jul 26 22:02:46 2019.
