 Gaussian 16, Revision A.03,
 Gaussian 16:  ES64L-G16RevA.03 25-Dec-2016

 ---------------------------------
 # td=(NStates=1) B3LYP/6-31G(d,p)
 ---------------------------------

 --
 TD
 --
 Symbolic Z-matrix:
 Charge =  0 Multiplicity = 1

                         Standard orientation:
 ---------------------------------------------------------------------
 Center     Atomic      Atomic             Coordinates (Angstroms)
 Number     Number       Type             X           Y           Z
 ---------------------------------------------------------------------
      1          6           0       12.097430    0.422841   -0.621463
      2          6           0      -12.089295   -0.148093    0.945896
      3          6           0       13.370894   -0.507188   -0.491733
      4          6           0      -12.987985    1.020572    1.409813
      5          6           0       13.018422   -1.972677   -0.433268
      6          6           0      -13.380605    1.968040    0.321307
      7          6           0       11.053125   -0.065218    0.337831
      8          6           0      -10.929054    0.435904    0.032819
      9          6           0       12.098759   -2.253130    0.751894
     10          6           0      -12.229351    2.591536   -0.311710
     11          6           0       11.065397   -1.271660    1.066352
     12          6           0      -11.150637    1.591553   -0.646428
     13          6           0       11.564965    0.313107   -2.052906
     14          6           0       12.640137    1.847305   -0.308432
     15          6           0      -12.938636   -1.194079    0.112000
     16          6           0      -11.380092   -0.832212    2.202293
     17          6           0        9.831212    0.868856    0.533027
     18          6           0       -9.920306   -0.539003   -0.336805
     19          6           0       10.085505   -1.579598    2.075242
     20          6           0      -10.129555    2.119636   -1.643698
     21          6           0        8.589986    0.556117    0.477441
     22          6           0       -8.558689   -0.280621   -0.316474
     23          6           0        7.425701    1.465500    0.377606
     24          6           0       -7.520380   -1.291189   -0.489075
     25          6           0        7.585796    3.011544    0.435573
     26          6           0       -7.899446   -2.806865   -0.653784
     27          6           0        6.147985    0.849182    0.232874
     28          6           0       -6.280748   -0.864599   -0.470015
     29          6           0        4.915253    1.522261    0.202337
     30          6           0       -5.007349   -1.726905   -0.536916
     31          6           0        3.767985    0.792985    0.198236
     32          6           0       -3.741361   -1.125418   -0.440607
     33          6           0        2.474890    1.413423    0.166934
     34          6           0       -2.469519   -1.804749   -0.499812
     35          6           0        2.410912    2.946167    0.271077
     36          6           0       -2.489974   -3.308953   -0.564733
     37          6           0        1.285859    0.860817   -0.142940
     38          6           0       -1.366584   -1.001219   -0.422418
     39          6           0        1.149234   -0.623348   -0.398180
     40          6           0        0.046160   -1.425160   -0.555625
     41          1           0       14.062660   -0.097782    0.318942
     42          1           0       13.959907   -0.619696   -1.461889
     43          1           0      -12.525411    1.423771    2.509983
     44          1           0      -13.828477    0.564842    1.865145
     45          1           0       13.809228   -2.734238   -0.660647
     46          1           0       12.537775   -2.355307   -1.233888
     47          1           0      -14.318931    2.695451    0.658050
     48          1           0      -13.902269    1.337441   -0.443908
     49          1           0       12.782302   -2.371977    1.639277
     50          1           0       11.533262   -3.291180    0.673837
     51          1           0      -11.966825    3.230522    0.420585
     52          1           0      -12.506270    3.264538   -1.257848
     53          1           0       11.108808   -0.750619   -2.245474
     54          1           0       12.260229    0.603962   -2.788310
     55          1           0       10.686934    1.090535   -2.000554
     56          1           0       12.885986    1.889985    0.779056
     57          1           0       11.781579    2.576560   -0.554516
     58          1           0       13.514255    1.981061   -0.828968
     59          1           0      -13.716963   -0.768074   -0.451518
     60          1           0      -13.540825   -1.764566    0.824853
     61          1           0      -12.276508   -1.892801   -0.396391
     62          1           0      -10.524879   -0.247700    2.364788
     63          1           0      -11.115198   -1.992912    1.979655
     64          1           0      -12.263784   -0.770356    3.079426
     65          1           0       10.192306    1.818754    0.557963
     66          1           0      -10.272581   -1.553666   -0.337225
     67          1           0        9.340098   -0.819133    2.392013
     68          1           0       10.803145   -1.919068    3.006022
     69          1           0        9.532488   -2.455926    1.745665
     70          1           0       -9.214811    1.455254   -1.741894
     71          1           0       -9.642988    3.069072   -1.117124
     72          1           0      -10.570288    2.495004   -2.477929
     73          1           0        8.189158   -0.291517    0.266753
     74          1           0       -8.069076    0.618066    0.194884
     75          1           0        8.338164    3.438409    1.180471
     76          1           0        6.591925    3.340481    0.585876
     77          1           0        8.095720    3.264139   -0.611636
     78          1           0       -8.082992   -3.200153   -1.839126
     79          1           0       -8.699207   -3.397153    0.039193
     80          1           0       -6.971704   -3.210399   -0.511833
     81          1           0        6.348169   -0.200661    0.305145
     82          1           0       -6.239706    0.302238   -0.301384
     83          1           0        4.909169    2.562991    0.276198
     84          1           0       -5.102464   -2.804584   -0.843317
     85          1           0        3.932598   -0.339106    0.201124
     86          1           0       -3.539074   -0.150873   -0.223808
     87          1           0        2.685147    3.512810    1.232792
     88          1           0        1.465232    3.166828    0.052055
     89          1           0        2.962550    3.327924   -0.414058
     90          1           0       -2.856450   -3.590913   -1.541504
     91          1           0       -2.968432   -3.648964    0.223043
     92          1           0       -1.474251   -3.560316   -0.520460
     93          1           0        0.438187    1.352568   -0.005504
     94          1           0       -1.858909    0.174356   -0.445417
     95          1           0        2.153187   -1.105978   -0.542316
     96          1           0        0.212843   -2.504697   -0.455535
 ---------------------------------------------------------------------

 SCF Done:  E(RB3LYP) =  -1557.54718994     A.U. after   15 cycles

 Excitation energies and oscillator strengths:

 Excited State   1:      Singlet-A      2.3586 eV  525.67 nm  f=2.6497  <S**2>=0.000
     148 ->149         0.70502
 This state for optimization and/or second-order correction.
 Total Energy, E(TD-HF/TD-DFT) =  -1557.46051320
 Copying the excited state density for this state as the 1-particle RhoCI density.

 The electronic state is 1-A.
 Alpha  occ. eigenvalues --  -10.20597 -10.20479 -10.20467 -10.20064 -10.20019
 Alpha  occ. eigenvalues --  -10.20018 -10.19947 -10.19746 -10.19705 -10.19675
 Alpha  occ. eigenvalues --  -10.19439 -10.19363 -10.19250 -10.19222 -10.19146
 Alpha  occ. eigenvalues --  -10.19004 -10.18898 -10.18859 -10.18829 -10.18828
 Alpha  occ. eigenvalues --  -10.18723 -10.18691 -10.18667 -10.18545 -10.18541
 Alpha  occ. eigenvalues --  -10.18467 -10.18318 -10.18273 -10.18182 -10.18013
 Alpha  occ. eigenvalues --  -10.17973 -10.17689 -10.17687 -10.17566 -10.17343
 Alpha  occ. eigenvalues --  -10.17078 -10.16811 -10.16742 -10.16453 -10.16265
 Alpha  occ. eigenvalues --   -0.85216  -0.84708  -0.83897  -0.83053  -0.82075
 Alpha  occ. eigenvalues --   -0.81687  -0.79288  -0.78837  -0.77936  -0.77379
 Alpha  occ. eigenvalues --   -0.76849  -0.75710  -0.73591  -0.72889  -0.71466
 Alpha  occ. eigenvalues --   -0.70767  -0.68872  -0.68582  -0.68307  -0.67908
 Alpha  occ. eigenvalues --   -0.67666  -0.67456  -0.66842  -0.66613  -0.65930
 Alpha  occ. eigenvalues --   -0.63565  -0.61785  -0.60308  -0.58874  -0.57011
 Alpha  occ. eigenvalues --   -0.56495  -0.55792  -0.54941  -0.54113  -0.53434
 Alpha  occ. eigenvalues --   -0.52176  -0.51331  -0.50321  -0.49716  -0.48922
 Alpha  occ. eigenvalues --   -0.47917  -0.47459  -0.47382  -0.46563  -0.46308
 Alpha  occ. eigenvalues --   -0.45931  -0.45174  -0.44648  -0.44551  -0.44438
 Alpha  occ. eigenvalues --   -0.44021  -0.43709  -0.43214  -0.43030  -0.42296
 Alpha  occ. eigenvalues --   -0.41891  -0.41689  -0.41505  -0.41379  -0.40891
 Alpha  occ. eigenvalues --   -0.40599  -0.40440  -0.40023  -0.39642  -0.39482
 Alpha  occ. eigenvalues --   -0.39231  -0.39070  -0.38779  -0.38742  -0.38239
 Alpha  occ. eigenvalues --   -0.37873  -0.37708  -0.37534  -0.37470  -0.36873
 Alpha  occ. eigenvalues --   -0.36514  -0.36352  -0.35796  -0.35577  -0.35437
 Alpha  occ. eigenvalues --   -0.34969  -0.34686  -0.34366  -0.33988  -0.33877
 Alpha  occ. eigenvalues --   -0.33862  -0.33417  -0.33254  -0.33071  -0.32566
 Alpha  occ. eigenvalues --   -0.32345  -0.32259  -0.31455  -0.31289  -0.30896
 Alpha  occ. eigenvalues --   -0.30211  -0.29884  -0.29527  -0.29173  -0.28730
 Alpha  occ. eigenvalues --   -0.27947  -0.27447  -0.26197  -0.24248  -0.22178
 Alpha  occ. eigenvalues --   -0.20794  -0.18740  -0.16881
 Alpha virt. eigenvalues --   -0.07585  -0.04989  -0.01591   0.00668   0.02577
 Alpha virt. eigenvalues --    0.04209   0.05325   0.06620   0.06847   0.07063
 Alpha virt. eigenvalues --    0.07309   0.07884   0.08053   0.08200   0.08756

 Mulliken charges:
               1
     1  C   -0.017015
     2  C    0.015521
     3  C   -0.173780
     4  C   -0.171759
     5  C   -0.190474
     6  C   -0.189781
     7  C    0.045763
     8  C    0.044442
     9  C   -0.223765
    10  C   -0.184876
    11  C    0.110580
    12  C    0.065837
    13  C   -0.277398
    14  C   -0.307414
    15  C   -0.310998
    16  C   -0.292239
    17  C   -0.145842
    18  C   -0.132222
    19  C   -0.354214
    20  C   -0.351369
    21  C   -0.024200
    22  C   -0.126708
    23  C    0.067143
    24  C    0.148537
    25  C   -0.358845
    26  C   -0.354977
    27  C   -0.123771
    28  C   -0.134300
    29  C   -0.068001
    30  C   -0.140250
    31  C   -0.106039
    32  C   -0.076771
    33  C    0.090382
    34  C    0.112275
    35  C   -0.363465
    36  C   -0.357481
    37  C   -0.108837
    38  C   -0.122012
    39  C   -0.088095
    40  C   -0.131091
    41  H    0.085417
    42  H    0.079418
    43  H    0.051610
    44  H    0.095803
    45  H    0.079262
    46  H    0.112383
    47  H    0.061478
    48  H    0.097772
    49  H    0.094736
    50  H    0.071593
    51  H    0.129147
    52  H    0.073089
    53  H    0.096517
    54  H    0.106636
    55  H    0.083683
    56  H    0.105530
    57  H    0.086879
    58  H    0.118039
    59  H    0.110255
    60  H    0.094241
    61  H    0.104632
    62  H    0.128626
    63  H    0.079462
    64  H    0.068094
    65  H    0.072668
    66  H    0.090783
    67  H    0.125177
    68  H    0.079269
    69  H    0.113313
    70  H    0.117473
    71  H    0.083329
    72  H    0.114562
    73  H    0.059626
    74  H    0.087719
    75  H    0.116201
    76  H    0.113410
    77  H    0.108503
    78  H    0.083514
    79  H    0.102151
    80  H    0.122432
    81  H    0.075538
    82  H    0.073501
    83  H    0.092015
    84  H    0.097311
    85  H    0.085150
    86  H    0.067657
    87  H    0.096620
    88  H    0.110791
    89  H    0.134723
    90  H    0.125366
    91  H    0.135243
    92  H    0.104105
    93  H    0.080133
    94  H    0.055900
    95  H    0.075102
    96  H    0.093921
 Sum of Mulliken charges =  -0.00000

 Dipole moment (field-independent basis, Debye):
    X=              2.2963    Y=             -0.1475    Z=             -0.0410  Tot=              2.3014
 Quadrupole moment (field-independent basis, Debye-Ang):
   XX=           -219.2390   YY=           -234.1416   ZZ=           -257.7300
   XY=              1.5667   XZ=             -5.8097   YZ=              2.5907

 Normal termination of Gaussian 16 at Thu Aug  1 01:59:52 2019.
