 Gaussian 16, Revision A.03,
 Gaussian 16:  ES64L-G16RevA.03 25-Dec-2016

 ---------------------------------
 # td=(NStates=1) B3LYP/6-31G(d,p)
 ---------------------------------

 --
 TD
 --
 Symbolic Z-matrix:
 Charge =  0 Multiplicity = 1

                         Standard orientation:
 ---------------------------------------------------------------------
 Center     Atomic      Atomic             Coordinates (Angstroms)
 Number     Number       Type             X           Y           Z
 ---------------------------------------------------------------------
      1          6           0       12.027949   -0.638943    0.746946
      2          6           0      -12.166840    0.028817   -0.744897
      3          6           0       13.410662    0.009881    0.795868
      4          6           0      -12.956228   -1.236704   -1.242902
      5          6           0       13.295343    1.594329    0.751453
      6          6           0      -13.380325   -2.052971   -0.007072
      7          6           0       10.992499   -0.067230   -0.252350
      8          6           0      -11.017298   -0.415424    0.301152
      9          6           0       12.553460    2.053276   -0.494398
     10          6           0      -12.163423   -2.699394    0.584726
     11          6           0       11.229823    1.239534   -0.753319
     12          6           0      -11.045455   -1.644030    0.737233
     13          6           0       11.594595   -0.666303    2.251598
     14          6           0       12.345810   -2.141467    0.394228
     15          6           0      -13.156463    0.947449   -0.163475
     16          6           0      -11.413077    0.693714   -1.935421
     17          6           0        9.847322   -0.848626   -0.516733
     18          6           0       -9.868406    0.567308    0.443270
     19          6           0       10.345571    1.768037   -1.782790
     20          6           0      -10.004965   -2.060528    1.743728
     21          6           0        8.574284   -0.330138   -0.217436
     22          6           0       -8.552830    0.313043    0.165749
     23          6           0        7.405599   -1.238124   -0.505574
     24          6           0       -7.458938    1.193981    0.344924
     25          6           0        7.658216   -2.758499   -0.854568
     26          6           0       -7.809966    2.748603    0.612563
     27          6           0        6.185982   -0.734582   -0.321009
     28          6           0       -6.142559    0.880308    0.215311
     29          6           0        4.787508   -1.283792   -0.422562
     30          6           0       -5.023810    1.581895    0.324859
     31          6           0        3.739683   -0.566336   -0.291195
     32          6           0       -3.845586    1.035754    0.252343
     33          6           0        2.407677   -1.030444   -0.508561
     34          6           0       -2.574397    1.801205    0.312829
     35          6           0        2.230328   -2.563863   -0.808669
     36          6           0       -2.746242    3.334782    0.490628
     37          6           0        1.243821   -0.381516   -0.284841
     38          6           0       -1.373354    1.193119    0.146377
     39          6           0        1.129469    1.036853    0.064552
     40          6           0       -0.053390    1.724878    0.183806
     41          1           0       13.929901   -0.062050   -0.262039
     42          1           0       14.004072   -0.298729    1.606230
     43          1           0      -12.387658   -1.874402   -1.811592
     44          1           0      -13.818568   -0.888868   -1.816766
     45          1           0       14.233388    2.160621    0.758545
     46          1           0       12.819760    2.037339    1.576439
     47          1           0      -14.069005   -2.816997   -0.279906
     48          1           0      -13.854625   -1.588668    0.765673
     49          1           0       13.184961    2.072923   -1.365510
     50          1           0       12.273193    3.183280   -0.337257
     51          1           0      -11.877464   -3.434249   -0.059595
     52          1           0      -12.308738   -3.060245    1.587512
     53          1           0       11.243568    0.277482    2.771564
     54          1           0       12.150434   -1.120380    3.162223
     55          1           0       10.722072   -1.142103    2.498025
     56          1           0       12.639580   -2.222784   -0.757181
     57          1           0       11.382732   -2.711925    0.613958
     58          1           0       13.063119   -2.263671    0.822933
     59          1           0      -13.924596    0.641220    0.568091
     60          1           0      -13.771029    1.604107   -0.814734
     61          1           0      -12.622376    1.751251    0.470896
     62          1           0      -10.587504   -0.133883   -2.298808
     63          1           0      -11.140670    1.621076   -1.686754
     64          1           0      -12.092558    0.812820   -2.847043
     65          1           0        9.925490   -1.908114   -0.591171
     66          1           0      -10.178301    1.537121    0.692114
     67          1           0        9.441274    1.095288   -1.991317
     68          1           0       10.786994    2.050294   -2.711024
     69          1           0        9.912059    2.664353   -1.327602
     70          1           0       -9.487724   -1.066562    2.112789
     71          1           0       -9.419956   -2.737368    1.173940
     72          1           0      -10.348207   -2.522281    2.629503
     73          1           0        8.353355    0.548154   -0.047572
     74          1           0       -8.294826   -0.591528   -0.299407
     75          1           0        8.261093   -3.095322   -1.843479
     76          1           0        6.609793   -3.197953   -1.051828
     77          1           0        8.089906   -3.240009    0.156500
     78          1           0       -8.232094    2.713235    1.831959
     79          1           0       -8.564320    3.013633    0.025165
     80          1           0       -6.959601    3.374013    0.510273
     81          1           0        6.107921    0.406692   -0.021312
     82          1           0       -6.043223   -0.140661    0.060235
     83          1           0        4.740014   -2.339684   -0.513741
     84          1           0       -5.095046    2.622941    0.554453
     85          1           0        3.963345    0.564150   -0.343948
     86          1           0       -3.641513   -0.093092    0.256905
     87          1           0        2.757651   -2.922859   -1.856935
     88          1           0        1.308718   -2.922837   -0.770572
     89          1           0        2.876760   -3.216362    0.004640
     90          1           0       -3.722214    3.597002    1.114072
     91          1           0       -3.087835    3.786291   -0.631668
     92          1           0       -1.697007    3.589513    0.773192
     93          1           0        0.337329   -0.858698   -0.490376
     94          1           0       -1.349741    0.084747    0.318529
     95          1           0        2.083757    1.556198    0.220509
     96          1           0       -0.138149    2.779417    0.654049
 ---------------------------------------------------------------------

 SCF Done:  E(RB3LYP) =  -1557.50711725     A.U. after   14 cycles

 Excitation energies and oscillator strengths:

 Excited State   1:      Singlet-A      2.4392 eV  508.29 nm  f=2.8969  <S**2>=0.000
     148 ->149         0.69702
 This state for optimization and/or second-order correction.
 Total Energy, E(TD-HF/TD-DFT) =  -1557.41747710
 Copying the excited state density for this state as the 1-particle RhoCI density.

 The electronic state is 1-A.
 Alpha  occ. eigenvalues --  -10.21596 -10.21059 -10.20467 -10.20426 -10.20374
 Alpha  occ. eigenvalues --  -10.20239 -10.19749 -10.19721 -10.19647 -10.19580
 Alpha  occ. eigenvalues --  -10.19577 -10.19534 -10.19526 -10.19072 -10.18886
 Alpha  occ. eigenvalues --  -10.18832 -10.18806 -10.18672 -10.18661 -10.18643
 Alpha  occ. eigenvalues --  -10.18630 -10.18575 -10.18500 -10.18269 -10.18219
 Alpha  occ. eigenvalues --  -10.18079 -10.17897 -10.17697 -10.17520 -10.17337
 Alpha  occ. eigenvalues --  -10.17314 -10.17071 -10.17020 -10.16942 -10.16895
 Alpha  occ. eigenvalues --  -10.16848 -10.16822 -10.16331 -10.16143 -10.15929
 Alpha  occ. eigenvalues --   -0.84844  -0.84519  -0.84338  -0.83759  -0.81974
 Alpha  occ. eigenvalues --   -0.81214  -0.79658  -0.78581  -0.78391  -0.77950
 Alpha  occ. eigenvalues --   -0.76875  -0.75986  -0.74323  -0.72512  -0.71702
 Alpha  occ. eigenvalues --   -0.69206  -0.68893  -0.68044  -0.67942  -0.67644
 Alpha  occ. eigenvalues --   -0.67438  -0.67181  -0.66988  -0.66785  -0.66124
 Alpha  occ. eigenvalues --   -0.63220  -0.62257  -0.60299  -0.59493  -0.58155
 Alpha  occ. eigenvalues --   -0.57385  -0.56046  -0.55389  -0.54620  -0.53530
 Alpha  occ. eigenvalues --   -0.53233  -0.52848  -0.50895  -0.50521  -0.49309
 Alpha  occ. eigenvalues --   -0.48921  -0.47965  -0.47096  -0.46613  -0.46333
 Alpha  occ. eigenvalues --   -0.45580  -0.45183  -0.45032  -0.44301  -0.43994
 Alpha  occ. eigenvalues --   -0.43607  -0.43306  -0.42496  -0.42220  -0.41977
 Alpha  occ. eigenvalues --   -0.41869  -0.41562  -0.41415  -0.41091  -0.40590
 Alpha  occ. eigenvalues --   -0.40443  -0.40225  -0.40002  -0.39736  -0.39603
 Alpha  occ. eigenvalues --   -0.39299  -0.39169  -0.38871  -0.38529  -0.38180
 Alpha  occ. eigenvalues --   -0.38034  -0.37863  -0.37573  -0.37353  -0.37074
 Alpha  occ. eigenvalues --   -0.36868  -0.36417  -0.35956  -0.35814  -0.35652
 Alpha  occ. eigenvalues --   -0.35250  -0.34760  -0.34520  -0.33959  -0.33399
 Alpha  occ. eigenvalues --   -0.33254  -0.32965  -0.32913  -0.32591  -0.32532
 Alpha  occ. eigenvalues --   -0.32216  -0.31775  -0.31665  -0.31398  -0.31156
 Alpha  occ. eigenvalues --   -0.30269  -0.29796  -0.29399  -0.28831  -0.28668
 Alpha  occ. eigenvalues --   -0.28186  -0.27398  -0.26357  -0.24263  -0.23251
 Alpha  occ. eigenvalues --   -0.21246  -0.19131  -0.17197
 Alpha virt. eigenvalues --   -0.07719  -0.05038  -0.02178   0.00665   0.02994
 Alpha virt. eigenvalues --    0.04296   0.05545   0.06590   0.07242   0.07432
 Alpha virt. eigenvalues --    0.07800   0.08147   0.08375   0.08621   0.09002

 Mulliken charges:
               1
     1  C   -0.006425
     2  C    0.015073
     3  C   -0.169809
     4  C   -0.167871
     5  C   -0.193060
     6  C   -0.191663
     7  C    0.078332
     8  C    0.067436
     9  C   -0.224521
    10  C   -0.212308
    11  C    0.063752
    12  C    0.028003
    13  C   -0.326428
    14  C   -0.236820
    15  C   -0.313300
    16  C   -0.284955
    17  C   -0.148612
    18  C   -0.161972
    19  C   -0.368027
    20  C   -0.356254
    21  C   -0.038313
    22  C   -0.064947
    23  C    0.113041
    24  C    0.090893
    25  C   -0.369394
    26  C   -0.348685
    27  C   -0.150781
    28  C   -0.111138
    29  C   -0.044863
    30  C   -0.029180
    31  C   -0.104551
    32  C   -0.099604
    33  C    0.113063
    34  C    0.093092
    35  C   -0.349592
    36  C   -0.345012
    37  C   -0.115053
    38  C   -0.117020
    39  C   -0.096005
    40  C   -0.101945
    41  H    0.072740
    42  H    0.103040
    43  H    0.092928
    44  H    0.086889
    45  H    0.080744
    46  H    0.105119
    47  H    0.080181
    48  H    0.105853
    49  H    0.113029
    50  H    0.079692
    51  H    0.113550
    52  H    0.100370
    53  H    0.090958
    54  H    0.086990
    55  H    0.107594
    56  H    0.072401
    57  H    0.089815
    58  H    0.089605
    59  H    0.106585
    60  H    0.096667
    61  H    0.077184
    62  H    0.082825
    63  H    0.110073
    64  H    0.079220
    65  H    0.096949
    66  H    0.087291
    67  H    0.107961
    68  H    0.111880
    69  H    0.107712
    70  H    0.103317
    71  H    0.112721
    72  H    0.102443
    73  H    0.060960
    74  H    0.080540
    75  H    0.111954
    76  H    0.102389
    77  H    0.113996
    78  H    0.074472
    79  H    0.130877
    80  H    0.107661
    81  H    0.057023
    82  H    0.059469
    83  H    0.080085
    84  H    0.063577
    85  H    0.079559
    86  H    0.072613
    87  H    0.088283
    88  H    0.116408
    89  H    0.088533
    90  H    0.115488
    91  H    0.098100
    92  H    0.107898
    93  H    0.083325
    94  H    0.078476
    95  H    0.085920
    96  H    0.073489
 Sum of Mulliken charges =  -0.00000

 Dipole moment (field-independent basis, Debye):
    X=             -0.1588    Y=             -0.4811    Z=              0.1906  Tot=              0.5413
 Quadrupole moment (field-independent basis, Debye-Ang):
   XX=           -221.5328   YY=           -236.9857   ZZ=           -253.2902
   XY=              4.2515   XZ=              0.7601   YZ=              2.0851

 Normal termination of Gaussian 16 at Wed Jul 31 08:47:49 2019.
