 Gaussian 16, Revision A.03,
 Gaussian 16:  ES64L-G16RevA.03 25-Dec-2016

 ---------------------------------
 # td=(NStates=1) B3LYP/6-31G(d,p)
 ---------------------------------

 --
 TD
 --
 Symbolic Z-matrix:
 Charge =  0 Multiplicity = 1

                         Standard orientation:
 ---------------------------------------------------------------------
 Center     Atomic      Atomic             Coordinates (Angstroms)
 Number     Number       Type             X           Y           Z
 ---------------------------------------------------------------------
      1          6           0       12.138969    0.528042   -0.540048
      2          6           0      -12.055893   -0.099617    0.887851
      3          6           0       13.353502   -0.382127   -0.531358
      4          6           0      -12.825723    1.106053    1.480967
      5          6           0       13.111736   -1.825433   -0.481543
      6          6           0      -13.332961    2.017557    0.386200
      7          6           0       10.962207   -0.059968    0.321796
      8          6           0      -10.954254    0.363821   -0.158493
      9          6           0       12.251830   -2.205870    0.805844
     10          6           0      -12.194374    2.540625   -0.417754
     11          6           0       11.035047   -1.235573    0.966268
     12          6           0      -11.057813    1.606127   -0.658191
     13          6           0       11.635125    0.628469   -2.097542
     14          6           0       12.426769    1.996127   -0.168565
     15          6           0      -12.936315   -1.136781    0.094709
     16          6           0      -11.422458   -0.724600    2.166831
     17          6           0        9.865443    0.825832    0.470137
     18          6           0       -9.884969   -0.599260   -0.363214
     19          6           0       10.044186   -1.713129    1.936403
     20          6           0       -9.992102    2.208169   -1.641301
     21          6           0        8.579817    0.565919    0.225685
     22          6           0       -8.564365   -0.331919   -0.221100
     23          6           0        7.353344    1.452469    0.390875
     24          6           0       -7.508052   -1.256706   -0.369211
     25          6           0        7.431715    2.808026    0.746403
     26          6           0       -7.847099   -2.671011   -0.643191
     27          6           0        6.207647    0.752314    0.152951
     28          6           0       -6.206930   -0.723611   -0.309773
     29          6           0        4.910393    1.301816    0.233670
     30          6           0       -5.007582   -1.500363   -0.477909
     31          6           0        3.693351    0.719396    0.058364
     32          6           0       -3.718170   -1.131888   -0.314519
     33          6           0        2.379683    1.313450    0.031905
     34          6           0       -2.492661   -1.892620   -0.410251
     35          6           0        2.260295    2.809558    0.177722
     36          6           0       -2.617816   -3.383818   -0.785681
     37          6           0        1.265601    0.590057   -0.086785
     38          6           0       -1.295825   -1.064399   -0.407530
     39          6           0        1.118607   -0.903510   -0.249392
     40          6           0        0.003267   -1.684087   -0.383105
     41          1           0       13.925280   -0.056770    0.439230
     42          1           0       13.952439   -0.041827   -1.271107
     43          1           0      -11.941618    1.694528    2.076125
     44          1           0      -13.557572    0.694915    2.168395
     45          1           0       14.090270   -2.544733   -0.361594
     46          1           0       12.420482   -1.987800   -1.235438
     47          1           0      -14.132105    2.742013    0.841885
     48          1           0      -14.000248    1.483870   -0.499386
     49          1           0       12.898097   -2.117937    1.621400
     50          1           0       11.797310   -3.267918    0.613648
     51          1           0      -11.750796    3.665789    0.077882
     52          1           0      -12.492241    3.043349   -1.422466
     53          1           0       11.901564   -0.382630   -2.782961
     54          1           0       12.276090    1.418140   -2.769820
     55          1           0       10.507014    0.833404   -2.233130
     56          1           0       12.920054    2.008496    0.954927
     57          1           0       11.700181    2.609940   -0.419785
     58          1           0       13.137933    2.342708   -1.057944
     59          1           0      -13.438404   -0.710927   -0.718185
     60          1           0      -13.673257   -1.409882    0.848771
     61          1           0      -12.414696   -2.026348   -0.308756
     62          1           0      -10.721371   -0.162994    2.835238
     63          1           0      -10.733664   -1.578754    1.696469
     64          1           0      -12.088080   -1.175654    2.870626
     65          1           0       10.148830    1.893618    0.790637
     66          1           0      -10.206556   -1.563811   -0.564625
     67          1           0        9.451509   -1.001575    2.422992
     68          1           0       10.622782   -2.089539    2.687169
     69          1           0        9.266679   -2.529243    1.442208
     70          1           0       -9.205164    1.377712   -1.937924
     71          1           0       -9.504267    3.056985   -0.966736
     72          1           0      -10.435746    2.406100   -2.509795
     73          1           0        8.540382   -0.491596   -0.030923
     74          1           0       -8.253963    0.746535    0.118669
     75          1           0        8.077264    3.233511    1.628397
     76          1           0        6.413670    3.179820    1.012425
     77          1           0        7.947087    3.477149    0.174467
     78          1           0       -8.304801   -2.876058   -1.740153
     79          1           0       -8.382612   -3.126383    0.104703
     80          1           0       -6.984100   -3.533889   -0.485681
     81          1           0        6.343861   -0.228195   -0.080663
     82          1           0       -6.227448    0.425324   -0.257658
     83          1           0        4.583012    2.338928    0.719846
     84          1           0       -5.167747   -2.513790   -0.678563
     85          1           0        3.719590   -0.256680   -0.085557
     86          1           0       -3.492128   -0.141974   -0.043350
     87          1           0        2.779548    3.094306    1.123354
     88          1           0        1.301407    3.188392    0.576607
     89          1           0        2.662414    3.460978   -0.555068
     90          1           0       -3.071703   -3.454089   -1.755360
     91          1           0       -3.271345   -3.917615   -0.128142
     92          1           0       -1.743841   -3.887871   -0.650169
     93          1           0        0.322813    1.221282   -0.508410
     94          1           0       -1.521022    0.028823   -0.338690
     95          1           0        2.154676   -1.466648   -0.225534
     96          1           0        0.175214   -2.768708   -0.131242
 ---------------------------------------------------------------------

 SCF Done:  E(RB3LYP) =  -1557.55570347     A.U. after   16 cycles

 Excitation energies and oscillator strengths:

 Excited State   1:      Singlet-A      2.2476 eV  551.63 nm  f=2.7600  <S**2>=0.000
     148 ->149         0.70159
 This state for optimization and/or second-order correction.
 Total Energy, E(TD-HF/TD-DFT) =  -1557.47310620
 Copying the excited state density for this state as the 1-particle RhoCI density.

 The electronic state is 1-A.
 Alpha  occ. eigenvalues --  -10.20824 -10.20592 -10.20463 -10.20393 -10.20328
 Alpha  occ. eigenvalues --  -10.20057 -10.20005 -10.19983 -10.19954 -10.19757
 Alpha  occ. eigenvalues --  -10.19716 -10.19684 -10.19676 -10.19569 -10.19518
 Alpha  occ. eigenvalues --  -10.19277 -10.18774 -10.18756 -10.18721 -10.18712
 Alpha  occ. eigenvalues --  -10.18627 -10.18620 -10.18406 -10.18332 -10.18267
 Alpha  occ. eigenvalues --  -10.18200 -10.18132 -10.17979 -10.17921 -10.17887
 Alpha  occ. eigenvalues --  -10.17877 -10.17810 -10.17647 -10.17590 -10.17499
 Alpha  occ. eigenvalues --  -10.17414 -10.17311 -10.17217 -10.17102 -10.16973
 Alpha  occ. eigenvalues --   -0.85164  -0.84576  -0.83818  -0.82774  -0.82354
 Alpha  occ. eigenvalues --   -0.81341  -0.79131  -0.78319  -0.77752  -0.77441
 Alpha  occ. eigenvalues --   -0.76747  -0.75437  -0.74053  -0.73305  -0.71539
 Alpha  occ. eigenvalues --   -0.70219  -0.70123  -0.68897  -0.68183  -0.68138
 Alpha  occ. eigenvalues --   -0.67722  -0.67551  -0.66192  -0.65780  -0.65070
 Alpha  occ. eigenvalues --   -0.62577  -0.61678  -0.59374  -0.58601  -0.56823
 Alpha  occ. eigenvalues --   -0.56421  -0.55410  -0.54789  -0.54328  -0.53725
 Alpha  occ. eigenvalues --   -0.52897  -0.51880  -0.50689  -0.49427  -0.49135
 Alpha  occ. eigenvalues --   -0.48549  -0.47590  -0.46992  -0.46727  -0.46641
 Alpha  occ. eigenvalues --   -0.45334  -0.45039  -0.44541  -0.43963  -0.43768
 Alpha  occ. eigenvalues --   -0.43573  -0.43281  -0.42996  -0.42744  -0.42661
 Alpha  occ. eigenvalues --   -0.42148  -0.41953  -0.41723  -0.41704  -0.41131
 Alpha  occ. eigenvalues --   -0.40720  -0.40354  -0.40101  -0.39560  -0.39279
 Alpha  occ. eigenvalues --   -0.39025  -0.38670  -0.38427  -0.38221  -0.37912
 Alpha  occ. eigenvalues --   -0.37469  -0.37372  -0.37156  -0.36996  -0.36486
 Alpha  occ. eigenvalues --   -0.35797  -0.35665  -0.35287  -0.35125  -0.34949
 Alpha  occ. eigenvalues --   -0.34672  -0.34291  -0.34231  -0.34038  -0.33984
 Alpha  occ. eigenvalues --   -0.33715  -0.33452  -0.33164  -0.32921  -0.32399
 Alpha  occ. eigenvalues --   -0.32350  -0.32029  -0.31423  -0.30865  -0.30167
 Alpha  occ. eigenvalues --   -0.29784  -0.29656  -0.29307  -0.28870  -0.28306
 Alpha  occ. eigenvalues --   -0.27711  -0.27419  -0.26124  -0.23757  -0.22688
 Alpha  occ. eigenvalues --   -0.21254  -0.18999  -0.16414
 Alpha virt. eigenvalues --   -0.07828  -0.05128  -0.01410   0.00885   0.02643
 Alpha virt. eigenvalues --    0.03700   0.06142   0.06746   0.06959   0.07078
 Alpha virt. eigenvalues --    0.07516   0.07610   0.07998   0.08662   0.08894

 Mulliken charges:
               1
     1  C    0.001727
     2  C   -0.012751
     3  C   -0.138369
     4  C   -0.160509
     5  C   -0.184099
     6  C   -0.165023
     7  C    0.083731
     8  C    0.076463
     9  C   -0.226371
    10  C   -0.193392
    11  C    0.039961
    12  C    0.051169
    13  C   -0.311252
    14  C   -0.278969
    15  C   -0.304140
    16  C   -0.302183
    17  C   -0.151274
    18  C   -0.148128
    19  C   -0.343806
    20  C   -0.343662
    21  C   -0.101921
    22  C   -0.090922
    23  C    0.165130
    24  C    0.152217
    25  C   -0.400914
    26  C   -0.377854
    27  C   -0.107399
    28  C   -0.128667
    29  C   -0.082442
    30  C   -0.090314
    31  C   -0.089112
    32  C   -0.095642
    33  C    0.132346
    34  C    0.092524
    35  C   -0.394157
    36  C   -0.372810
    37  C   -0.141990
    38  C   -0.118174
    39  C   -0.093384
    40  C   -0.102268
    41  H    0.057149
    42  H    0.099186
    43  H    0.085174
    44  H    0.090877
    45  H    0.074720
    46  H    0.112018
    47  H    0.082806
    48  H    0.070084
    49  H    0.115892
    50  H    0.090579
    51  H    0.042694
    52  H    0.094925
    53  H    0.070416
    54  H    0.074713
    55  H    0.110624
    56  H    0.085019
    57  H    0.123693
    58  H    0.075424
    59  H    0.115241
    60  H    0.093927
    61  H    0.101541
    62  H    0.104085
    63  H    0.070691
    64  H    0.101481
    65  H    0.069348
    66  H    0.087084
    67  H    0.123512
    68  H    0.115088
    69  H    0.082776
    70  H    0.100469
    71  H    0.101774
    72  H    0.120557
    73  H    0.075422
    74  H    0.081461
    75  H    0.100585
    76  H    0.117597
    77  H    0.139233
    78  H    0.110018
    79  H    0.138273
    80  H    0.076285
    81  H    0.083798
    82  H    0.076377
    83  H    0.063331
    84  H    0.069313
    85  H    0.054898
    86  H    0.061569
    87  H    0.113173
    88  H    0.110984
    89  H    0.132745
    90  H    0.135846
    91  H    0.118229
    92  H    0.113115
    93  H    0.072264
    94  H    0.098814
    95  H    0.068872
    96  H    0.100859
 Sum of Mulliken charges =  -0.00000

 Dipole moment (field-independent basis, Debye):
    X=              0.6401    Y=             -0.1893    Z=              0.5714  Tot=              0.8787
 Quadrupole moment (field-independent basis, Debye-Ang):
   XX=           -225.4017   YY=           -233.6320   ZZ=           -253.8452
   XY=              8.3131   XZ=              5.6417   YZ=              1.9900

 Normal termination of Gaussian 16 at Sat Jul 27 23:53:09 2019.
