 Gaussian 16, Revision A.03,
 Gaussian 16:  ES64L-G16RevA.03 25-Dec-2016

 ---------------------------------
 # td=(NStates=1) B3LYP/6-31G(d,p)
 ---------------------------------

 --
 TD
 --
 Symbolic Z-matrix:
 Charge =  0 Multiplicity = 1

                         Standard orientation:
 ---------------------------------------------------------------------
 Center     Atomic      Atomic             Coordinates (Angstroms)
 Number     Number       Type             X           Y           Z
 ---------------------------------------------------------------------
      1          6           0      -12.041587   -0.531463   -0.719658
      2          6           0       12.031661   -0.057842    0.858278
      3          6           0      -13.346292    0.299543   -0.584553
      4          6           0       12.857849   -1.204915    1.356892
      5          6           0      -13.002544    1.858239   -0.472440
      6          6           0       13.302457   -2.119192    0.149516
      7          6           0      -11.055159    0.051158    0.302551
      8          6           0       10.869403   -0.532464   -0.049707
      9          6           0      -12.246206    2.200260    0.744110
     10          6           0       12.028442   -2.545612   -0.463235
     11          6           0      -11.120575    1.174217    0.983296
     12          6           0       10.861624   -1.659366   -0.697539
     13          6           0      -11.488497   -0.459369   -2.143451
     14          6           0      -12.534938   -1.922207   -0.302633
     15          6           0       12.861146    1.012022    0.201865
     16          6           0       11.368293    0.613568    2.217273
     17          6           0       -9.851024   -0.897873    0.503116
     18          6           0        9.825571    0.510844   -0.195471
     19          6           0      -10.216306    1.628259    2.152185
     20          6           0        9.792074   -2.039862   -1.709826
     21          6           0       -8.571349   -0.621534    0.319404
     22          6           0        8.485372    0.301947   -0.249870
     23          6           0       -7.408530   -1.492320    0.383305
     24          6           0        7.512919    1.387742   -0.306186
     25          6           0       -7.433563   -2.876015    0.647314
     26          6           0        7.991045    2.811625   -0.596741
     27          6           0       -6.129132   -0.883837    0.297273
     28          6           0        6.166580    0.987292   -0.318211
     29          6           0       -4.806685   -1.468149    0.353678
     30          6           0        5.081296    1.809338   -0.389537
     31          6           0       -3.679308   -0.813520    0.174933
     32          6           0        3.769438    1.206011   -0.282110
     33          6           0       -2.281925   -1.252285    0.140087
     34          6           0        2.559920    1.929020   -0.383239
     35          6           0       -2.059879   -2.728535    0.408048
     36          6           0        2.604535    3.372610   -0.569168
     37          6           0       -1.110252   -0.484811   -0.176847
     38          6           0        1.354017    1.196910   -0.434707
     39          6           0       -1.132686    0.894290   -0.457084
     40          6           0        0.019679    1.635247   -0.615385
     41          1           0      -13.801320   -0.019655    0.263828
     42          1           0      -14.045830    0.025555   -1.421714
     43          1           0       12.220061   -1.741334    2.170882
     44          1           0       13.618852   -0.746775    1.898570
     45          1           0      -14.153614    2.329894   -0.723105
     46          1           0      -12.210329    2.175117   -1.382556
     47          1           0       13.722847   -3.027635    0.416748
     48          1           0       14.071397   -1.394504   -0.653966
     49          1           0      -12.841901    2.106944    1.611034
     50          1           0      -11.762812    3.149106    0.608246
     51          1           0       11.552410   -3.432936    0.172302
     52          1           0       12.412752   -3.023313   -1.547227
     53          1           0      -11.298832    0.664788   -2.538904
     54          1           0      -12.206533   -0.901307   -2.930832
     55          1           0      -10.579919   -0.918990   -2.172677
     56          1           0      -12.714622   -2.098467    0.773712
     57          1           0      -11.957135   -2.716050   -0.612584
     58          1           0      -13.567219   -2.258079   -0.721430
     59          1           0       13.572643    0.640923   -0.727055
     60          1           0       13.483723    1.607293    0.996750
     61          1           0       12.166143    1.824277   -0.201739
     62          1           0       10.717562   -0.001660    2.812955
     63          1           0       10.716065    1.390054    1.855751
     64          1           0       12.063604    0.993721    2.836789
     65          1           0      -10.050060   -2.006320    0.475692
     66          1           0       10.213713    1.468338   -0.533300
     67          1           0       -9.719778    0.840554    2.591478
     68          1           0      -10.693442    2.257153    3.030574
     69          1           0       -9.547903    2.348002    1.595444
     70          1           0        9.195223   -1.391075   -2.322743
     71          1           0        9.188320   -2.853728   -1.037623
     72          1           0       10.270257   -2.751421   -2.538505
     73          1           0       -8.364588    0.468128    0.266863
     74          1           0        8.266927   -0.633168   -0.195386
     75          1           0       -7.934862   -3.080206    1.693740
     76          1           0       -6.552944   -3.212137    0.588340
     77          1           0       -8.110117   -3.649399   -0.053292
     78          1           0        9.007134    2.857203   -1.400672
     79          1           0        8.468497    3.146919    0.410248
     80          1           0        7.142986    3.408802   -0.831108
     81          1           0       -6.225628    0.187883   -0.072477
     82          1           0        5.905636    0.154150    0.071431
     83          1           0       -4.771937   -2.644883    0.470660
     84          1           0        5.042948    2.889330   -0.696309
     85          1           0       -3.644143    0.445089    0.101804
     86          1           0        3.549446    0.051272   -0.396455
     87          1           0       -2.522253   -2.928839    1.213807
     88          1           0       -0.963393   -3.067227    0.602078
     89          1           0       -2.469117   -3.418667   -0.332161
     90          1           0        3.066565    3.769484   -1.548486
     91          1           0        3.268500    3.684840    0.125023
     92          1           0        1.632938    3.934286   -0.271820
     93          1           0       -0.087352   -1.030815   -0.307817
     94          1           0        1.457006    0.111151   -0.451998
     95          1           0       -1.970432    1.531796   -0.653497
     96          1           0       -0.187452    2.752717   -0.830467
 ---------------------------------------------------------------------

 SCF Done:  E(RB3LYP) =  -1557.52312215     A.U. after   16 cycles

 Excitation energies and oscillator strengths:

 Excited State   1:      Singlet-A      1.9901 eV  623.02 nm  f=3.0269  <S**2>=0.000
     148 ->149         0.70788
     148 ->150         0.10664
     148 <-149        -0.14435
 This state for optimization and/or second-order correction.
 Total Energy, E(TD-HF/TD-DFT) =  -1557.44998883
 Copying the excited state density for this state as the 1-particle RhoCI density.

 The electronic state is 1-A.
 Alpha  occ. eigenvalues --  -10.20849 -10.20784 -10.20450 -10.20342 -10.20277
 Alpha  occ. eigenvalues --  -10.20228 -10.20205 -10.20056 -10.20046 -10.19941
 Alpha  occ. eigenvalues --  -10.19898 -10.19856 -10.19855 -10.19705 -10.19655
 Alpha  occ. eigenvalues --  -10.19648 -10.19582 -10.19422 -10.19183 -10.19011
 Alpha  occ. eigenvalues --  -10.18693 -10.18617 -10.18599 -10.18571 -10.18570
 Alpha  occ. eigenvalues --  -10.18362 -10.18215 -10.18140 -10.18098 -10.17749
 Alpha  occ. eigenvalues --  -10.17664 -10.17605 -10.17524 -10.17299 -10.17296
 Alpha  occ. eigenvalues --  -10.16977 -10.16878 -10.16832 -10.16755 -10.15931
 Alpha  occ. eigenvalues --   -0.85595  -0.84958  -0.83665  -0.83322  -0.82264
 Alpha  occ. eigenvalues --   -0.81407  -0.79212  -0.78732  -0.78505  -0.77821
 Alpha  occ. eigenvalues --   -0.76813  -0.75225  -0.74622  -0.72500  -0.71490
 Alpha  occ. eigenvalues --   -0.70562  -0.68636  -0.68358  -0.68255  -0.68129
 Alpha  occ. eigenvalues --   -0.67578  -0.67394  -0.67186  -0.66614  -0.65971
 Alpha  occ. eigenvalues --   -0.63052  -0.61778  -0.59664  -0.58098  -0.57042
 Alpha  occ. eigenvalues --   -0.56571  -0.55773  -0.55455  -0.53618  -0.53358
 Alpha  occ. eigenvalues --   -0.52370  -0.51494  -0.50095  -0.49875  -0.48874
 Alpha  occ. eigenvalues --   -0.47919  -0.47168  -0.46784  -0.46584  -0.45799
 Alpha  occ. eigenvalues --   -0.45511  -0.45052  -0.44898  -0.44779  -0.44467
 Alpha  occ. eigenvalues --   -0.43768  -0.42920  -0.42666  -0.42364  -0.41918
 Alpha  occ. eigenvalues --   -0.41740  -0.41444  -0.41232  -0.41223  -0.40805
 Alpha  occ. eigenvalues --   -0.40433  -0.40138  -0.40062  -0.39930  -0.39732
 Alpha  occ. eigenvalues --   -0.39197  -0.38879  -0.38656  -0.38613  -0.38203
 Alpha  occ. eigenvalues --   -0.37989  -0.37593  -0.37368  -0.36497  -0.36367
 Alpha  occ. eigenvalues --   -0.36220  -0.35971  -0.35883  -0.35380  -0.35181
 Alpha  occ. eigenvalues --   -0.34786  -0.34707  -0.34589  -0.34258  -0.34145
 Alpha  occ. eigenvalues --   -0.33786  -0.33637  -0.33301  -0.33179  -0.32839
 Alpha  occ. eigenvalues --   -0.32311  -0.31866  -0.31517  -0.31307  -0.31023
 Alpha  occ. eigenvalues --   -0.30790  -0.30601  -0.29099  -0.28982  -0.28402
 Alpha  occ. eigenvalues --   -0.27806  -0.26487  -0.26250  -0.24238  -0.23128
 Alpha  occ. eigenvalues --   -0.21610  -0.19071  -0.15751
 Alpha virt. eigenvalues --   -0.08848  -0.05287  -0.01290   0.01363   0.02983
 Alpha virt. eigenvalues --    0.03896   0.05489   0.05910   0.06616   0.07006
 Alpha virt. eigenvalues --    0.07020   0.07377   0.07800   0.07850   0.08259

 Mulliken charges:
               1
     1  C    0.016585
     2  C   -0.008934
     3  C   -0.166526
     4  C   -0.164311
     5  C   -0.176244
     6  C   -0.151640
     7  C    0.075376
     8  C    0.077054
     9  C   -0.188631
    10  C   -0.207367
    11  C    0.015939
    12  C    0.089911
    13  C   -0.289325
    14  C   -0.322440
    15  C   -0.283172
    16  C   -0.324791
    17  C   -0.167019
    18  C   -0.145259
    19  C   -0.344779
    20  C   -0.355870
    21  C   -0.074297
    22  C   -0.054549
    23  C    0.142951
    24  C    0.084526
    25  C   -0.350221
    26  C   -0.350671
    27  C   -0.133633
    28  C   -0.081115
    29  C   -0.097703
    30  C   -0.106927
    31  C   -0.082333
    32  C   -0.140624
    33  C    0.084848
    34  C    0.150827
    35  C   -0.371661
    36  C   -0.387466
    37  C   -0.127825
    38  C   -0.117354
    39  C   -0.057930
    40  C   -0.115191
    41  H    0.102960
    42  H    0.080194
    43  H    0.080017
    44  H    0.088164
    45  H    0.054094
    46  H    0.063243
    47  H    0.109899
    48  H    0.056010
    49  H    0.115198
    50  H    0.107808
    51  H    0.085218
    52  H    0.062738
    53  H    0.081817
    54  H    0.088442
    55  H    0.118660
    56  H    0.108270
    57  H    0.105611
    58  H    0.082872
    59  H    0.083402
    60  H    0.089404
    61  H    0.095902
    62  H    0.103590
    63  H    0.103424
    64  H    0.104037
    65  H    0.071209
    66  H    0.079331
    67  H    0.130337
    68  H    0.093713
    69  H    0.115033
    70  H    0.139707
    71  H    0.094278
    72  H    0.085369
    73  H    0.069655
    74  H    0.062234
    75  H    0.106041
    76  H    0.113531
    77  H    0.082044
    78  H    0.087329
    79  H    0.120646
    80  H    0.116654
    81  H    0.078413
    82  H    0.078712
    83  H    0.085596
    84  H    0.084502
    85  H    0.059370
    86  H    0.075058
    87  H    0.134074
    88  H    0.089052
    89  H    0.114973
    90  H    0.115562
    91  H    0.133741
    92  H    0.099913
    93  H    0.095242
    94  H    0.066753
    95  H    0.089795
    96  H    0.068946
 Sum of Mulliken charges =  -0.00000

 Dipole moment (field-independent basis, Debye):
    X=              0.7511    Y=             -0.3106    Z=              0.3824  Tot=              0.8983
 Quadrupole moment (field-independent basis, Debye-Ang):
   XX=           -229.4761   YY=           -235.2604   ZZ=           -254.4176
   XY=              4.7899   XZ=             -4.4512   YZ=             -1.4081

 Normal termination of Gaussian 16 at Sun Jul 28 07:57:29 2019.
