 Gaussian 16, Revision A.03,
 Gaussian 16:  ES64L-G16RevA.03 25-Dec-2016

 ---------------------------------
 # td=(NStates=1) B3LYP/6-31G(d,p)
 ---------------------------------

 --
 TD
 --
 Symbolic Z-matrix:
 Charge =  0 Multiplicity = 1

                         Standard orientation:
 ---------------------------------------------------------------------
 Center     Atomic      Atomic             Coordinates (Angstroms)
 Number     Number       Type             X           Y           Z
 ---------------------------------------------------------------------
      1          6           0       12.146939    0.489480   -0.676554
      2          6           0      -12.147443   -0.097272    0.963116
      3          6           0       13.453230   -0.341630   -0.672324
      4          6           0      -13.108032    1.122495    1.330403
      5          6           0       13.261593   -1.813988   -0.521810
      6          6           0      -13.515476    1.885637    0.072918
      7          6           0       11.066757   -0.085067    0.246909
      8          6           0      -11.053239    0.292261   -0.062608
      9          6           0       12.325110   -2.124690    0.695903
     10          6           0      -12.305729    2.472246   -0.613656
     11          6           0       11.124300   -1.237820    1.008910
     12          6           0      -11.207790    1.455565   -0.821440
     13          6           0       11.631552    0.478874   -2.152574
     14          6           0       12.501907    1.963806   -0.333812
     15          6           0      -12.905035   -1.260172    0.467813
     16          6           0      -11.308751   -0.448708    2.368173
     17          6           0        9.839568    0.865952    0.501039
     18          6           0       -9.954229   -0.630447   -0.229029
     19          6           0       10.180634   -1.750648    2.034591
     20          6           0      -10.240959    1.947589   -1.909273
     21          6           0        8.605399    0.464188    0.113725
     22          6           0       -8.641141   -0.363926   -0.183041
     23          6           0        7.414314    1.295712    0.412079
     24          6           0       -7.479545   -1.298241   -0.399751
     25          6           0        7.562400    2.756024    0.735642
     26          6           0       -7.825257   -2.743420   -0.647344
     27          6           0        6.194853    0.714831    0.401922
     28          6           0       -6.252458   -0.781293   -0.380675
     29          6           0        4.916592    1.392342    0.330010
     30          6           0       -4.919474   -1.518172   -0.519832
     31          6           0        3.794474    0.645372    0.128999
     32          6           0       -3.732246   -0.865000   -0.324302
     33          6           0        2.533258    1.294636    0.249184
     34          6           0       -2.551660   -1.559894   -0.424785
     35          6           0        2.388902    2.742070    0.551514
     36          6           0       -2.652016   -3.056362   -0.809093
     37          6           0        1.212513    0.658743   -0.178304
     38          6           0       -1.344678   -0.949559   -0.312993
     39          6           0        1.112860   -0.801067   -0.354542
     40          6           0       -0.033176   -1.464182   -0.374892
     41          1           0       14.007912    0.102124    0.244144
     42          1           0       14.233264    0.030472   -1.337027
     43          1           0      -12.590170    1.759294    2.117584
     44          1           0      -14.143263    0.675259    1.778041
     45          1           0       14.367566   -2.324803   -0.536920
     46          1           0       12.667025   -2.047930   -1.269689
     47          1           0      -14.225022    2.648565    0.303258
     48          1           0      -14.039621    1.106014   -0.491666
     49          1           0       13.084466   -1.856511    1.649383
     50          1           0       12.115465   -3.240131    0.561785
     51          1           0      -12.117822    3.478500    0.062803
     52          1           0      -12.561844    2.649591   -1.664832
     53          1           0       11.521684   -0.549411   -2.549655
     54          1           0       12.365488    1.024322   -2.759158
     55          1           0       10.635968    0.815263   -2.212738
     56          1           0       12.606893    2.100291    0.771919
     57          1           0       11.643593    2.606850   -0.491029
     58          1           0       13.568773    2.307028   -0.685996
     59          1           0      -13.493017   -0.842073   -0.219239
     60          1           0      -13.529402   -1.740036    1.455423
     61          1           0      -12.276935   -2.093731    0.075445
     62          1           0      -10.683300    0.457924    2.512524
     63          1           0      -10.579888   -1.491035    2.175674
     64          1           0      -11.926189   -0.582714    3.239852
     65          1           0        9.968381    1.751380    0.756216
     66          1           0      -10.038262   -1.681720   -0.613227
     67          1           0        9.643899   -0.915362    2.261520
     68          1           0       10.722178   -2.208319    2.905187
     69          1           0        9.640632   -2.559378    1.646994
     70          1           0       -9.348094    1.427056   -2.146993
     71          1           0       -9.863532    2.926899   -1.508252
     72          1           0      -10.906990    2.268013   -2.871636
     73          1           0        8.271838   -0.604752   -0.062078
     74          1           0       -8.302296    0.631793    0.085768
     75          1           0        8.344758    2.892012    1.427842
     76          1           0        6.505256    3.132368    1.401929
     77          1           0        7.944340    3.455465   -0.160867
     78          1           0       -8.208666   -3.135306   -1.634382
     79          1           0       -8.330857   -3.122719    0.152073
     80          1           0       -7.009602   -3.696188   -0.656075
     81          1           0        6.245541   -0.337155    0.098862
     82          1           0       -6.256754    0.341410   -0.230766
     83          1           0        4.896831    2.533876    0.386944
     84          1           0       -4.985283   -2.623647   -0.627820
     85          1           0        3.690330   -0.291750    0.066953
     86          1           0       -3.855115    0.060211    0.147587
     87          1           0        2.877960    2.945843    1.641632
     88          1           0        1.266086    3.040666    0.413285
     89          1           0        2.958483    3.431251   -0.057826
     90          1           0       -3.318954   -3.191713   -1.751787
     91          1           0       -3.173825   -3.607529   -0.014010
     92          1           0       -1.549486   -3.547345   -0.974677
     93          1           0        0.455250    1.210130   -0.043742
     94          1           0       -1.397711    0.024836    0.246783
     95          1           0        2.013690   -1.581759   -0.529305
     96          1           0       -0.084591   -2.439257   -0.747290
 ---------------------------------------------------------------------

 SCF Done:  E(RB3LYP) =  -1557.52188106     A.U. after   16 cycles

 Excitation energies and oscillator strengths:

 Excited State   1:      Singlet-A      2.2444 eV  552.42 nm  f=2.7643  <S**2>=0.000
     148 ->149         0.70584
     148 <-149        -0.11044
 This state for optimization and/or second-order correction.
 Total Energy, E(TD-HF/TD-DFT) =  -1557.43940102
 Copying the excited state density for this state as the 1-particle RhoCI density.

 The electronic state is 1-A.
 Alpha  occ. eigenvalues --  -10.20911 -10.20708 -10.20339 -10.20140 -10.20046
 Alpha  occ. eigenvalues --  -10.20033 -10.19966 -10.19916 -10.19891 -10.19843
 Alpha  occ. eigenvalues --  -10.19762 -10.19688 -10.19683 -10.19681 -10.19421
 Alpha  occ. eigenvalues --  -10.19390 -10.19272 -10.19272 -10.19236 -10.19223
 Alpha  occ. eigenvalues --  -10.19183 -10.19063 -10.18940 -10.18597 -10.18516
 Alpha  occ. eigenvalues --  -10.18514 -10.18495 -10.18468 -10.18273 -10.18180
 Alpha  occ. eigenvalues --  -10.18089 -10.17969 -10.17761 -10.17520 -10.17468
 Alpha  occ. eigenvalues --  -10.17395 -10.17350 -10.17148 -10.17133 -10.16417
 Alpha  occ. eigenvalues --   -0.84647  -0.84406  -0.83856  -0.83408  -0.81920
 Alpha  occ. eigenvalues --   -0.81469  -0.79481  -0.78601  -0.77829  -0.77277
 Alpha  occ. eigenvalues --   -0.76953  -0.75068  -0.73796  -0.72638  -0.71954
 Alpha  occ. eigenvalues --   -0.69315  -0.68563  -0.68497  -0.68264  -0.67931
 Alpha  occ. eigenvalues --   -0.67458  -0.66888  -0.66362  -0.66021  -0.65362
 Alpha  occ. eigenvalues --   -0.63577  -0.61630  -0.59511  -0.59118  -0.56992
 Alpha  occ. eigenvalues --   -0.56062  -0.55950  -0.54708  -0.53852  -0.53200
 Alpha  occ. eigenvalues --   -0.52624  -0.52037  -0.50731  -0.49879  -0.49149
 Alpha  occ. eigenvalues --   -0.48819  -0.48090  -0.46824  -0.46688  -0.46396
 Alpha  occ. eigenvalues --   -0.45642  -0.45317  -0.44900  -0.44614  -0.44217
 Alpha  occ. eigenvalues --   -0.43660  -0.43447  -0.42808  -0.42245  -0.42100
 Alpha  occ. eigenvalues --   -0.41936  -0.41398  -0.41198  -0.41128  -0.40932
 Alpha  occ. eigenvalues --   -0.40777  -0.40521  -0.40260  -0.39739  -0.39302
 Alpha  occ. eigenvalues --   -0.39209  -0.38896  -0.38645  -0.38123  -0.37827
 Alpha  occ. eigenvalues --   -0.37687  -0.37282  -0.37200  -0.37031  -0.36378
 Alpha  occ. eigenvalues --   -0.35854  -0.35688  -0.35595  -0.35366  -0.35224
 Alpha  occ. eigenvalues --   -0.34864  -0.34412  -0.34319  -0.33744  -0.33379
 Alpha  occ. eigenvalues --   -0.33308  -0.33266  -0.32671  -0.32487  -0.32480
 Alpha  occ. eigenvalues --   -0.32232  -0.32051  -0.31566  -0.31456  -0.31278
 Alpha  occ. eigenvalues --   -0.31040  -0.29521  -0.29169  -0.28983  -0.28531
 Alpha  occ. eigenvalues --   -0.28076  -0.27864  -0.25517  -0.23747  -0.22254
 Alpha  occ. eigenvalues --   -0.21495  -0.19786  -0.16596
 Alpha virt. eigenvalues --   -0.08285  -0.04885  -0.01536  -0.00001   0.02070
 Alpha virt. eigenvalues --    0.02772   0.04840   0.05952   0.06221   0.06954
 Alpha virt. eigenvalues --    0.07160   0.07413   0.07951   0.08289   0.08844

 Mulliken charges:
               1
     1  C    0.010671
     2  C    0.005231
     3  C   -0.171557
     4  C   -0.177446
     5  C   -0.172949
     6  C   -0.188296
     7  C    0.031801
     8  C    0.051065
     9  C   -0.214484
    10  C   -0.191972
    11  C    0.071127
    12  C    0.059420
    13  C   -0.290914
    14  C   -0.320378
    15  C   -0.267680
    16  C   -0.300063
    17  C   -0.128885
    18  C   -0.132481
    19  C   -0.349124
    20  C   -0.349173
    21  C   -0.079600
    22  C   -0.089515
    23  C    0.138644
    24  C    0.148567
    25  C   -0.369175
    26  C   -0.392590
    27  C   -0.136667
    28  C   -0.155118
    29  C   -0.094577
    30  C   -0.096829
    31  C   -0.025029
    32  C   -0.086669
    33  C    0.072187
    34  C    0.131221
    35  C   -0.369434
    36  C   -0.376142
    37  C   -0.105859
    38  C   -0.121855
    39  C   -0.088540
    40  C   -0.078915
    41  H    0.062168
    42  H    0.087395
    43  H    0.084913
    44  H    0.067111
    45  H    0.077661
    46  H    0.115646
    47  H    0.092433
    48  H    0.096884
    49  H    0.069792
    50  H    0.087028
    51  H    0.086185
    52  H    0.101224
    53  H    0.090643
    54  H    0.097430
    55  H    0.105567
    56  H    0.098092
    57  H    0.104523
    58  H    0.096964
    59  H    0.110436
    60  H    0.061716
    61  H    0.103301
    62  H    0.102660
    63  H    0.064227
    64  H    0.102687
    65  H    0.065383
    66  H    0.084607
    67  H    0.127613
    68  H    0.107587
    69  H    0.125584
    70  H    0.122261
    71  H    0.111692
    72  H    0.082985
    73  H    0.083589
    74  H    0.069669
    75  H    0.129211
    76  H    0.077106
    77  H    0.108557
    78  H    0.125967
    79  H    0.140748
    80  H    0.065825
    81  H    0.073064
    82  H    0.070868
    83  H    0.097112
    84  H    0.089125
    85  H    0.060758
    86  H    0.087062
    87  H    0.094431
    88  H    0.097172
    89  H    0.126472
    90  H    0.114317
    91  H    0.128712
    92  H    0.087736
    93  H    0.071328
    94  H    0.065270
    95  H    0.078773
    96  H    0.064712
 Sum of Mulliken charges =  -0.00000

 Dipole moment (field-independent basis, Debye):
    X=              1.2924    Y=              0.3656    Z=              0.2324  Tot=              1.3630
 Quadrupole moment (field-independent basis, Debye-Ang):
   XX=           -228.3190   YY=           -234.5520   ZZ=           -257.2386
   XY=             -0.0724   XZ=              3.8530   YZ=              3.9572

 Normal termination of Gaussian 16 at Thu Aug  1 22:56:29 2019.
