 Gaussian 16, Revision A.03,
 Gaussian 16:  ES64L-G16RevA.03 25-Dec-2016

 ---------------------------------
 # td=(NStates=1) B3LYP/6-31G(d,p)
 ---------------------------------

 --
 TD
 --
 Symbolic Z-matrix:
 Charge =  0 Multiplicity = 1

                         Standard orientation:
 ---------------------------------------------------------------------
 Center     Atomic      Atomic             Coordinates (Angstroms)
 Number     Number       Type             X           Y           Z
 ---------------------------------------------------------------------
      1          6           0      -12.116292   -0.538075   -0.814764
      2          6           0       12.175898   -0.028961    0.739168
      3          6           0      -13.461269    0.135046   -0.640444
      4          6           0       12.885317   -1.331890    1.229436
      5          6           0      -13.303605    1.804422   -0.514685
      6          6           0       13.162611   -2.214723    0.030762
      7          6           0      -11.010596    0.016798    0.130827
      8          6           0       10.966619   -0.513729   -0.128476
      9          6           0      -12.375387    2.121578    0.735970
     10          6           0       11.903900   -2.723013   -0.537506
     11          6           0      -11.159153    1.128577    0.753937
     12          6           0       10.829960   -1.624087   -0.694476
     13          6           0      -11.516825   -0.453584   -2.245508
     14          6           0      -12.363990   -2.097755   -0.445698
     15          6           0       13.170176    1.043563    0.126957
     16          6           0       11.600439    0.582396    2.114309
     17          6           0       -9.794430   -0.844832    0.480697
     18          6           0        9.965417    0.622010   -0.164044
     19          6           0      -10.198321    1.686193    1.772647
     20          6           0        9.812922   -2.049317   -1.695342
     21          6           0       -8.490725   -0.516077    0.288200
     22          6           0        8.663524    0.436477   -0.345225
     23          6           0       -7.339193   -1.336281    0.495180
     24          6           0        7.515276    1.450237   -0.553314
     25          6           0       -7.582487   -2.717375    0.932909
     26          6           0        7.922981    2.803373   -0.740574
     27          6           0       -6.088850   -0.910151    0.181166
     28          6           0        6.173906    1.005517   -0.213110
     29          6           0       -4.844228   -1.427713    0.449496
     30          6           0        5.092271    1.789167   -0.239844
     31          6           0       -3.652539   -0.770919    0.350357
     32          6           0        3.799891    1.308105   -0.239552
     33          6           0       -2.294504   -1.281842    0.274265
     34          6           0        2.534138    1.972929   -0.345116
     35          6           0       -2.219048   -2.843859    0.334867
     36          6           0        2.502159    3.455831   -0.548495
     37          6           0       -1.177093   -0.512107    0.021426
     38          6           0        1.360741    1.223889   -0.095008
     39          6           0       -1.144143    0.955532   -0.023677
     40          6           0        0.015856    1.672532   -0.058863
     41          1           0      -13.917536   -0.049017    0.317533
     42          1           0      -13.999415   -0.266327   -1.463205
     43          1           0       12.139361   -1.864544    1.971967
     44          1           0       13.824232   -1.047320    1.712301
     45          1           0      -14.392799    2.070334   -0.242286
     46          1           0      -13.147875    2.373181   -1.537728
     47          1           0       13.791503   -2.931776    0.342230
     48          1           0       13.577411   -1.661900   -0.863408
     49          1           0      -12.872866    1.986686    1.678161
     50          1           0      -11.941746    3.079705    0.690723
     51          1           0       11.610526   -3.678248   -0.098932
     52          1           0       12.189869   -3.313854   -1.513117
     53          1           0      -11.496433    0.613362   -2.750172
     54          1           0      -12.151117   -0.989742   -3.037994
     55          1           0      -10.534035   -0.742061   -2.318958
     56          1           0      -12.407318   -2.050911    0.543052
     57          1           0      -11.405907   -2.631015   -0.760932
     58          1           0      -13.185993   -2.597589   -0.854556
     59          1           0       13.449729    0.547531   -0.775756
     60          1           0       14.103004    1.152575    0.635297
     61          1           0       12.664948    2.024296   -0.239715
     62          1           0       10.704995   -0.133886    2.527298
     63          1           0       11.067481    1.590410    1.946084
     64          1           0       12.264955    0.853464    2.892054
     65          1           0      -10.242609   -1.790289    0.648882
     66          1           0       10.425503    1.596922   -0.599051
     67          1           0       -9.372666    0.909074    1.996487
     68          1           0      -10.776944    2.148529    2.497923
     69          1           0       -9.470880    2.522262    1.370939
     70          1           0        9.042569   -1.345195   -2.024642
     71          1           0        9.015385   -2.799256   -1.120569
     72          1           0       10.383119   -2.534701   -2.486649
     73          1           0       -8.173905    0.477129   -0.127279
     74          1           0        8.305430   -0.634393    0.002439
     75          1           0       -8.129996   -2.711193    1.973276
     76          1           0       -6.680557   -3.255727    1.030231
     77          1           0       -8.058308   -3.243244    0.206162
     78          1           0        8.436407    2.829108   -1.728172
     79          1           0        8.679103    3.051975   -0.062647
     80          1           0        7.144511    3.705177   -0.850852
     81          1           0       -6.258919    0.179639    0.150354
     82          1           0        6.017431   -0.241288   -0.196734
     83          1           0       -5.072356   -2.594188    0.663248
     84          1           0        5.039901    2.798067   -0.329074
     85          1           0       -3.788303    0.281644    0.104650
     86          1           0        3.804689    0.187578   -0.093860
     87          1           0       -2.602081   -3.100739    1.327634
     88          1           0       -1.179201   -3.217242    0.203425
     89          1           0       -2.926293   -3.449848   -0.351089
     90          1           0        3.132712    3.994011   -1.270744
     91          1           0        2.874155    3.915123    0.348182
     92          1           0        1.533158    3.778854   -0.951850
     93          1           0       -0.265010   -1.212706   -0.109755
     94          1           0        1.866360    0.224184   -0.072916
     95          1           0       -2.125221    1.510698    0.177164
     96          1           0       -0.040105    2.819386   -0.078195
 ---------------------------------------------------------------------

 SCF Done:  E(RB3LYP) =  -1557.58725334     A.U. after   16 cycles

 Excitation energies and oscillator strengths:

 Excited State   1:      Singlet-A      2.1399 eV  579.39 nm  f=3.0386  <S**2>=0.000
     148 ->149         0.70863
     148 <-149        -0.11840
 This state for optimization and/or second-order correction.
 Total Energy, E(TD-HF/TD-DFT) =  -1557.50861254
 Copying the excited state density for this state as the 1-particle RhoCI density.

 The electronic state is 1-A.
 Alpha  occ. eigenvalues --  -10.21248 -10.20551 -10.20515 -10.20456 -10.20331
 Alpha  occ. eigenvalues --  -10.20327 -10.20307 -10.20065 -10.19968 -10.19926
 Alpha  occ. eigenvalues --  -10.19827 -10.19453 -10.19321 -10.19292 -10.19172
 Alpha  occ. eigenvalues --  -10.19072 -10.19044 -10.18953 -10.18909 -10.18734
 Alpha  occ. eigenvalues --  -10.18598 -10.18555 -10.18529 -10.18328 -10.18186
 Alpha  occ. eigenvalues --  -10.18146 -10.18027 -10.17907 -10.17878 -10.17813
 Alpha  occ. eigenvalues --  -10.17761 -10.17654 -10.17639 -10.17616 -10.17440
 Alpha  occ. eigenvalues --  -10.17431 -10.17260 -10.17141 -10.16624 -10.16319
 Alpha  occ. eigenvalues --   -0.85327  -0.84704  -0.83709  -0.83575  -0.82038
 Alpha  occ. eigenvalues --   -0.81221  -0.79037  -0.78280  -0.77899  -0.77458
 Alpha  occ. eigenvalues --   -0.76698  -0.75676  -0.74360  -0.72369  -0.71504
 Alpha  occ. eigenvalues --   -0.70091  -0.69102  -0.68666  -0.68584  -0.68338
 Alpha  occ. eigenvalues --   -0.67684  -0.67272  -0.66808  -0.66191  -0.65892
 Alpha  occ. eigenvalues --   -0.63138  -0.61784  -0.59352  -0.58905  -0.57738
 Alpha  occ. eigenvalues --   -0.56992  -0.55793  -0.54973  -0.53918  -0.52949
 Alpha  occ. eigenvalues --   -0.51595  -0.51571  -0.50653  -0.49509  -0.48704
 Alpha  occ. eigenvalues --   -0.48052  -0.47859  -0.46698  -0.46482  -0.46318
 Alpha  occ. eigenvalues --   -0.45482  -0.45045  -0.44319  -0.44134  -0.43985
 Alpha  occ. eigenvalues --   -0.43778  -0.43023  -0.42931  -0.42854  -0.42547
 Alpha  occ. eigenvalues --   -0.42400  -0.41922  -0.41753  -0.41715  -0.41209
 Alpha  occ. eigenvalues --   -0.40443  -0.40410  -0.40062  -0.39854  -0.39615
 Alpha  occ. eigenvalues --   -0.39495  -0.38715  -0.38647  -0.38399  -0.38104
 Alpha  occ. eigenvalues --   -0.37400  -0.37091  -0.36922  -0.36855  -0.36554
 Alpha  occ. eigenvalues --   -0.36358  -0.35765  -0.35423  -0.35255  -0.34718
 Alpha  occ. eigenvalues --   -0.34350  -0.34307  -0.33997  -0.33747  -0.33659
 Alpha  occ. eigenvalues --   -0.33523  -0.33311  -0.32841  -0.32702  -0.32615
 Alpha  occ. eigenvalues --   -0.32184  -0.32110  -0.31889  -0.31669  -0.30838
 Alpha  occ. eigenvalues --   -0.30802  -0.29683  -0.29213  -0.28520  -0.27903
 Alpha  occ. eigenvalues --   -0.27280  -0.26879  -0.26587  -0.24496  -0.23606
 Alpha  occ. eigenvalues --   -0.22320  -0.19221  -0.16415
 Alpha virt. eigenvalues --   -0.08636  -0.05602  -0.01478   0.01570   0.03242
 Alpha virt. eigenvalues --    0.04849   0.05940   0.06691   0.07127   0.07589
 Alpha virt. eigenvalues --    0.07831   0.08360   0.08529   0.08752   0.09185

 Mulliken charges:
               1
     1  C    0.006178
     2  C    0.002926
     3  C   -0.167765
     4  C   -0.169382
     5  C   -0.213213
     6  C   -0.171072
     7  C    0.034743
     8  C    0.054118
     9  C   -0.225442
    10  C   -0.234865
    11  C    0.079566
    12  C    0.100187
    13  C   -0.300888
    14  C   -0.327391
    15  C   -0.315784
    16  C   -0.294166
    17  C   -0.154650
    18  C   -0.106897
    19  C   -0.354951
    20  C   -0.351167
    21  C   -0.084939
    22  C   -0.115185
    23  C    0.127363
    24  C    0.095233
    25  C   -0.367951
    26  C   -0.383694
    27  C   -0.127058
    28  C   -0.128972
    29  C   -0.057698
    30  C   -0.015052
    31  C   -0.126803
    32  C   -0.141031
    33  C    0.110605
    34  C    0.103356
    35  C   -0.367010
    36  C   -0.393667
    37  C   -0.122476
    38  C   -0.071122
    39  C   -0.088675
    40  C   -0.118605
    41  H    0.098551
    42  H    0.095686
    43  H    0.085205
    44  H    0.079279
    45  H    0.078242
    46  H    0.090868
    47  H    0.090302
    48  H    0.092377
    49  H    0.116948
    50  H    0.119095
    51  H    0.103731
    52  H    0.069629
    53  H    0.080546
    54  H    0.080473
    55  H    0.121769
    56  H    0.120023
    57  H    0.092776
    58  H    0.105558
    59  H    0.109273
    60  H    0.113992
    61  H    0.095319
    62  H    0.075078
    63  H    0.080917
    64  H    0.102174
    65  H    0.093457
    66  H    0.073483
    67  H    0.106120
    68  H    0.106787
    69  H    0.087331
    70  H    0.123809
    71  H    0.079201
    72  H    0.113585
    73  H    0.084318
    74  H    0.074944
    75  H    0.106142
    76  H    0.100161
    77  H    0.132641
    78  H    0.123626
    79  H    0.141022
    80  H    0.097977
    81  H    0.059637
    82  H    0.067356
    83  H    0.062014
    84  H    0.068474
    85  H    0.080616
    86  H    0.063550
    87  H    0.125031
    88  H    0.100072
    89  H    0.112028
    90  H    0.113891
    91  H    0.132673
    92  H    0.112913
    93  H    0.085627
    94  H    0.077492
    95  H    0.094870
    96  H    0.084637
 Sum of Mulliken charges =  -0.00000

 Dipole moment (field-independent basis, Debye):
    X=             -0.1838    Y=              0.1710    Z=             -0.3932  Tot=              0.4665
 Quadrupole moment (field-independent basis, Debye-Ang):
   XX=           -211.6903   YY=           -232.5789   ZZ=           -256.3095
   XY=              5.0796   XZ=             -8.5725   YZ=             -1.8242

 Normal termination of Gaussian 16 at Sun Jul 28 04:55:16 2019.
