 Gaussian 16, Revision A.03,
 Gaussian 16:  ES64L-G16RevA.03 25-Dec-2016

 ---------------------------------
 # td=(NStates=1) B3LYP/6-31G(d,p)
 ---------------------------------

 --
 TD
 --
 Symbolic Z-matrix:
 Charge =  0 Multiplicity = 1

                         Standard orientation:
 ---------------------------------------------------------------------
 Center     Atomic      Atomic             Coordinates (Angstroms)
 Number     Number       Type             X           Y           Z
 ---------------------------------------------------------------------
      1          6           0       12.132816    0.489076   -0.581025
      2          6           0      -12.077250   -0.116455    0.915769
      3          6           0       13.398209   -0.414495   -0.541477
      4          6           0      -13.029208    0.999638    1.383509
      5          6           0       13.097848   -1.925242   -0.637660
      6          6           0      -13.471533    1.940181    0.199307
      7          6           0       11.007944   -0.084968    0.245487
      8          6           0      -11.074712    0.411402   -0.024173
      9          6           0       12.304232   -2.317746    0.507606
     10          6           0      -12.288777    2.581106   -0.453540
     11          6           0       11.127505   -1.337874    0.833115
     12          6           0      -11.058368    1.584005   -0.657460
     13          6           0       11.635836    0.644995   -2.074056
     14          6           0       12.700147    1.924106   -0.050822
     15          6           0      -12.810762   -1.259481    0.137722
     16          6           0      -11.533671   -0.820928    2.203008
     17          6           0        9.855817    0.852978    0.603989
     18          6           0       -9.908353   -0.626041   -0.203250
     19          6           0       10.164107   -2.061575    1.788730
     20          6           0      -10.114426    2.015773   -1.758039
     21          6           0        8.532656    0.542077    0.464404
     22          6           0       -8.639157   -0.241796   -0.252072
     23          6           0        7.417421    1.391773    0.522853
     24          6           0       -7.543390   -1.208542   -0.355722
     25          6           0        7.629391    2.906064    0.916634
     26          6           0       -7.967495   -2.707109   -0.661708
     27          6           0        6.221882    0.833118    0.237997
     28          6           0       -6.232978   -0.768736   -0.229829
     29          6           0        4.894549    1.492645    0.252947
     30          6           0       -4.939961   -1.598288   -0.377764
     31          6           0        3.729482    0.799652    0.089573
     32          6           0       -3.746400   -1.033319   -0.478136
     33          6           0        2.368559    1.416477    0.061504
     34          6           0       -2.499492   -1.715279   -0.430767
     35          6           0        2.237563    2.926478    0.310410
     36          6           0       -2.447494   -3.171786   -0.576420
     37          6           0        1.197815    0.679789   -0.079279
     38          6           0       -1.339634   -1.002818   -0.393204
     39          6           0        1.105164   -0.774005   -0.287950
     40          6           0        0.015820   -1.520582   -0.456444
     41          1           0       13.758266   -0.228245    0.551903
     42          1           0       14.114481    0.177732   -1.046481
     43          1           0      -12.489394    1.667148    2.079821
     44          1           0      -13.975660    0.498259    2.123100
     45          1           0       14.046499   -2.560599   -0.742883
     46          1           0       12.514190   -1.970290   -1.586217
     47          1           0      -14.269618    2.657828    0.758827
     48          1           0      -13.816182    1.305644   -0.785063
     49          1           0       12.928033   -2.380943    1.419578
     50          1           0       11.854782   -3.378007    0.342634
     51          1           0      -12.043452    3.400077    0.154033
     52          1           0      -12.458832    3.114807   -1.445041
     53          1           0       11.147642   -0.327254   -2.474464
     54          1           0       12.516894    1.011493   -2.672318
     55          1           0       10.773347    1.326731   -2.203895
     56          1           0       12.781290    1.883123    0.968956
     57          1           0       11.977702    2.698183   -0.516952
     58          1           0       13.687897    2.276936   -0.519376
     59          1           0      -13.057009   -0.925901   -0.825465
     60          1           0      -13.597567   -1.742827    0.673613
     61          1           0      -12.121563   -2.129593   -0.173379
     62          1           0      -10.929351   -0.132303    2.525279
     63          1           0      -11.195342   -1.764622    1.819044
     64          1           0      -12.360700   -1.190994    2.956986
     65          1           0       10.272431    1.794762    0.803290
     66          1           0      -10.072675   -1.613423   -0.479537
     67          1           0        9.594302   -1.274136    2.059555
     68          1           0       10.462193   -2.102412    2.816716
     69          1           0        9.490952   -2.843970    1.401727
     70          1           0       -9.543677    1.200383   -2.195044
     71          1           0       -9.385106    2.660309   -1.443329
     72          1           0      -10.781926    2.466087   -2.521338
     73          1           0        8.513393   -0.528202    0.177388
     74          1           0       -8.294107    0.828896    0.023005
     75          1           0        8.279617    3.117387    1.772570
     76          1           0        6.842353    3.389162    0.778186
     77          1           0        8.123690    3.329082    0.000589
     78          1           0       -8.856512   -2.495297   -1.530915
     79          1           0       -8.380101   -3.281022    0.255796
     80          1           0       -6.914462   -3.065113   -0.861466
     81          1           0        6.196125   -0.125276   -0.092926
     82          1           0       -6.027339    0.286527   -0.127872
     83          1           0        4.861272    2.540976    0.574475
     84          1           0       -4.940109   -2.618641   -0.441692
     85          1           0        3.800977   -0.114055   -0.405452
     86          1           0       -3.561117    0.104692   -0.525948
     87          1           0        2.908002    3.146707    1.191790
     88          1           0        1.226727    3.308673    0.404849
     89          1           0        2.660352    3.538948   -0.322892
     90          1           0       -3.018677   -3.688453   -1.487551
     91          1           0       -2.899837   -3.693785    0.319465
     92          1           0       -1.562276   -3.725443   -0.657187
     93          1           0        0.183090    1.212646   -0.351180
     94          1           0       -1.313866    0.257258   -0.252744
     95          1           0        2.009875   -1.128526   -0.482123
     96          1           0        0.029876   -2.516759   -0.465031
 ---------------------------------------------------------------------

 SCF Done:  E(RB3LYP) =  -1557.56330086     A.U. after   14 cycles

 Excitation energies and oscillator strengths:

 Excited State   1:      Singlet-A      2.5105 eV  493.86 nm  f=2.6820  <S**2>=0.000
     148 ->149         0.70640
 This state for optimization and/or second-order correction.
 Total Energy, E(TD-HF/TD-DFT) =  -1557.47104060
 Copying the excited state density for this state as the 1-particle RhoCI density.

 The electronic state is 1-A.
 Alpha  occ. eigenvalues --  -10.21137 -10.21036 -10.20505 -10.20356 -10.20151
 Alpha  occ. eigenvalues --  -10.20018 -10.19942 -10.19840 -10.19709 -10.19708
 Alpha  occ. eigenvalues --  -10.19705 -10.19635 -10.19512 -10.19236 -10.19210
 Alpha  occ. eigenvalues --  -10.19200 -10.19128 -10.18954 -10.18681 -10.18601
 Alpha  occ. eigenvalues --  -10.18587 -10.18554 -10.18527 -10.18502 -10.18453
 Alpha  occ. eigenvalues --  -10.18440 -10.18261 -10.18226 -10.18201 -10.18014
 Alpha  occ. eigenvalues --  -10.17985 -10.17850 -10.17805 -10.17710 -10.17580
 Alpha  occ. eigenvalues --  -10.17453 -10.16921 -10.16587 -10.16352 -10.16156
 Alpha  occ. eigenvalues --   -0.84865  -0.84456  -0.83854  -0.83172  -0.81830
 Alpha  occ. eigenvalues --   -0.81063  -0.79159  -0.78150  -0.77569  -0.77309
 Alpha  occ. eigenvalues --   -0.76424  -0.75154  -0.74379  -0.72644  -0.71743
 Alpha  occ. eigenvalues --   -0.70407  -0.70096  -0.68507  -0.68301  -0.67943
 Alpha  occ. eigenvalues --   -0.67533  -0.67418  -0.66753  -0.66576  -0.66328
 Alpha  occ. eigenvalues --   -0.63063  -0.61677  -0.59230  -0.58510  -0.57111
 Alpha  occ. eigenvalues --   -0.56635  -0.56062  -0.55605  -0.54662  -0.53777
 Alpha  occ. eigenvalues --   -0.53267  -0.51625  -0.50676  -0.50180  -0.48830
 Alpha  occ. eigenvalues --   -0.48633  -0.47882  -0.47472  -0.46386  -0.46259
 Alpha  occ. eigenvalues --   -0.45599  -0.45142  -0.44838  -0.44151  -0.43865
 Alpha  occ. eigenvalues --   -0.43685  -0.43224  -0.42777  -0.42647  -0.42454
 Alpha  occ. eigenvalues --   -0.42162  -0.41677  -0.41522  -0.41280  -0.40773
 Alpha  occ. eigenvalues --   -0.40653  -0.40065  -0.39990  -0.39945  -0.39867
 Alpha  occ. eigenvalues --   -0.39255  -0.38986  -0.38930  -0.38471  -0.38179
 Alpha  occ. eigenvalues --   -0.37922  -0.37714  -0.37090  -0.36955  -0.36889
 Alpha  occ. eigenvalues --   -0.36642  -0.36434  -0.35663  -0.35412  -0.35131
 Alpha  occ. eigenvalues --   -0.35024  -0.34893  -0.34800  -0.34385  -0.34309
 Alpha  occ. eigenvalues --   -0.34010  -0.33751  -0.33042  -0.32981  -0.32457
 Alpha  occ. eigenvalues --   -0.32277  -0.32005  -0.31285  -0.30707  -0.30354
 Alpha  occ. eigenvalues --   -0.29952  -0.29593  -0.29560  -0.29145  -0.28356
 Alpha  occ. eigenvalues --   -0.27488  -0.26673  -0.26096  -0.24264  -0.23169
 Alpha  occ. eigenvalues --   -0.21574  -0.19380  -0.17376
 Alpha virt. eigenvalues --   -0.07454  -0.04921  -0.01590   0.00775   0.02703
 Alpha virt. eigenvalues --    0.03565   0.05686   0.06340   0.06989   0.07339
 Alpha virt. eigenvalues --    0.07701   0.07891   0.09182   0.09307   0.09490

 Mulliken charges:
               1
     1  C   -0.020145
     2  C   -0.020613
     3  C   -0.161069
     4  C   -0.150919
     5  C   -0.177683
     6  C   -0.178938
     7  C    0.058067
     8  C    0.074108
     9  C   -0.191210
    10  C   -0.214998
    11  C    0.021220
    12  C    0.038429
    13  C   -0.297762
    14  C   -0.322306
    15  C   -0.302854
    16  C   -0.270446
    17  C   -0.138651
    18  C   -0.135466
    19  C   -0.371088
    20  C   -0.359844
    21  C   -0.089789
    22  C   -0.071102
    23  C    0.109968
    24  C    0.087113
    25  C   -0.345829
    26  C   -0.353432
    27  C   -0.115516
    28  C   -0.132386
    29  C   -0.089468
    30  C   -0.097370
    31  C   -0.107277
    32  C   -0.091839
    33  C    0.085390
    34  C    0.153746
    35  C   -0.369504
    36  C   -0.399503
    37  C   -0.128886
    38  C   -0.126779
    39  C   -0.067946
    40  C   -0.068443
    41  H    0.065558
    42  H    0.088070
    43  H    0.093409
    44  H    0.045508
    45  H    0.079514
    46  H    0.098361
    47  H    0.077560
    48  H    0.079435
    49  H    0.104952
    50  H    0.085962
    51  H    0.108227
    52  H    0.086981
    53  H    0.094400
    54  H    0.093544
    55  H    0.103156
    56  H    0.123752
    57  H    0.092938
    58  H    0.094764
    59  H    0.106380
    60  H    0.103434
    61  H    0.080928
    62  H    0.112240
    63  H    0.101500
    64  H    0.080644
    65  H    0.081951
    66  H    0.083266
    67  H    0.120941
    68  H    0.112126
    69  H    0.117854
    70  H    0.120803
    71  H    0.126469
    72  H    0.099347
    73  H    0.086711
    74  H    0.073780
    75  H    0.127859
    76  H    0.110791
    77  H    0.112566
    78  H    0.102005
    79  H    0.121097
    80  H    0.112388
    81  H    0.074522
    82  H    0.079386
    83  H    0.077183
    84  H    0.080302
    85  H    0.091181
    86  H    0.071512
    87  H    0.107929
    88  H    0.110962
    89  H    0.131225
    90  H    0.099664
    91  H    0.114645
    92  H    0.123615
    93  H    0.074412
    94  H    0.051940
    95  H    0.070787
    96  H    0.070584
 Sum of Mulliken charges =  -0.00000

 Dipole moment (field-independent basis, Debye):
    X=              1.6578    Y=              0.7513    Z=             -0.2208  Tot=              1.8334
 Quadrupole moment (field-independent basis, Debye-Ang):
   XX=           -243.4681   YY=           -231.7780   ZZ=           -255.2416
   XY=              8.2149   XZ=              1.8130   YZ=              0.8361

 Normal termination of Gaussian 16 at Tue Jul 30 09:26:19 2019.
