 Gaussian 16, Revision A.03,
 Gaussian 16:  ES64L-G16RevA.03 25-Dec-2016

 ---------------------------------
 # td=(NStates=1) B3LYP/6-31G(d,p)
 ---------------------------------

 --
 TD
 --
 Symbolic Z-matrix:
 Charge =  0 Multiplicity = 1

                         Standard orientation:
 ---------------------------------------------------------------------
 Center     Atomic      Atomic             Coordinates (Angstroms)
 Number     Number       Type             X           Y           Z
 ---------------------------------------------------------------------
      1          6           0      -12.058341   -0.533057   -0.624726
      2          6           0       12.065917    0.028399    0.866061
      3          6           0      -13.371342    0.551167   -0.644596
      4          6           0       12.982009   -1.136182    1.217219
      5          6           0      -13.010698    2.040280   -0.628146
      6          6           0       13.332064   -1.962888    0.015215
      7          6           0      -11.021445    0.000615    0.316558
      8          6           0       10.985041   -0.408410   -0.130972
      9          6           0      -12.141595    2.293725    0.667004
     10          6           0       12.002294   -2.531461   -0.587411
     11          6           0      -11.135771    1.216450    0.895452
     12          6           0       10.947567   -1.597977   -0.781804
     13          6           0      -11.658593   -0.588501   -2.118944
     14          6           0      -12.588863   -1.895819   -0.283319
     15          6           0       12.981892    1.119355    0.372913
     16          6           0       11.415938    0.552513    2.147916
     17          6           0       -9.873380   -0.894235    0.369815
     18          6           0        9.907767    0.611598   -0.302988
     19          6           0      -10.084705    1.672671    1.798970
     20          6           0       10.009867   -2.072843   -1.844720
     21          6           0       -8.554073   -0.535967    0.281596
     22          6           0        8.571362    0.400027   -0.183863
     23          6           0       -7.441620   -1.414281    0.428709
     24          6           0        7.529485    1.376331   -0.322013
     25          6           0       -7.646973   -2.789485    0.978321
     26          6           0        7.872101    2.749652   -0.609546
     27          6           0       -6.237783   -0.879871    0.190758
     28          6           0        6.256671    0.866152   -0.311299
     29          6           0       -4.915865   -1.557507    0.260674
     30          6           0        5.037536    1.640973   -0.516506
     31          6           0       -3.717152   -0.788232    0.251368
     32          6           0        3.805194    1.135507   -0.284078
     33          6           0       -2.350949   -1.377264    0.128966
     34          6           0        2.545777    1.776125   -0.357719
     35          6           0       -2.340072   -2.890328    0.365513
     36          6           0        2.584545    3.268979   -0.748405
     37          6           0       -1.284221   -0.663180    0.041231
     38          6           0        1.434319    1.022309   -0.265354
     39          6           0       -1.083810    0.739828   -0.051921
     40          6           0        0.063860    1.601628   -0.201145
     41          1           0      -13.824394    0.239375    0.255217
     42          1           0      -13.920490    0.474866   -1.613764
     43          1           0       12.627745   -1.735953    2.022510
     44          1           0       13.951437   -0.598575    1.618299
     45          1           0      -13.884183    2.682074   -0.674978
     46          1           0      -12.327520    2.175027   -1.390195
     47          1           0       13.964172   -2.599600    0.507493
     48          1           0       13.823165   -1.485372   -0.714960
     49          1           0      -12.794570    2.250830    1.595058
     50          1           0      -11.659930    3.271498    0.562968
     51          1           0       11.750756   -3.341390    0.012601
     52          1           0       12.430199   -2.779115   -1.502861
     53          1           0      -11.376571    0.412504   -2.699381
     54          1           0      -12.359030   -1.019689   -2.632130
     55          1           0      -10.723296   -1.129308   -2.240649
     56          1           0      -12.851303   -1.928533    0.896663
     57          1           0      -11.751626   -2.625387   -0.453670
     58          1           0      -13.523695   -2.085175   -0.928650
     59          1           0       13.469094    0.861211   -0.593725
     60          1           0       13.875282    1.501850    1.040413
     61          1           0       12.405791    1.936607    0.341267
     62          1           0       10.829087   -0.125319    2.633643
     63          1           0       10.577519    1.412824    2.288997
     64          1           0       12.203881    0.671927    2.956534
     65          1           0       -9.981020   -1.971042    0.494118
     66          1           0       10.367144    1.605869    0.139551
     67          1           0       -9.662107    0.701853    2.196155
     68          1           0      -10.469108    2.300358    2.522430
     69          1           0       -9.165518    2.360976    1.403443
     70          1           0        9.335492   -1.207874   -2.136100
     71          1           0        9.259544   -2.836865   -1.365534
     72          1           0       10.476412   -2.423925   -2.862672
     73          1           0       -8.346963    0.502799    0.155228
     74          1           0        8.185158   -0.579607    0.072414
     75          1           0       -8.003989   -2.831268    2.076522
     76          1           0       -6.704256   -3.336383    1.047248
     77          1           0       -8.491987   -3.428321    0.558997
     78          1           0        8.281209    2.871159   -1.629819
     79          1           0        8.499871    2.926462    0.356193
     80          1           0        7.101560    3.678118   -0.501180
     81          1           0       -6.296455    0.127817   -0.081943
     82          1           0        6.031771   -0.178535   -0.197622
     83          1           0       -4.908192   -2.651943    0.180887
     84          1           0        5.106236    2.594928   -0.867682
     85          1           0       -3.732390    0.161849    0.167391
     86          1           0        3.928352    0.082014   -0.006895
     87          1           0       -2.864645   -3.124101    1.174806
     88          1           0       -1.362781   -3.176868    0.329509
     89          1           0       -2.796973   -3.470257   -0.443033
     90          1           0        3.222029    3.647082   -1.538423
     91          1           0        3.063677    3.938946    0.061659
     92          1           0        1.565824    3.637158   -0.981189
     93          1           0       -0.465371   -1.320802    0.056456
     94          1           0        1.258194   -0.041188   -0.316626
     95          1           0       -1.980152    1.511358    0.114421
     96          1           0       -0.245819    2.612291   -0.234102
 ---------------------------------------------------------------------

 SCF Done:  E(RB3LYP) =  -1557.60000150     A.U. after   15 cycles

 Excitation energies and oscillator strengths:

 Excited State   1:      Singlet-A      2.2702 eV  546.14 nm  f=2.7646  <S**2>=0.000
     148 ->149         0.70284
 This state for optimization and/or second-order correction.
 Total Energy, E(TD-HF/TD-DFT) =  -1557.51657369
 Copying the excited state density for this state as the 1-particle RhoCI density.

 The electronic state is 1-A.
 Alpha  occ. eigenvalues --  -10.20506 -10.20290 -10.20255 -10.19739 -10.19711
 Alpha  occ. eigenvalues --  -10.19437 -10.19420 -10.19375 -10.19359 -10.19333
 Alpha  occ. eigenvalues --  -10.19279 -10.19253 -10.19252 -10.19129 -10.18991
 Alpha  occ. eigenvalues --  -10.18540 -10.18411 -10.18405 -10.18361 -10.18352
 Alpha  occ. eigenvalues --  -10.18342 -10.18256 -10.18191 -10.18169 -10.18077
 Alpha  occ. eigenvalues --  -10.17933 -10.17933 -10.17917 -10.17852 -10.17425
 Alpha  occ. eigenvalues --  -10.17212 -10.17190 -10.17071 -10.17036 -10.16916
 Alpha  occ. eigenvalues --  -10.16572 -10.16544 -10.16074 -10.15816 -10.15544
 Alpha  occ. eigenvalues --   -0.85723  -0.84910  -0.83869  -0.83520  -0.82756
 Alpha  occ. eigenvalues --   -0.82119  -0.79598  -0.78723  -0.78208  -0.77405
 Alpha  occ. eigenvalues --   -0.76802  -0.75345  -0.74229  -0.72273  -0.72075
 Alpha  occ. eigenvalues --   -0.70877  -0.69137  -0.68502  -0.68236  -0.68064
 Alpha  occ. eigenvalues --   -0.67798  -0.67105  -0.66977  -0.66720  -0.66115
 Alpha  occ. eigenvalues --   -0.62923  -0.62253  -0.60155  -0.59202  -0.57432
 Alpha  occ. eigenvalues --   -0.56808  -0.56353  -0.55343  -0.54809  -0.54142
 Alpha  occ. eigenvalues --   -0.53101  -0.52145  -0.51249  -0.49800  -0.49060
 Alpha  occ. eigenvalues --   -0.48804  -0.48065  -0.46958  -0.46661  -0.46627
 Alpha  occ. eigenvalues --   -0.46167  -0.45450  -0.45205  -0.44625  -0.44482
 Alpha  occ. eigenvalues --   -0.43960  -0.43856  -0.43545  -0.43034  -0.42728
 Alpha  occ. eigenvalues --   -0.41833  -0.41784  -0.41374  -0.41223  -0.40924
 Alpha  occ. eigenvalues --   -0.40542  -0.40352  -0.39831  -0.39620  -0.39580
 Alpha  occ. eigenvalues --   -0.39354  -0.39227  -0.39017  -0.38574  -0.38278
 Alpha  occ. eigenvalues --   -0.37976  -0.37575  -0.37311  -0.37215  -0.36945
 Alpha  occ. eigenvalues --   -0.36399  -0.36290  -0.36145  -0.36029  -0.35367
 Alpha  occ. eigenvalues --   -0.34973  -0.34651  -0.34323  -0.34116  -0.34071
 Alpha  occ. eigenvalues --   -0.33532  -0.33149  -0.32997  -0.32693  -0.32612
 Alpha  occ. eigenvalues --   -0.32248  -0.31917  -0.31787  -0.31411  -0.31129
 Alpha  occ. eigenvalues --   -0.30588  -0.29776  -0.29299  -0.28509  -0.27733
 Alpha  occ. eigenvalues --   -0.27671  -0.26993  -0.25932  -0.24223  -0.22888
 Alpha  occ. eigenvalues --   -0.20927  -0.18865  -0.16713
 Alpha virt. eigenvalues --   -0.07892  -0.05172  -0.02236   0.00488   0.02676
 Alpha virt. eigenvalues --    0.04373   0.05646   0.06767   0.07437   0.07837
 Alpha virt. eigenvalues --    0.08038   0.08330   0.08578   0.08929   0.09489

 Mulliken charges:
               1
     1  C   -0.027057
     2  C   -0.014433
     3  C   -0.184725
     4  C   -0.179092
     5  C   -0.184665
     6  C   -0.195390
     7  C    0.109160
     8  C    0.090648
     9  C   -0.235798
    10  C   -0.224687
    11  C    0.067122
    12  C    0.072519
    13  C   -0.287184
    14  C   -0.290814
    15  C   -0.277471
    16  C   -0.316075
    17  C   -0.160689
    18  C   -0.171884
    19  C   -0.360098
    20  C   -0.362198
    21  C   -0.093379
    22  C   -0.080927
    23  C    0.169823
    24  C    0.128572
    25  C   -0.388547
    26  C   -0.358546
    27  C   -0.132558
    28  C   -0.139913
    29  C   -0.109392
    30  C   -0.057899
    31  C   -0.076572
    32  C   -0.106725
    33  C    0.089576
    34  C    0.129060
    35  C   -0.367984
    36  C   -0.381265
    37  C   -0.095609
    38  C   -0.113487
    39  C   -0.117288
    40  C   -0.093595
    41  H    0.093141
    42  H    0.078754
    43  H    0.088664
    44  H    0.064163
    45  H    0.091386
    46  H    0.110623
    47  H    0.098017
    48  H    0.103662
    49  H    0.100808
    50  H    0.103750
    51  H    0.110262
    52  H    0.103740
    53  H    0.073399
    54  H    0.111398
    55  H    0.095387
    56  H    0.079563
    57  H    0.101071
    58  H    0.100022
    59  H    0.095128
    60  H    0.083592
    61  H    0.109380
    62  H    0.113420
    63  H    0.079414
    64  H    0.087420
    65  H    0.072672
    66  H    0.076008
    67  H    0.114344
    68  H    0.103842
    69  H    0.079346
    70  H    0.111835
    71  H    0.103167
    72  H    0.101474
    73  H    0.082639
    74  H    0.086620
    75  H    0.115995
    76  H    0.107572
    77  H    0.112165
    78  H    0.134551
    79  H    0.114678
    80  H    0.089156
    81  H    0.078843
    82  H    0.074354
    83  H    0.092800
    84  H    0.059444
    85  H    0.061460
    86  H    0.063325
    87  H    0.136157
    88  H    0.103124
    89  H    0.113478
    90  H    0.130996
    91  H    0.106681
    92  H    0.110044
    93  H    0.067753
    94  H    0.097496
    95  H    0.066303
    96  H    0.084982
 Sum of Mulliken charges =  -0.00000

 Dipole moment (field-independent basis, Debye):
    X=              0.1508    Y=             -0.2954    Z=              0.0180  Tot=              0.3321
 Quadrupole moment (field-independent basis, Debye-Ang):
   XX=           -236.7318   YY=           -232.6185   ZZ=           -253.5926
   XY=             -3.4877   XZ=              0.0582   YZ=             -3.1304

 Normal termination of Gaussian 16 at Mon Jul 29 10:30:53 2019.
