 Gaussian 16, Revision A.03,
 Gaussian 16:  ES64L-G16RevA.03 25-Dec-2016

 ---------------------------------
 # td=(NStates=1) B3LYP/6-31G(d,p)
 ---------------------------------

 --
 TD
 --
 Symbolic Z-matrix:
 Charge =  0 Multiplicity = 1

                         Standard orientation:
 ---------------------------------------------------------------------
 Center     Atomic      Atomic             Coordinates (Angstroms)
 Number     Number       Type             X           Y           Z
 ---------------------------------------------------------------------
      1          6           0      -12.179457   -0.433550   -0.749717
      2          6           0       12.095521    0.065261    0.896652
      3          6           0      -13.374644    0.471254   -0.746220
      4          6           0       12.973065   -1.138296    1.314246
      5          6           0      -12.942438    1.902469   -0.629960
      6          6           0       13.314844   -2.004694    0.145988
      7          6           0      -11.078275   -0.045347    0.243169
      8          6           0       10.970584   -0.385931   -0.147869
      9          6           0      -12.245959    2.214134    0.694602
     10          6           0       12.113172   -2.530060   -0.518390
     11          6           0      -11.128971    1.184973    0.909995
     12          6           0       11.084755   -1.518637   -0.896961
     13          6           0      -11.523905   -0.558672   -2.149688
     14          6           0      -12.553192   -1.886693   -0.395706
     15          6           0       13.012865    1.135217    0.267360
     16          6           0       11.485248    0.560751    2.170463
     17          6           0       -9.844330   -0.860325    0.346826
     18          6           0        9.930859    0.681149   -0.224094
     19          6           0      -10.106930    1.676291    1.954359
     20          6           0       10.161006   -1.995655   -1.948382
     21          6           0       -8.537460   -0.484020    0.366035
     22          6           0        8.547124    0.370945   -0.290050
     23          6           0       -7.403842   -1.393613    0.507773
     24          6           0        7.504349    1.321761   -0.295766
     25          6           0       -7.671130   -2.817495    0.772797
     26          6           0        7.878471    2.701633   -0.638231
     27          6           0       -6.210672   -0.824488    0.426634
     28          6           0        6.246842    0.876605   -0.296510
     29          6           0       -4.837085   -1.411680    0.395340
     30          6           0        5.001477    1.613570   -0.480192
     31          6           0       -3.641366   -0.814329    0.175369
     32          6           0        3.711939    1.101075   -0.232451
     33          6           0       -2.385401   -1.382088    0.252507
     34          6           0        2.474391    1.821372   -0.480954
     35          6           0       -2.293031   -2.840763    0.341384
     36          6           0        2.372031    3.412458   -0.679646
     37          6           0       -1.205355   -0.630183    0.125064
     38          6           0        1.312040    1.043717   -0.286206
     39          6           0       -1.085879    0.757367   -0.005031
     40          6           0       -0.076176    1.503052   -0.247933
     41          1           0      -14.216593    0.101339   -0.018564
     42          1           0      -13.980084    0.077868   -1.606909
     43          1           0       12.571343   -1.764616    1.970939
     44          1           0       13.742744   -0.647951    2.006610
     45          1           0      -13.736890    2.569566   -0.791495
     46          1           0      -12.308366    2.234313   -1.421019
     47          1           0       14.084207   -2.951138    0.148854
     48          1           0       13.788006   -1.344960   -0.446484
     49          1           0      -13.083702    2.169337    1.455314
     50          1           0      -11.913658    3.285977    0.812960
     51          1           0       11.725233   -3.377536    0.152578
     52          1           0       12.394860   -3.089294   -1.603207
     53          1           0      -11.265524    0.447067   -2.393121
     54          1           0      -12.227435   -0.912813   -2.815626
     55          1           0      -10.468700   -0.963217   -2.054380
     56          1           0      -13.032436   -1.949313    0.753086
     57          1           0      -11.573592   -2.611715   -0.306272
     58          1           0      -13.453993   -2.303934   -0.960491
     59          1           0       13.589339    0.746154   -0.472393
     60          1           0       13.611538    1.539028    1.140154
     61          1           0       12.602571    2.029434   -0.152099
     62          1           0       11.164092   -0.441707    2.741260
     63          1           0       10.919206    1.407759    2.007861
     64          1           0       12.366086    0.877544    2.533962
     65          1           0       -9.970656   -2.027206    0.459523
     66          1           0       10.153005    1.750729   -0.089900
     67          1           0       -9.540712    0.739774    2.365823
     68          1           0      -10.647330    2.148105    2.759001
     69          1           0       -9.453430    2.227507    1.467544
     70          1           0        9.369028   -1.179654   -2.137939
     71          1           0        9.659836   -2.937647   -1.683868
     72          1           0       10.481090   -2.282475   -2.884721
     73          1           0       -8.501998    0.517755    0.016279
     74          1           0        8.165303   -0.620819   -0.079023
     75          1           0       -8.107040   -3.038404    1.770378
     76          1           0       -6.752819   -3.417361    0.973050
     77          1           0       -8.167206   -3.447669   -0.035065
     78          1           0        8.576231    2.736110   -1.637155
     79          1           0        8.365552    3.307383    0.337573
     80          1           0        6.812631    3.147083   -1.014629
     81          1           0       -6.217617    0.363689    0.214216
     82          1           0        6.105147   -0.103515   -0.036455
     83          1           0       -4.762812   -2.579191    0.417165
     84          1           0        4.863777    2.703048   -0.826164
     85          1           0       -3.739122    0.310234    0.117131
     86          1           0        3.634320    0.096590    0.044090
     87          1           0       -2.652448   -3.068006    1.386365
     88          1           0       -1.423126   -3.595467    0.433844
     89          1           0       -3.044341   -3.456614   -0.498448
     90          1           0        2.889462    3.698969   -1.689436
     91          1           0        2.854608    3.929056    0.154320
     92          1           0        1.349124    3.680488   -0.773048
     93          1           0       -0.271785   -1.359745    0.214023
     94          1           0        1.571817   -0.043128    0.165557
     95          1           0       -1.972780    1.262596   -0.007389
     96          1           0       -0.114475    2.659365   -0.383789
 ---------------------------------------------------------------------

 SCF Done:  E(RB3LYP) =  -1557.56390373     A.U. after   15 cycles

 Excitation energies and oscillator strengths:

 Excited State   1:      Singlet-A      2.2047 eV  562.37 nm  f=2.8838  <S**2>=0.000
     148 ->149         0.70481
 This state for optimization and/or second-order correction.
 Total Energy, E(TD-HF/TD-DFT) =  -1557.48288306
 Copying the excited state density for this state as the 1-particle RhoCI density.

 The electronic state is 1-A.
 Alpha  occ. eigenvalues --  -10.21100 -10.20931 -10.20547 -10.20400 -10.20240
 Alpha  occ. eigenvalues --  -10.20123 -10.20025 -10.19968 -10.19960 -10.19848
 Alpha  occ. eigenvalues --  -10.19836 -10.19653 -10.19497 -10.19451 -10.19430
 Alpha  occ. eigenvalues --  -10.19313 -10.19224 -10.19173 -10.19119 -10.19097
 Alpha  occ. eigenvalues --  -10.19091 -10.18958 -10.18893 -10.18807 -10.18728
 Alpha  occ. eigenvalues --  -10.18693 -10.18579 -10.18510 -10.18241 -10.18213
 Alpha  occ. eigenvalues --  -10.18137 -10.17386 -10.17295 -10.17210 -10.16845
 Alpha  occ. eigenvalues --  -10.16807 -10.16800 -10.16727 -10.16082 -10.16040
 Alpha  occ. eigenvalues --   -0.85435  -0.85012  -0.84352  -0.83438  -0.82882
 Alpha  occ. eigenvalues --   -0.81609  -0.79551  -0.79405  -0.78168  -0.77451
 Alpha  occ. eigenvalues --   -0.77197  -0.74884  -0.74148  -0.72280  -0.71775
 Alpha  occ. eigenvalues --   -0.69505  -0.69371  -0.69048  -0.68361  -0.67878
 Alpha  occ. eigenvalues --   -0.67649  -0.67578  -0.66957  -0.66291  -0.65740
 Alpha  occ. eigenvalues --   -0.62766  -0.61931  -0.60263  -0.59294  -0.57070
 Alpha  occ. eigenvalues --   -0.55970  -0.55665  -0.55111  -0.53761  -0.52948
 Alpha  occ. eigenvalues --   -0.52365  -0.51459  -0.50564  -0.50312  -0.49128
 Alpha  occ. eigenvalues --   -0.48634  -0.47966  -0.47380  -0.46820  -0.46120
 Alpha  occ. eigenvalues --   -0.45563  -0.45450  -0.44736  -0.44418  -0.44240
 Alpha  occ. eigenvalues --   -0.43683  -0.43269  -0.42756  -0.42626  -0.42237
 Alpha  occ. eigenvalues --   -0.42215  -0.41945  -0.41539  -0.41088  -0.41000
 Alpha  occ. eigenvalues --   -0.40755  -0.40576  -0.40403  -0.40087  -0.39602
 Alpha  occ. eigenvalues --   -0.39036  -0.38817  -0.38614  -0.38272  -0.38038
 Alpha  occ. eigenvalues --   -0.37833  -0.37172  -0.36771  -0.36468  -0.36452
 Alpha  occ. eigenvalues --   -0.36187  -0.36022  -0.35238  -0.35132  -0.34834
 Alpha  occ. eigenvalues --   -0.34675  -0.34194  -0.34141  -0.33853  -0.33746
 Alpha  occ. eigenvalues --   -0.33734  -0.33680  -0.33102  -0.32531  -0.32211
 Alpha  occ. eigenvalues --   -0.32033  -0.31854  -0.31358  -0.31322  -0.31131
 Alpha  occ. eigenvalues --   -0.30487  -0.29867  -0.29530  -0.29323  -0.28758
 Alpha  occ. eigenvalues --   -0.28365  -0.27640  -0.25987  -0.24600  -0.22614
 Alpha  occ. eigenvalues --   -0.20953  -0.18946  -0.16638
 Alpha virt. eigenvalues --   -0.08186  -0.05328  -0.01975   0.00198   0.02757
 Alpha virt. eigenvalues --    0.03960   0.06318   0.06604   0.06890   0.06995
 Alpha virt. eigenvalues --    0.07467   0.07829   0.08230   0.08924   0.08972

 Mulliken charges:
               1
     1  C    0.010765
     2  C   -0.054427
     3  C   -0.172515
     4  C   -0.171492
     5  C   -0.195157
     6  C   -0.180502
     7  C    0.093303
     8  C    0.082561
     9  C   -0.220309
    10  C   -0.201692
    11  C    0.025335
    12  C    0.085266
    13  C   -0.290213
    14  C   -0.285356
    15  C   -0.299527
    16  C   -0.261613
    17  C   -0.155556
    18  C   -0.158557
    19  C   -0.355436
    20  C   -0.376953
    21  C   -0.093022
    22  C   -0.100490
    23  C    0.166457
    24  C    0.165812
    25  C   -0.399926
    26  C   -0.362199
    27  C   -0.136122
    28  C   -0.125085
    29  C   -0.101398
    30  C   -0.098529
    31  C   -0.099341
    32  C   -0.109899
    33  C    0.143224
    34  C    0.094174
    35  C   -0.383081
    36  C   -0.367211
    37  C   -0.119288
    38  C   -0.116637
    39  C   -0.048494
    40  C   -0.104397
    41  H    0.080685
    42  H    0.084996
    43  H    0.099336
    44  H    0.073107
    45  H    0.087760
    46  H    0.107249
    47  H    0.062194
    48  H    0.110324
    49  H    0.103211
    50  H    0.095748
    51  H    0.096336
    52  H    0.056605
    53  H    0.098084
    54  H    0.103467
    55  H    0.106419
    56  H    0.059693
    57  H    0.086502
    58  H    0.087927
    59  H    0.119641
    60  H    0.085646
    61  H    0.104544
    62  H    0.091961
    63  H    0.100040
    64  H    0.098288
    65  H    0.068869
    66  H    0.093540
    67  H    0.107267
    68  H    0.106417
    69  H    0.131283
    70  H    0.104352
    71  H    0.107620
    72  H    0.117649
    73  H    0.082570
    74  H    0.081289
    75  H    0.128745
    76  H    0.108364
    77  H    0.121627
    78  H    0.106193
    79  H    0.095435
    80  H    0.090175
    81  H    0.065177
    82  H    0.075798
    83  H    0.072559
    84  H    0.077118
    85  H    0.077557
    86  H    0.075925
    87  H    0.121113
    88  H    0.111909
    89  H    0.086302
    90  H    0.109428
    91  H    0.135502
    92  H    0.119121
    93  H    0.073504
    94  H    0.072750
    95  H    0.076729
    96  H    0.075876
 Sum of Mulliken charges =  -0.00000

 Dipole moment (field-independent basis, Debye):
    X=             -0.6437    Y=              0.5527    Z=              0.2742  Tot=              0.8916
 Quadrupole moment (field-independent basis, Debye-Ang):
   XX=           -234.6965   YY=           -232.4987   ZZ=           -256.1208
   XY=             -3.7867   XZ=              3.5285   YZ=             -2.4183

 Normal termination of Gaussian 16 at Mon Jul 29 16:49:30 2019.
