 Gaussian 16, Revision A.03,
 Gaussian 16:  ES64L-G16RevA.03 25-Dec-2016

 ---------------------------------
 # td=(NStates=1) B3LYP/6-31G(d,p)
 ---------------------------------

 --
 TD
 --
 Symbolic Z-matrix:
 Charge =  0 Multiplicity = 1

                         Standard orientation:
 ---------------------------------------------------------------------
 Center     Atomic      Atomic             Coordinates (Angstroms)
 Number     Number       Type             X           Y           Z
 ---------------------------------------------------------------------
      1          6           0      -12.222138   -0.613801   -0.637685
      2          6           0       12.195942    0.083382    0.753807
      3          6           0      -13.345355    0.387542   -0.644351
      4          6           0       13.148096   -1.068028    1.196229
      5          6           0      -13.129887    1.968129   -0.786987
      6          6           0       13.452781   -1.970053   -0.060733
      7          6           0      -11.114671    0.050337    0.215119
      8          6           0       11.067735   -0.343708   -0.260797
      9          6           0      -12.227928    2.358396    0.456924
     10          6           0       12.065377   -2.615845   -0.492463
     11          6           0      -11.136567    1.311215    0.751967
     12          6           0       11.006238   -1.638916   -0.792346
     13          6           0      -11.613838   -0.672317   -2.096042
     14          6           0      -12.497375   -2.023036   -0.147540
     15          6           0       13.126847    1.206966    0.157072
     16          6           0       11.524181    0.655646    1.979605
     17          6           0       -9.892031   -0.869998    0.387068
     18          6           0        9.848128    0.594319   -0.201164
     19          6           0      -10.105114    1.835552    1.748201
     20          6           0       10.046327   -2.078159   -1.713912
     21          6           0       -8.647297   -0.453011    0.266236
     22          6           0        8.569226    0.317155   -0.185275
     23          6           0       -7.498865   -1.406433    0.427839
     24          6           0        7.586195    1.325873   -0.275822
     25          6           0       -7.682850   -2.726529    0.903828
     26          6           0        7.936475    2.785277   -0.319916
     27          6           0       -6.257815   -0.776947    0.307142
     28          6           0        6.242862    0.869869   -0.426060
     29          6           0       -4.925210   -1.410663    0.331105
     30          6           0        4.960512    1.601343   -0.344815
     31          6           0       -3.721265   -0.844404    0.032665
     32          6           0        3.783948    0.980394   -0.477604
     33          6           0       -2.461741   -1.367676    0.218592
     34          6           0        2.525188    1.787814   -0.410350
     35          6           0       -2.319495   -2.801453    0.806115
     36          6           0        2.456998    3.299220   -0.369030
     37          6           0       -1.236729   -0.636723    0.176909
     38          6           0        1.439079    0.987206   -0.263926
     39          6           0       -1.143294    0.779618   -0.185880
     40          6           0        0.046899    1.483894   -0.366487
     41          1           0      -13.914628    0.157619    0.409511
     42          1           0      -14.200083   -0.114949   -1.422967
     43          1           0       12.804662   -1.827072    1.944294
     44          1           0       14.100549   -0.661370    1.398633
     45          1           0      -13.950440    2.531365   -0.742380
     46          1           0      -12.663479    2.194561   -1.693259
     47          1           0       14.090271   -2.916009    0.224776
     48          1           0       13.938459   -1.315798   -0.877272
     49          1           0      -13.002283    2.478261    1.333007
     50          1           0      -11.584585    3.366704    0.363121
     51          1           0       11.793595   -3.432442    0.289391
     52          1           0       12.142084   -3.207010   -1.309167
     53          1           0      -11.286117    0.303817   -2.413250
     54          1           0      -12.407275   -1.156342   -2.797543
     55          1           0      -10.878998   -1.469746   -2.077303
     56          1           0      -12.661457   -2.126681    1.038110
     57          1           0      -11.860479   -2.632080   -0.575676
     58          1           0      -13.420768   -2.141003   -0.702350
     59          1           0       13.709064    0.856568   -0.868853
     60          1           0       13.851738    1.562080    0.769341
     61          1           0       12.557604    2.129654   -0.193515
     62          1           0       10.929195    0.032890    2.763032
     63          1           0       11.133488    1.420709    1.762922
     64          1           0       12.347549    0.966717    2.707617
     65          1           0      -10.035153   -1.900656    0.745786
     66          1           0       10.353998    1.481675   -0.105943
     67          1           0       -9.415952    0.918545    1.987187
     68          1           0      -10.645559    2.325620    2.690109
     69          1           0       -9.438227    2.621840    1.384769
     70          1           0        9.293195   -1.218969   -2.079843
     71          1           0        9.335382   -2.895983   -1.302252
     72          1           0       10.319675   -2.547490   -2.797049
     73          1           0       -8.462268    0.451219   -0.415197
     74          1           0        8.061093   -0.644104   -0.081676
     75          1           0       -7.949509   -2.707906    2.014497
     76          1           0       -6.750368   -3.356393    1.120064
     77          1           0       -8.601089   -3.286954    0.217857
     78          1           0        8.641242    2.926074   -1.426061
     79          1           0        8.506893    3.129334    0.593914
     80          1           0        7.203596    3.511760   -0.316568
     81          1           0       -6.012027    0.314245    0.168852
     82          1           0        6.033160   -0.213168   -0.317419
     83          1           0       -4.852135   -2.618446    0.686048
     84          1           0        4.874742    2.573226   -0.143084
     85          1           0       -4.200260    0.252572   -0.371064
     86          1           0        3.884180   -0.090135   -0.346041
     87          1           0       -2.663039   -2.689787    1.869757
     88          1           0       -1.333377   -3.365114    0.625027
     89          1           0       -3.181435   -3.522251    0.434217
     90          1           0        3.212614    3.613605   -1.312177
     91          1           0        2.880114    3.697472    0.439313
     92          1           0        1.522729    3.643425   -0.360834
     93          1           0       -0.476156   -1.316687    0.384838
     94          1           0        1.565574   -0.128661   -0.447549
     95          1           0       -2.168201    1.295349   -0.251535
     96          1           0       -0.168504    2.637618   -0.561585
 ---------------------------------------------------------------------

 SCF Done:  E(RB3LYP) =  -1557.46894213     A.U. after   15 cycles

 Excitation energies and oscillator strengths:

 Excited State   1:      Singlet-A      2.2344 eV  554.88 nm  f=2.7889  <S**2>=0.000
     148 ->149         0.70349
 This state for optimization and/or second-order correction.
 Total Energy, E(TD-HF/TD-DFT) =  -1557.38682773
 Copying the excited state density for this state as the 1-particle RhoCI density.

 The electronic state is 1-A.
 Alpha  occ. eigenvalues --  -10.20920 -10.20690 -10.20662 -10.20470 -10.20470
 Alpha  occ. eigenvalues --  -10.20462 -10.20344 -10.20191 -10.20152 -10.20114
 Alpha  occ. eigenvalues --  -10.20050 -10.19916 -10.19912 -10.19898 -10.19860
 Alpha  occ. eigenvalues --  -10.19788 -10.19335 -10.19236 -10.19218 -10.19186
 Alpha  occ. eigenvalues --  -10.19121 -10.18884 -10.18734 -10.18730 -10.18687
 Alpha  occ. eigenvalues --  -10.18660 -10.18562 -10.18496 -10.18467 -10.18441
 Alpha  occ. eigenvalues --  -10.18347 -10.18124 -10.17956 -10.17749 -10.17669
 Alpha  occ. eigenvalues --  -10.17647 -10.17638 -10.17452 -10.17313 -10.15778
 Alpha  occ. eigenvalues --   -0.84560  -0.84512  -0.83250  -0.82978  -0.81983
 Alpha  occ. eigenvalues --   -0.81646  -0.79376  -0.78317  -0.78130  -0.76965
 Alpha  occ. eigenvalues --   -0.75925  -0.74989  -0.73791  -0.72223  -0.72121
 Alpha  occ. eigenvalues --   -0.70216  -0.68670  -0.68657  -0.68340  -0.67883
 Alpha  occ. eigenvalues --   -0.67186  -0.66822  -0.66793  -0.65657  -0.65317
 Alpha  occ. eigenvalues --   -0.62358  -0.61461  -0.59911  -0.58546  -0.57104
 Alpha  occ. eigenvalues --   -0.55945  -0.55573  -0.55029  -0.54125  -0.53129
 Alpha  occ. eigenvalues --   -0.51925  -0.51319  -0.50579  -0.49763  -0.48298
 Alpha  occ. eigenvalues --   -0.47971  -0.47384  -0.46646  -0.46473  -0.45984
 Alpha  occ. eigenvalues --   -0.45435  -0.45100  -0.44530  -0.44429  -0.43769
 Alpha  occ. eigenvalues --   -0.43408  -0.43136  -0.42885  -0.42046  -0.42012
 Alpha  occ. eigenvalues --   -0.41639  -0.41626  -0.41353  -0.41092  -0.40709
 Alpha  occ. eigenvalues --   -0.40619  -0.40277  -0.39837  -0.39609  -0.39476
 Alpha  occ. eigenvalues --   -0.38978  -0.38597  -0.38380  -0.38185  -0.37922
 Alpha  occ. eigenvalues --   -0.37339  -0.37241  -0.36913  -0.36563  -0.36129
 Alpha  occ. eigenvalues --   -0.36013  -0.35794  -0.35468  -0.35233  -0.34888
 Alpha  occ. eigenvalues --   -0.34756  -0.34644  -0.34376  -0.34243  -0.34054
 Alpha  occ. eigenvalues --   -0.33859  -0.33242  -0.32950  -0.32851  -0.32152
 Alpha  occ. eigenvalues --   -0.32132  -0.31512  -0.31292  -0.31124  -0.30583
 Alpha  occ. eigenvalues --   -0.30018  -0.29485  -0.29422  -0.29078  -0.28890
 Alpha  occ. eigenvalues --   -0.28330  -0.27273  -0.25887  -0.23697  -0.22277
 Alpha  occ. eigenvalues --   -0.21059  -0.18713  -0.16445
 Alpha virt. eigenvalues --   -0.07840  -0.05176  -0.01847   0.00305   0.01955
 Alpha virt. eigenvalues --    0.03635   0.05051   0.05600   0.06534   0.06939
 Alpha virt. eigenvalues --    0.07032   0.07421   0.07855   0.07998   0.08678

 Mulliken charges:
               1
     1  C   -0.004924
     2  C   -0.015731
     3  C   -0.165950
     4  C   -0.161250
     5  C   -0.180268
     6  C   -0.198267
     7  C    0.068456
     8  C    0.042520
     9  C   -0.220720
    10  C   -0.221126
    11  C    0.067866
    12  C    0.129151
    13  C   -0.292494
    14  C   -0.290949
    15  C   -0.313307
    16  C   -0.251388
    17  C   -0.147688
    18  C   -0.125787
    19  C   -0.356802
    20  C   -0.388820
    21  C   -0.084508
    22  C   -0.078314
    23  C    0.130828
    24  C    0.138212
    25  C   -0.375983
    26  C   -0.348503
    27  C   -0.134717
    28  C   -0.164816
    29  C   -0.068856
    30  C   -0.055113
    31  C   -0.084838
    32  C   -0.108037
    33  C    0.059591
    34  C    0.108700
    35  C   -0.373321
    36  C   -0.345694
    37  C   -0.075649
    38  C   -0.125695
    39  C   -0.103673
    40  C   -0.104509
    41  H    0.062948
    42  H    0.040114
    43  H    0.092445
    44  H    0.098385
    45  H    0.110898
    46  H    0.109374
    47  H    0.070810
    48  H    0.091158
    49  H    0.094786
    50  H    0.081659
    51  H    0.086914
    52  H    0.102433
    53  H    0.114232
    54  H    0.077637
    55  H    0.105471
    56  H    0.097806
    57  H    0.116030
    58  H    0.103823
    59  H    0.080025
    60  H    0.121239
    61  H    0.092006
    62  H    0.094951
    63  H    0.095637
    64  H    0.071371
    65  H    0.088013
    66  H    0.087528
    67  H    0.110055
    68  H    0.086945
    69  H    0.110560
    70  H    0.104400
    71  H    0.100860
    72  H    0.089975
    73  H    0.094878
    74  H    0.091242
    75  H    0.129257
    76  H    0.116305
    77  H    0.088193
    78  H    0.076316
    79  H    0.110987
    80  H    0.118764
    81  H    0.078098
    82  H    0.066939
    83  H    0.035164
    84  H    0.063664
    85  H    0.060158
    86  H    0.082355
    87  H    0.133122
    88  H    0.110320
    89  H    0.099392
    90  H    0.093983
    91  H    0.140504
    92  H    0.117886
    93  H    0.071084
    94  H    0.090747
    95  H    0.091894
    96  H    0.070632
 Sum of Mulliken charges =  -0.00000

 Dipole moment (field-independent basis, Debye):
    X=             -0.0529    Y=              0.1530    Z=              1.0048  Tot=              1.0178
 Quadrupole moment (field-independent basis, Debye-Ang):
   XX=           -229.2034   YY=           -231.7908   ZZ=           -256.8087
   XY=              3.5302   XZ=              6.3922   YZ=             -2.1947

 Normal termination of Gaussian 16 at Sun Jul 28 15:43:40 2019.
