 Gaussian 16, Revision A.03,
 Gaussian 16:  ES64L-G16RevA.03 25-Dec-2016

 ---------------------------------
 # td=(NStates=1) B3LYP/6-31G(d,p)
 ---------------------------------

 --
 TD
 --
 Symbolic Z-matrix:
 Charge =  0 Multiplicity = 1

                         Standard orientation:
 ---------------------------------------------------------------------
 Center     Atomic      Atomic             Coordinates (Angstroms)
 Number     Number       Type             X           Y           Z
 ---------------------------------------------------------------------
      1          6           0      -12.274135   -0.603001   -0.620539
      2          6           0       12.209836    0.030838    1.019756
      3          6           0      -13.460524    0.270656   -0.412874
      4          6           0       13.106539   -1.045025    1.351149
      5          6           0      -13.307492    1.754298   -0.379066
      6          6           0       13.444384   -2.051707    0.118462
      7          6           0      -11.142778    0.013893    0.287126
      8          6           0       11.077077   -0.380991    0.009407
      9          6           0      -12.328846    2.170432    0.793554
     10          6           0       12.224902   -2.654562   -0.420608
     11          6           0      -11.152292    1.268815    0.929779
     12          6           0       11.126356   -1.588272   -0.678183
     13          6           0      -11.713185   -0.624000   -2.105744
     14          6           0      -12.517994   -2.007577   -0.176547
     15          6           0       12.918868    1.212184    0.368068
     16          6           0       11.417161    0.537315    2.236909
     17          6           0       -9.920317   -0.884999    0.351559
     18          6           0        9.946456    0.541940   -0.229606
     19          6           0      -10.114824    1.821731    1.791190
     20          6           0       10.128722   -2.021308   -1.749042
     21          6           0       -8.583372   -0.513075    0.324367
     22          6           0        8.596169    0.278827   -0.177586
     23          6           0       -7.431736   -1.338381    0.312851
     24          6           0        7.573979    1.324812   -0.479907
     25          6           0       -7.623021   -2.876813    0.503839
     26          6           0        7.928804    2.732126   -0.701856
     27          6           0       -6.163993   -0.623100    0.136077
     28          6           0        6.248913    0.813041   -0.544615
     29          6           0       -4.959661   -1.239770    0.106955
     30          6           0        4.968648    1.612500   -0.531838
     31          6           0       -3.599871   -0.667616    0.124349
     32          6           0        3.754534    1.084585   -0.435138
     33          6           0       -2.288797   -1.303371    0.188450
     34          6           0        2.513906    1.831870   -0.407619
     35          6           0       -2.346844   -2.755721    0.557453
     36          6           0        2.551274    3.362806   -0.762146
     37          6           0       -1.199441   -0.575904    0.079308
     38          6           0        1.355300    1.133330   -0.326052
     39          6           0       -1.122097    0.806565   -0.173490
     40          6           0        0.132540    1.604515   -0.419032
     41          1           0      -13.896146   -0.087650    0.403190
     42          1           0      -14.230626    0.136633   -1.159598
     43          1           0       12.666687   -1.756961    2.135676
     44          1           0       14.187157   -0.468009    1.642352
     45          1           0      -14.227113    2.243116   -0.158219
     46          1           0      -12.953765    1.950431   -1.394483
     47          1           0       14.073915   -2.982634    0.237156
     48          1           0       14.041822   -1.546927   -0.744425
     49          1           0      -12.887531    2.143731    1.971500
     50          1           0      -11.948896    3.224192    0.666845
     51          1           0       11.665325   -3.389215    0.324633
     52          1           0       12.188057   -3.179110   -1.397673
     53          1           0      -11.428721    0.350891   -2.705079
     54          1           0      -12.415188   -1.102278   -2.592595
     55          1           0      -10.694704   -1.273288   -2.148832
     56          1           0      -12.680312   -2.120740    1.024233
     57          1           0      -11.637545   -2.677026   -0.297655
     58          1           0      -13.387650   -2.323581   -0.680249
     59          1           0       13.411125    0.811705   -0.628318
     60          1           0       13.787191    1.504834    1.132002
     61          1           0       12.264898    2.024723    0.288277
     62          1           0       10.986372   -0.405644    2.719811
     63          1           0       10.983777    1.570970    2.231867
     64          1           0       12.339300    0.619078    2.939710
     65          1           0      -10.248512   -2.100835    0.621961
     66          1           0       10.261667    1.625158   -0.307664
     67          1           0       -9.494131    0.913275    2.143360
     68          1           0      -10.645788    2.167988    2.605924
     69          1           0       -9.502602    2.581751    1.486807
     70          1           0        9.270481   -1.262071   -2.252159
     71          1           0        9.380457   -2.821200   -1.257513
     72          1           0       10.605049   -2.772252   -2.381976
     73          1           0       -8.594478    0.644235    0.310555
     74          1           0        8.274718   -0.707828   -0.052903
     75          1           0       -8.389977   -2.989300    1.451567
     76          1           0       -6.737808   -3.439361    1.052078
     77          1           0       -8.122358   -3.158526   -0.555250
     78          1           0        8.877430    2.896321   -1.452539
     79          1           0        8.272856    3.175136    0.313806
     80          1           0        6.996456    3.175133   -1.154211
     81          1           0       -6.169211    0.526015    0.085254
     82          1           0        6.173316   -0.267887   -0.345233
     83          1           0       -4.871556   -2.353449    0.070858
     84          1           0        4.994978    2.629252   -1.257590
     85          1           0       -3.683213    0.518820   -0.041507
     86          1           0        3.532182    0.134850   -0.393345
     87          1           0       -2.725584   -2.958579    1.440914
     88          1           0       -1.258633   -3.262388    0.515534
     89          1           0       -2.934131   -3.595576   -0.109805
     90          1           0        3.142487    3.676231   -1.504508
     91          1           0        2.986524    4.102329   -0.057470
     92          1           0        1.665549    3.840984   -0.921795
     93          1           0       -0.293789   -1.130878    0.265371
     94          1           0        1.313063    0.067544   -0.138365
     95          1           0       -2.017383    1.512704   -0.244993
     96          1           0       -0.104368    2.653864   -0.900012
 ---------------------------------------------------------------------

 SCF Done:  E(RB3LYP) =  -1557.46802152     A.U. after   18 cycles

 Excitation energies and oscillator strengths:

 Excited State   1:      Singlet-A      1.8435 eV  672.55 nm  f=3.1650  <S**2>=0.000
     148 ->149         0.71504
     148 <-149        -0.16110
 This state for optimization and/or second-order correction.
 Total Energy, E(TD-HF/TD-DFT) =  -1557.40027391
 Copying the excited state density for this state as the 1-particle RhoCI density.

 The electronic state is 1-A.
 Alpha  occ. eigenvalues --  -10.22218 -10.21426 -10.20782 -10.20282 -10.20251
 Alpha  occ. eigenvalues --  -10.20228 -10.20227 -10.20213 -10.20204 -10.20130
 Alpha  occ. eigenvalues --  -10.20095 -10.20036 -10.19948 -10.19809 -10.19693
 Alpha  occ. eigenvalues --  -10.19678 -10.19582 -10.19475 -10.19386 -10.19369
 Alpha  occ. eigenvalues --  -10.19159 -10.19153 -10.19130 -10.19056 -10.19039
 Alpha  occ. eigenvalues --  -10.18992 -10.18747 -10.18515 -10.18480 -10.18479
 Alpha  occ. eigenvalues --  -10.18234 -10.18207 -10.18157 -10.18015 -10.17906
 Alpha  occ. eigenvalues --  -10.17558 -10.17292 -10.16725 -10.16376 -10.15841
 Alpha  occ. eigenvalues --   -0.85109  -0.85034  -0.83889  -0.82839  -0.81363
 Alpha  occ. eigenvalues --   -0.81114  -0.79544  -0.78932  -0.78178  -0.77112
 Alpha  occ. eigenvalues --   -0.76078  -0.75233  -0.73565  -0.71628  -0.71397
 Alpha  occ. eigenvalues --   -0.70989  -0.68669  -0.68154  -0.67823  -0.67668
 Alpha  occ. eigenvalues --   -0.67214  -0.66823  -0.66667  -0.66521  -0.65481
 Alpha  occ. eigenvalues --   -0.62571  -0.61688  -0.59914  -0.58992  -0.56666
 Alpha  occ. eigenvalues --   -0.56142  -0.55062  -0.54718  -0.53742  -0.52935
 Alpha  occ. eigenvalues --   -0.51445  -0.51297  -0.49766  -0.49054  -0.48426
 Alpha  occ. eigenvalues --   -0.48342  -0.47381  -0.47020  -0.46684  -0.46021
 Alpha  occ. eigenvalues --   -0.45263  -0.44938  -0.44833  -0.44473  -0.43683
 Alpha  occ. eigenvalues --   -0.43598  -0.43337  -0.42686  -0.42281  -0.41882
 Alpha  occ. eigenvalues --   -0.41818  -0.41528  -0.41352  -0.41130  -0.40749
 Alpha  occ. eigenvalues --   -0.40621  -0.40078  -0.39683  -0.39583  -0.39096
 Alpha  occ. eigenvalues --   -0.38708  -0.38507  -0.38456  -0.38271  -0.37869
 Alpha  occ. eigenvalues --   -0.37501  -0.36932  -0.36812  -0.36782  -0.36385
 Alpha  occ. eigenvalues --   -0.36138  -0.35759  -0.35376  -0.35215  -0.34910
 Alpha  occ. eigenvalues --   -0.34877  -0.34440  -0.34167  -0.33883  -0.33714
 Alpha  occ. eigenvalues --   -0.33670  -0.33406  -0.33082  -0.32825  -0.32716
 Alpha  occ. eigenvalues --   -0.32413  -0.31895  -0.31478  -0.31166  -0.30715
 Alpha  occ. eigenvalues --   -0.30336  -0.29830  -0.29614  -0.28940  -0.28262
 Alpha  occ. eigenvalues --   -0.28069  -0.27113  -0.26199  -0.23060  -0.22102
 Alpha  occ. eigenvalues --   -0.20370  -0.18385  -0.15395
 Alpha virt. eigenvalues --   -0.09139  -0.05434  -0.02320   0.00962   0.02082
 Alpha virt. eigenvalues --    0.03821   0.05039   0.05896   0.06392   0.06588
 Alpha virt. eigenvalues --    0.07011   0.07680   0.08296   0.08330   0.08798

 Mulliken charges:
               1
     1  C    0.013430
     2  C    0.023827
     3  C   -0.174641
     4  C   -0.183006
     5  C   -0.186763
     6  C   -0.186715
     7  C    0.059680
     8  C    0.067560
     9  C   -0.210830
    10  C   -0.206999
    11  C    0.073655
    12  C    0.061355
    13  C   -0.290491
    14  C   -0.305287
    15  C   -0.279031
    16  C   -0.294818
    17  C   -0.141661
    18  C   -0.140951
    19  C   -0.376470
    20  C   -0.357580
    21  C   -0.095987
    22  C   -0.082850
    23  C    0.079968
    24  C    0.131399
    25  C   -0.352159
    26  C   -0.362855
    27  C   -0.106088
    28  C   -0.145799
    29  C   -0.077760
    30  C   -0.114828
    31  C   -0.134655
    32  C   -0.063057
    33  C    0.143039
    34  C    0.115461
    35  C   -0.377918
    36  C   -0.388607
    37  C   -0.109988
    38  C   -0.081061
    39  C   -0.100103
    40  C   -0.122484
    41  H    0.103191
    42  H    0.076235
    43  H    0.095005
    44  H    0.070909
    45  H    0.100062
    46  H    0.104135
    47  H    0.093802
    48  H    0.090353
    49  H    0.054331
    50  H    0.096582
    51  H    0.091582
    52  H    0.095728
    53  H    0.092442
    54  H    0.112173
    55  H    0.087116
    56  H    0.083697
    57  H    0.109791
    58  H    0.104358
    59  H    0.098300
    60  H    0.072547
    61  H    0.110586
    62  H    0.105214
    63  H    0.113613
    64  H    0.074815
    65  H    0.052914
    66  H    0.065156
    67  H    0.111810
    68  H    0.110897
    69  H    0.126086
    70  H    0.111232
    71  H    0.083265
    72  H    0.102555
    73  H    0.091711
    74  H    0.082970
    75  H    0.104920
    76  H    0.116227
    77  H    0.129654
    78  H    0.099333
    79  H    0.119017
    80  H    0.111094
    81  H    0.082551
    82  H    0.078015
    83  H    0.071004
    84  H    0.071662
    85  H    0.056968
    86  H    0.066999
    87  H    0.150029
    88  H    0.081472
    89  H    0.093780
    90  H    0.125839
    91  H    0.108161
    92  H    0.112477
    93  H    0.081252
    94  H    0.081376
    95  H    0.087607
    96  H    0.077469
 Sum of Mulliken charges =  -0.00000

 Dipole moment (field-independent basis, Debye):
    X=             -1.0572    Y=             -0.4717    Z=             -0.0277  Tot=              1.1580
 Quadrupole moment (field-independent basis, Debye-Ang):
   XX=           -213.4101   YY=           -232.7608   ZZ=           -256.6818
   XY=             -3.5232   XZ=              0.0977   YZ=             -3.5458

 Normal termination of Gaussian 16 at Thu Aug  1 23:59:44 2019.
