 Gaussian 16, Revision A.03,
 Gaussian 16:  ES64L-G16RevA.03 25-Dec-2016

 ---------------------------------
 # td=(NStates=1) B3LYP/6-31G(d,p)
 ---------------------------------

 --
 TD
 --
 Symbolic Z-matrix:
 Charge =  0 Multiplicity = 1

                         Standard orientation:
 ---------------------------------------------------------------------
 Center     Atomic      Atomic             Coordinates (Angstroms)
 Number     Number       Type             X           Y           Z
 ---------------------------------------------------------------------
      1          6           0       12.181453    0.450580   -0.511697
      2          6           0      -12.056694   -0.081355    0.948980
      3          6           0       13.353151   -0.367619   -0.365997
      4          6           0      -12.939653    1.130000    1.299384
      5          6           0       13.168690   -1.848264   -0.538595
      6          6           0      -13.393667    1.906748    0.131870
      7          6           0       11.018259   -0.031043    0.206211
      8          6           0      -10.969633    0.398637   -0.137639
      9          6           0       12.070265   -2.323769    0.586160
     10          6           0      -12.166893    2.595576   -0.492942
     11          6           0       10.909763   -1.330623    0.805479
     12          6           0      -10.963621    1.598154   -0.726174
     13          6           0       11.868558    0.535614   -1.990961
     14          6           0       12.636183    1.911105   -0.192243
     15          6           0      -12.842266   -1.263443    0.287567
     16          6           0      -11.335644   -0.623839    2.301444
     17          6           0        9.809449    0.858175    0.394916
     18          6           0       -9.888152   -0.587273   -0.375250
     19          6           0        9.834441   -1.864644    1.718562
     20          6           0      -10.108750    2.063085   -1.818326
     21          6           0        8.555451    0.603003    0.222228
     22          6           0       -8.487471   -0.317911   -0.267952
     23          6           0        7.346919    1.456356    0.339642
     24          6           0       -7.440781   -1.241473   -0.406954
     25          6           0        7.611001    2.879702    0.831355
     26          6           0       -7.883139   -2.672755   -0.734475
     27          6           0        6.151475    0.901108    0.150541
     28          6           0       -6.181738   -0.867476   -0.211415
     29          6           0        4.899680    1.561974    0.336203
     30          6           0       -4.988218   -1.661023   -0.488724
     31          6           0        3.686144    0.909505    0.119070
     32          6           0       -3.731116   -1.050742   -0.326565
     33          6           0        2.306440    1.352180    0.080313
     34          6           0       -2.495083   -1.790088   -0.430459
     35          6           0        2.134270    2.865109    0.352638
     36          6           0       -2.584571   -3.287144   -0.632367
     37          6           0        1.225691    0.537107    0.271976
     38          6           0       -1.259995   -1.041455   -0.293473
     39          6           0        1.175236   -0.884176   -0.051727
     40          6           0        0.104862   -1.654644   -0.353995
     41          1           0       13.884800   -0.083607    0.656200
     42          1           0       14.250045   -0.183548   -1.188441
     43          1           0      -12.353557    1.664389    1.963041
     44          1           0      -13.781387    0.736257    1.789916
     45          1           0       14.066821   -2.275956   -0.437680
     46          1           0       12.592289   -2.010911   -1.413572
     47          1           0      -14.196458    2.780622    0.318328
     48          1           0      -13.786234    1.096750   -0.594877
     49          1           0       12.813580   -2.376695    1.474416
     50          1           0       11.518789   -3.352061    0.542478
     51          1           0      -11.729922    3.579823   -0.043582
     52          1           0      -12.701575    2.858577   -1.448794
     53          1           0       11.602256   -0.502739   -2.739288
     54          1           0       12.679331    1.031296   -2.749964
     55          1           0       10.808136    1.017399   -2.060985
     56          1           0       12.854705    2.079454    0.893561
     57          1           0       11.805750    2.714842   -0.533823
     58          1           0       13.680490    2.241631   -0.610219
     59          1           0      -13.582966   -0.796126   -0.445001
     60          1           0      -13.691341   -1.569531    0.980785
     61          1           0      -12.292165   -2.171438   -0.244934
     62          1           0      -10.649316    0.197808    2.540768
     63          1           0      -10.900120   -1.626517    2.240598
     64          1           0      -12.187040   -0.915032    3.009197
     65          1           0       10.013581    1.880844    0.538688
     66          1           0      -10.268628   -1.625783   -0.518811
     67          1           0        9.296456   -1.094055    2.154747
     68          1           0       10.203935   -2.543697    2.377049
     69          1           0        9.243019   -2.580042    1.170331
     70          1           0       -9.354006    1.165569   -2.225481
     71          1           0       -9.351598    2.899306   -1.647036
     72          1           0      -10.660735    2.376675   -2.654738
     73          1           0        8.420544   -0.548442    0.049745
     74          1           0       -8.321124    0.750129   -0.075073
     75          1           0        7.942040    2.985368    1.729121
     76          1           0        6.578288    3.481555    0.588017
     77          1           0        8.261243    3.358455    0.181369
     78          1           0       -8.607012   -2.686420   -1.568007
     79          1           0       -8.430914   -3.073799    0.327350
     80          1           0       -7.017083   -3.045568   -0.826936
     81          1           0        6.234029   -0.167081   -0.224005
     82          1           0       -6.014416    0.230688    0.320171
     83          1           0        4.932024    2.670329    0.678328
     84          1           0       -5.404516   -2.573575   -0.767962
     85          1           0        3.654579   -0.006374   -0.349160
     86          1           0       -3.757292    0.021885   -0.071908
     87          1           0        2.575519    3.165634    1.419797
     88          1           0        1.156243    3.146133    0.300367
     89          1           0        2.543291    3.517330   -0.414983
     90          1           0       -3.193457   -3.516951   -1.536420
     91          1           0       -3.186187   -3.655769    0.257871
     92          1           0       -1.563449   -3.573622   -0.907242
     93          1           0        0.333299    0.860699    0.350545
     94          1           0       -1.337100   -0.022396   -0.224453
     95          1           0        2.146701   -1.579249    0.008188
     96          1           0        0.246037   -2.690218   -0.557239
 ---------------------------------------------------------------------

 SCF Done:  E(RB3LYP) =  -1557.52782207     A.U. after   15 cycles

 Excitation energies and oscillator strengths:

 Excited State   1:      Singlet-A      2.2471 eV  551.76 nm  f=2.6633  <S**2>=0.000
     148 ->149         0.70107
 This state for optimization and/or second-order correction.
 Total Energy, E(TD-HF/TD-DFT) =  -1557.44524327
 Copying the excited state density for this state as the 1-particle RhoCI density.

 The electronic state is 1-A.
 Alpha  occ. eigenvalues --  -10.21000 -10.20525 -10.20376 -10.20314 -10.20266
 Alpha  occ. eigenvalues --  -10.20167 -10.20003 -10.19891 -10.19708 -10.19703
 Alpha  occ. eigenvalues --  -10.19647 -10.19552 -10.19468 -10.19353 -10.19264
 Alpha  occ. eigenvalues --  -10.19202 -10.19155 -10.19137 -10.19132 -10.19071
 Alpha  occ. eigenvalues --  -10.19007 -10.18981 -10.18804 -10.18783 -10.18743
 Alpha  occ. eigenvalues --  -10.18635 -10.18615 -10.18428 -10.18339 -10.18272
 Alpha  occ. eigenvalues --  -10.18233 -10.18123 -10.18113 -10.17927 -10.17864
 Alpha  occ. eigenvalues --  -10.17737 -10.17370 -10.17039 -10.16716 -10.16234
 Alpha  occ. eigenvalues --   -0.86078  -0.84359  -0.83471  -0.83276  -0.82453
 Alpha  occ. eigenvalues --   -0.81124  -0.79086  -0.78368  -0.77908  -0.77230
 Alpha  occ. eigenvalues --   -0.76423  -0.75023  -0.74169  -0.72893  -0.71334
 Alpha  occ. eigenvalues --   -0.69848  -0.69411  -0.68757  -0.68712  -0.67706
 Alpha  occ. eigenvalues --   -0.67253  -0.66700  -0.66128  -0.66088  -0.65365
 Alpha  occ. eigenvalues --   -0.63392  -0.62260  -0.60312  -0.58380  -0.56637
 Alpha  occ. eigenvalues --   -0.56535  -0.56042  -0.54876  -0.54007  -0.53356
 Alpha  occ. eigenvalues --   -0.52146  -0.51049  -0.50579  -0.49650  -0.49088
 Alpha  occ. eigenvalues --   -0.47912  -0.47533  -0.47221  -0.46627  -0.46079
 Alpha  occ. eigenvalues --   -0.45986  -0.45447  -0.44895  -0.44361  -0.44137
 Alpha  occ. eigenvalues --   -0.43809  -0.43284  -0.43170  -0.42804  -0.42329
 Alpha  occ. eigenvalues --   -0.42158  -0.41992  -0.41652  -0.41409  -0.40842
 Alpha  occ. eigenvalues --   -0.40615  -0.40281  -0.40254  -0.39925  -0.39558
 Alpha  occ. eigenvalues --   -0.39481  -0.39144  -0.39012  -0.38484  -0.38269
 Alpha  occ. eigenvalues --   -0.37750  -0.37569  -0.37193  -0.36905  -0.36710
 Alpha  occ. eigenvalues --   -0.36412  -0.36046  -0.35546  -0.35301  -0.35103
 Alpha  occ. eigenvalues --   -0.35023  -0.34676  -0.34315  -0.34005  -0.33593
 Alpha  occ. eigenvalues --   -0.33505  -0.32915  -0.32499  -0.32343  -0.32221
 Alpha  occ. eigenvalues --   -0.31967  -0.31872  -0.31253  -0.30918  -0.30479
 Alpha  occ. eigenvalues --   -0.30256  -0.29651  -0.29477  -0.28658  -0.28365
 Alpha  occ. eigenvalues --   -0.27877  -0.27109  -0.25931  -0.24296  -0.22564
 Alpha  occ. eigenvalues --   -0.21068  -0.18853  -0.16623
 Alpha virt. eigenvalues --   -0.07955  -0.05242  -0.01607   0.00079   0.02381
 Alpha virt. eigenvalues --    0.03906   0.05967   0.06810   0.07153   0.07308
 Alpha virt. eigenvalues --    0.07609   0.07943   0.08562   0.08938   0.09020

 Mulliken charges:
               1
     1  C    0.017838
     2  C   -0.005713
     3  C   -0.155585
     4  C   -0.152734
     5  C   -0.181918
     6  C   -0.186413
     7  C    0.069177
     8  C    0.059378
     9  C   -0.237637
    10  C   -0.217533
    11  C    0.062742
    12  C    0.071640
    13  C   -0.263463
    14  C   -0.297533
    15  C   -0.310211
    16  C   -0.298936
    17  C   -0.147328
    18  C   -0.146366
    19  C   -0.363210
    20  C   -0.365613
    21  C   -0.079226
    22  C   -0.090249
    23  C    0.104629
    24  C    0.093602
    25  C   -0.361979
    26  C   -0.320797
    27  C   -0.097498
    28  C   -0.120154
    29  C   -0.092721
    30  C   -0.078217
    31  C   -0.100193
    32  C   -0.121786
    33  C    0.056508
    34  C    0.088707
    35  C   -0.358634
    36  C   -0.362938
    37  C   -0.058559
    38  C   -0.118741
    39  C   -0.102796
    40  C   -0.090087
    41  H    0.066064
    42  H    0.063686
    43  H    0.101675
    44  H    0.086463
    45  H    0.100804
    46  H    0.117548
    47  H    0.075104
    48  H    0.093759
    49  H    0.092987
    50  H    0.076191
    51  H    0.091821
    52  H    0.095522
    53  H    0.050152
    54  H    0.087713
    55  H    0.096980
    56  H    0.099908
    57  H    0.084195
    58  H    0.098952
    59  H    0.091074
    60  H    0.089690
    61  H    0.101825
    62  H    0.112462
    63  H    0.105575
    64  H    0.089927
    65  H    0.063812
    66  H    0.072217
    67  H    0.133322
    68  H    0.119501
    69  H    0.118120
    70  H    0.085529
    71  H    0.102558
    72  H    0.119067
    73  H    0.061331
    74  H    0.079306
    75  H    0.138767
    76  H    0.077848
    77  H    0.129508
    78  H    0.125745
    79  H    0.094531
    80  H    0.098841
    81  H    0.082445
    82  H    0.056879
    83  H    0.086735
    84  H    0.080684
    85  H    0.085335
    86  H    0.088347
    87  H    0.103003
    88  H    0.107520
    89  H    0.112826
    90  H    0.121563
    91  H    0.128316
    92  H    0.110508
    93  H    0.065744
    94  H    0.084152
    95  H    0.066015
    96  H    0.090394
 Sum of Mulliken charges =  -0.00000

 Dipole moment (field-independent basis, Debye):
    X=              0.1550    Y=             -0.2067    Z=              0.3717  Tot=              0.4527
 Quadrupole moment (field-independent basis, Debye-Ang):
   XX=           -220.9424   YY=           -235.1898   ZZ=           -256.1226
   XY=              2.0569   XZ=              4.0730   YZ=              2.5290

 Normal termination of Gaussian 16 at Sat Jul 27 08:51:54 2019.
