 Gaussian 16, Revision A.03,
 Gaussian 16:  ES64L-G16RevA.03 25-Dec-2016

 ---------------------------------
 # td=(NStates=1) B3LYP/6-31G(d,p)
 ---------------------------------

 --
 TD
 --
 Symbolic Z-matrix:
 Charge =  0 Multiplicity = 1

                         Standard orientation:
 ---------------------------------------------------------------------
 Center     Atomic      Atomic             Coordinates (Angstroms)
 Number     Number       Type             X           Y           Z
 ---------------------------------------------------------------------
      1          6           0      -12.126050   -0.643416   -0.544990
      2          6           0       12.128324    0.082295    0.860491
      3          6           0      -13.436867    0.177328   -0.336009
      4          6           0       12.961435   -1.129144    1.313937
      5          6           0      -13.212359    1.716635   -0.541106
      6          6           0       13.315719   -2.083898    0.139979
      7          6           0      -11.114039    0.013441    0.277825
      8          6           0       10.953337   -0.405033    0.015281
      9          6           0      -12.283494    2.277510    0.493181
     10          6           0       12.128730   -2.634987   -0.461821
     11          6           0      -11.156189    1.231960    0.876602
     12          6           0       11.035370   -1.646873   -0.680443
     13          6           0      -11.742314   -0.676913   -2.067409
     14          6           0      -12.494050   -2.118334   -0.182369
     15          6           0       12.934586    1.125737    0.164999
     16          6           0       11.527818    0.730051    2.186725
     17          6           0       -9.888849   -0.901120    0.366281
     18          6           0        9.881270    0.548933   -0.202741
     19          6           0      -10.049260    1.787006    1.749503
     20          6           0       10.005917   -2.048234   -1.696261
     21          6           0       -8.623412   -0.370509    0.288072
     22          6           0        8.606002    0.269292   -0.187503
     23          6           0       -7.378387   -1.247758    0.411811
     24          6           0        7.489100    1.236731   -0.507371
     25          6           0       -7.567523   -2.704007    0.578740
     26          6           0        7.940775    2.697073   -0.835099
     27          6           0       -6.127940   -0.629999    0.277123
     28          6           0        6.185690    0.823618   -0.475057
     29          6           0       -4.844970   -1.247497    0.363548
     30          6           0        5.061205    1.655464   -0.456699
     31          6           0       -3.660133   -0.640717    0.281401
     32          6           0        3.717897    1.015699   -0.236053
     33          6           0       -2.322842   -1.247071    0.243850
     34          6           0        2.466059    1.782562   -0.429232
     35          6           0       -2.322853   -2.715559    0.473757
     36          6           0        2.638357    3.210850   -0.580934
     37          6           0       -1.197863   -0.472351    0.135535
     38          6           0        1.439662    0.994493   -0.278164
     39          6           0       -1.120218    0.891284   -0.219690
     40          6           0        0.094907    1.500355   -0.431705
     41          1           0      -13.878272   -0.043711    0.557426
     42          1           0      -14.270519   -0.105331   -1.177400
     43          1           0       12.578074   -1.800546    1.969278
     44          1           0       13.737492   -0.899536    1.903109
     45          1           0      -14.100773    2.310846   -0.685638
     46          1           0      -12.613101    2.044032   -1.401929
     47          1           0       13.925151   -2.797560    0.602075
     48          1           0       14.126122   -1.806550   -0.553284
     49          1           0      -12.718428    2.503336    1.487477
     50          1           0      -11.819859    3.120016    0.239637
     51          1           0       11.980128   -3.580430    0.160653
     52          1           0       12.195339   -2.876531   -1.500865
     53          1           0      -11.390575    0.129432   -2.540726
     54          1           0      -12.720120   -1.135010   -2.554524
     55          1           0      -10.789133   -1.265786   -2.146105
     56          1           0      -12.544907   -2.076460    0.856408
     57          1           0      -11.667289   -2.693121   -0.525822
     58          1           0      -13.367083   -2.543117   -0.673780
     59          1           0       13.466396    0.913420   -0.863566
     60          1           0       13.766271    1.370222    0.737186
     61          1           0       12.319140    2.142050    0.170093
     62          1           0       10.751163    0.182297    2.718729
     63          1           0       10.940577    1.750165    1.968642
     64          1           0       12.514407    1.024433    2.661674
     65          1           0      -10.087009   -1.893696    0.441244
     66          1           0       10.247964    1.434844   -0.574280
     67          1           0       -9.354126    1.042788    2.167111
     68          1           0      -10.551183    2.457671    2.451309
     69          1           0       -9.401010    2.446074    1.131598
     70          1           0        9.232769   -1.215639   -2.021440
     71          1           0        9.154141   -2.847159   -1.321103
     72          1           0       10.420519   -2.521316   -2.755917
     73          1           0       -8.461259    0.669515    0.068142
     74          1           0        7.985183   -0.551777    0.137796
     75          1           0       -7.981832   -2.805303    1.469162
     76          1           0       -6.599813   -3.494001    0.383541
     77          1           0       -8.308822   -3.034494   -0.195910
     78          1           0        8.578400    2.643698   -1.757205
     79          1           0        8.368713    3.114169    0.051144
     80          1           0        6.907796    3.355129   -0.897626
     81          1           0       -6.091033    0.486399    0.271021
     82          1           0        6.012135   -0.293567   -0.487740
     83          1           0       -4.731711   -2.394452    0.509340
     84          1           0        5.092076    2.817551   -0.591985
     85          1           0       -3.863536    0.462093    0.068526
     86          1           0        3.663862    0.072516    0.034208
     87          1           0       -2.733005   -2.881364    1.464521
     88          1           0       -1.316517   -3.254879    0.557220
     89          1           0       -2.982795   -3.143769   -0.212058
     90          1           0        3.195055    3.764993   -1.460525
     91          1           0        3.302347    3.626279    0.348127
     92          1           0        1.595906    3.774227   -0.604238
     93          1           0       -0.195139   -0.920352    0.244335
     94          1           0        1.450321   -0.116462    0.010052
     95          1           0       -2.027540    1.379793   -0.601405
     96          1           0        0.003654    2.724550   -0.623631
 ---------------------------------------------------------------------

 SCF Done:  E(RB3LYP) =  -1557.56958593     A.U. after   16 cycles

 Excitation energies and oscillator strengths:

 Excited State   1:      Singlet-A      2.2455 eV  552.16 nm  f=2.9039  <S**2>=0.000
     148 ->149         0.70557
 This state for optimization and/or second-order correction.
 Total Energy, E(TD-HF/TD-DFT) =  -1557.48706686
 Copying the excited state density for this state as the 1-particle RhoCI density.

 The electronic state is 1-A.
 Alpha  occ. eigenvalues --  -10.21203 -10.20593 -10.20291 -10.20079 -10.19982
 Alpha  occ. eigenvalues --  -10.19873 -10.19831 -10.19794 -10.19607 -10.19392
 Alpha  occ. eigenvalues --  -10.19369 -10.19355 -10.19328 -10.19236 -10.19148
 Alpha  occ. eigenvalues --  -10.19132 -10.18910 -10.18802 -10.18721 -10.18687
 Alpha  occ. eigenvalues --  -10.18552 -10.18542 -10.18454 -10.18443 -10.18372
 Alpha  occ. eigenvalues --  -10.18248 -10.18137 -10.18070 -10.18032 -10.17968
 Alpha  occ. eigenvalues --  -10.17908 -10.17834 -10.17533 -10.17361 -10.17302
 Alpha  occ. eigenvalues --  -10.17245 -10.17035 -10.16591 -10.16430 -10.15902
 Alpha  occ. eigenvalues --   -0.85102  -0.84916  -0.84164  -0.83040  -0.81807
 Alpha  occ. eigenvalues --   -0.81284  -0.79040  -0.78592  -0.78485  -0.77848
 Alpha  occ. eigenvalues --   -0.76638  -0.74936  -0.74225  -0.71896  -0.71616
 Alpha  occ. eigenvalues --   -0.70313  -0.68569  -0.68368  -0.68187  -0.68027
 Alpha  occ. eigenvalues --   -0.67802  -0.67224  -0.66983  -0.66663  -0.65739
 Alpha  occ. eigenvalues --   -0.62560  -0.61523  -0.59977  -0.59035  -0.57623
 Alpha  occ. eigenvalues --   -0.56863  -0.55756  -0.55594  -0.54331  -0.52795
 Alpha  occ. eigenvalues --   -0.52206  -0.51544  -0.50193  -0.49911  -0.48972
 Alpha  occ. eigenvalues --   -0.48200  -0.47785  -0.47624  -0.47068  -0.46125
 Alpha  occ. eigenvalues --   -0.45772  -0.45299  -0.45051  -0.44223  -0.44058
 Alpha  occ. eigenvalues --   -0.43826  -0.43466  -0.43306  -0.42984  -0.42866
 Alpha  occ. eigenvalues --   -0.42385  -0.42134  -0.41772  -0.41657  -0.40915
 Alpha  occ. eigenvalues --   -0.40458  -0.40258  -0.40157  -0.39655  -0.39155
 Alpha  occ. eigenvalues --   -0.39019  -0.38945  -0.38505  -0.38309  -0.38267
 Alpha  occ. eigenvalues --   -0.37859  -0.37765  -0.37211  -0.36830  -0.36124
 Alpha  occ. eigenvalues --   -0.35909  -0.35674  -0.35500  -0.35191  -0.34811
 Alpha  occ. eigenvalues --   -0.34777  -0.34587  -0.34428  -0.34152  -0.33890
 Alpha  occ. eigenvalues --   -0.33585  -0.33525  -0.33355  -0.33278  -0.32177
 Alpha  occ. eigenvalues --   -0.31928  -0.31769  -0.31403  -0.30953  -0.30433
 Alpha  occ. eigenvalues --   -0.30202  -0.30105  -0.29839  -0.28985  -0.27948
 Alpha  occ. eigenvalues --   -0.27739  -0.27316  -0.26489  -0.23642  -0.21826
 Alpha  occ. eigenvalues --   -0.20809  -0.18739  -0.16305
 Alpha virt. eigenvalues --   -0.07762  -0.04967  -0.01770   0.00515   0.02167
 Alpha virt. eigenvalues --    0.04329   0.05739   0.06125   0.06578   0.07273
 Alpha virt. eigenvalues --    0.07433   0.07930   0.08146   0.08748   0.09353

 Mulliken charges:
               1
     1  C   -0.034462
     2  C   -0.002073
     3  C   -0.158119
     4  C   -0.167459
     5  C   -0.195398
     6  C   -0.216135
     7  C    0.080960
     8  C    0.059343
     9  C   -0.211537
    10  C   -0.184114
    11  C    0.033894
    12  C    0.077699
    13  C   -0.274726
    14  C   -0.306852
    15  C   -0.293356
    16  C   -0.299492
    17  C   -0.132932
    18  C   -0.149786
    19  C   -0.367793
    20  C   -0.357043
    21  C   -0.096625
    22  C   -0.044445
    23  C    0.096850
    24  C    0.072887
    25  C   -0.359735
    26  C   -0.358777
    27  C   -0.145257
    28  C   -0.121734
    29  C   -0.060537
    30  C   -0.094069
    31  C   -0.102817
    32  C   -0.128311
    33  C    0.097971
    34  C    0.199202
    35  C   -0.383845
    36  C   -0.388456
    37  C   -0.116152
    38  C   -0.108171
    39  C   -0.074217
    40  C   -0.122050
    41  H    0.103547
    42  H    0.049376
    43  H    0.103438
    44  H    0.081531
    45  H    0.090724
    46  H    0.100588
    47  H    0.087196
    48  H    0.084476
    49  H    0.088868
    50  H    0.111240
    51  H    0.098744
    52  H    0.102366
    53  H    0.108756
    54  H    0.083075
    55  H    0.087899
    56  H    0.109593
    57  H    0.102931
    58  H    0.106128
    59  H    0.097382
    60  H    0.110154
    61  H    0.086218
    62  H    0.117484
    63  H    0.074385
    64  H    0.090634
    65  H    0.083067
    66  H    0.096480
    67  H    0.129301
    68  H    0.100070
    69  H    0.108746
    70  H    0.109313
    71  H    0.084462
    72  H    0.077263
    73  H    0.091986
    74  H    0.076396
    75  H    0.142688
    76  H    0.086857
    77  H    0.115914
    78  H    0.127029
    79  H    0.131578
    80  H    0.073519
    81  H    0.072247
    82  H    0.080797
    83  H    0.058408
    84  H    0.082157
    85  H    0.065978
    86  H    0.069434
    87  H    0.129913
    88  H    0.099993
    89  H    0.132977
    90  H    0.121394
    91  H    0.114160
    92  H    0.095443
    93  H    0.066286
    94  H    0.092351
    95  H    0.090089
    96  H    0.054639
 Sum of Mulliken charges =  -0.00000

 Dipole moment (field-independent basis, Debye):
    X=              0.2062    Y=              0.1282    Z=              0.3904  Tot=              0.4598
 Quadrupole moment (field-independent basis, Debye-Ang):
   XX=           -219.9283   YY=           -234.6437   ZZ=           -256.2297
   XY=             -0.7935   XZ=              3.3617   YZ=             -3.9992

 Normal termination of Gaussian 16 at Sun Jul 28 15:13:04 2019.
