 Gaussian 16, Revision A.03,
 Gaussian 16:  ES64L-G16RevA.03 25-Dec-2016

 ---------------------------------
 # td=(NStates=1) B3LYP/6-31G(d,p)
 ---------------------------------

 --
 TD
 --
 Symbolic Z-matrix:
 Charge =  0 Multiplicity = 1

                         Standard orientation:
 ---------------------------------------------------------------------
 Center     Atomic      Atomic             Coordinates (Angstroms)
 Number     Number       Type             X           Y           Z
 ---------------------------------------------------------------------
      1          6           0       12.254332    0.495470   -0.661926
      2          6           0      -12.089822   -0.064295    0.860418
      3          6           0       13.488295   -0.514136   -0.545502
      4          6           0      -12.912551    1.165230    1.357756
      5          6           0       13.046679   -1.907608   -0.688465
      6          6           0      -13.385111    1.937959    0.189225
      7          6           0       11.091529   -0.011590    0.228748
      8          6           0      -10.971957    0.411095   -0.104937
      9          6           0       12.092159   -2.271217    0.578197
     10          6           0      -12.188319    2.552487   -0.658888
     11          6           0       11.058423   -1.207178    0.807671
     12          6           0      -11.034422    1.610627   -0.776597
     13          6           0       11.690443    0.713236   -2.073379
     14          6           0       12.693078    1.884552   -0.179744
     15          6           0      -13.063755   -1.149456    0.252447
     16          6           0      -11.390465   -0.592702    2.138377
     17          6           0        9.851424    0.938053    0.331627
     18          6           0       -9.900734   -0.524076   -0.369932
     19          6           0       10.035447   -1.716133    1.784368
     20          6           0      -10.039983    2.161707   -1.822191
     21          6           0        8.573250    0.544364    0.302856
     22          6           0       -8.582580   -0.309081   -0.224466
     23          6           0        7.425519    1.407391    0.483202
     24          6           0       -7.510284   -1.341099   -0.399013
     25          6           0        7.605849    2.967704    0.594201
     26          6           0       -7.939594   -2.791074   -0.632101
     27          6           0        6.257990    0.808525    0.275791
     28          6           0       -6.224345   -0.898538   -0.367975
     29          6           0        4.855538    1.349289    0.356672
     30          6           0       -5.028171   -1.616731   -0.531331
     31          6           0        3.741097    0.733940    0.202994
     32          6           0       -3.804528   -1.105980   -0.341861
     33          6           0        2.360686    1.302630    0.321953
     34          6           0       -2.559043   -1.728657   -0.433561
     35          6           0        2.259670    2.678505    0.512803
     36          6           0       -2.562972   -3.144831   -0.732481
     37          6           0        1.255042    0.518555    0.168125
     38          6           0       -1.368351   -1.013440   -0.227456
     39          6           0        1.142395   -0.909979    0.161719
     40          6           0       -0.019039   -1.630139   -0.155250
     41          1           0       14.036896   -0.182123    0.319786
     42          1           0       14.228497   -0.062467   -1.455937
     43          1           0      -12.542482    1.733744    2.027348
     44          1           0      -13.773934    0.931908    1.945240
     45          1           0       13.926578   -2.502546   -0.606578
     46          1           0       12.520197   -2.115537   -1.523019
     47          1           0      -13.942306    2.844575    0.487471
     48          1           0      -14.015727    1.300276   -0.439592
     49          1           0       12.752306   -2.328757    1.560073
     50          1           0       11.740730   -3.303460    0.368468
     51          1           0      -11.998574    3.444969   -0.029943
     52          1           0      -12.613176    2.936136   -1.605532
     53          1           0       11.495026   -0.299616   -2.513724
     54          1           0       12.320092    1.324569   -2.785895
     55          1           0       10.679724    1.120211   -1.899859
     56          1           0       12.874882    1.972195    0.904756
     57          1           0       12.093243    2.816880   -0.390669
     58          1           0       13.737220    2.187758   -0.575837
     59          1           0      -13.687627   -1.024827   -0.609000
     60          1           0      -13.735832   -1.607651    1.038484
     61          1           0      -12.228873   -2.029797    0.087474
     62          1           0      -10.817224    0.090846    2.702639
     63          1           0      -10.744794   -1.572731    1.976825
     64          1           0      -12.287758   -0.907645    2.841792
     65          1           0       10.226822    2.027554    0.447819
     66          1           0      -10.135051   -1.620824   -0.694792
     67          1           0        9.447915   -0.954007    2.343008
     68          1           0       10.461276   -2.448861    2.483917
     69          1           0        9.397582   -2.338417    1.350168
     70          1           0       -9.310328    1.443798   -2.009843
     71          1           0       -9.474212    2.947345   -1.335172
     72          1           0      -10.591606    2.567500   -2.844950
     73          1           0        8.263199   -0.434393    0.298445
     74          1           0       -8.275115    0.800593    0.080234
     75          1           0        8.162812    3.235657    1.674849
     76          1           0        6.743193    3.634476    0.457976
     77          1           0        8.269498    3.135432   -0.261506
     78          1           0       -8.445982   -2.968177   -1.648882
     79          1           0       -8.492263   -3.183963    0.141228
     80          1           0       -7.084105   -3.480011   -0.864179
     81          1           0        6.174495   -0.451428    0.272441
     82          1           0       -6.149119    0.247182    0.091059
     83          1           0        4.928733    2.436916    0.340972
     84          1           0       -5.044393   -2.657190   -0.537321
     85          1           0        3.546680   -0.397270   -0.079389
     86          1           0       -3.781109   -0.031507   -0.292249
     87          1           0        2.671310    3.042532    1.372676
     88          1           0        1.372501    3.076095    0.589138
     89          1           0        2.638989    3.199634   -0.289437
     90          1           0       -2.907436   -3.350368   -1.652571
     91          1           0       -3.216647   -3.922163   -0.185236
     92          1           0       -1.515779   -3.788239   -0.717316
     93          1           0        0.235200    1.106959    0.093147
     94          1           0       -1.584555   -0.051900   -0.278417
     95          1           0        2.167026   -1.356120    0.259925
     96          1           0        0.066475   -2.634007   -0.323068
 ---------------------------------------------------------------------

 SCF Done:  E(RB3LYP) =  -1557.60857494     A.U. after   14 cycles

 Excitation energies and oscillator strengths:

 Excited State   1:      Singlet-A      2.4006 eV  516.48 nm  f=2.9177  <S**2>=0.000
     148 ->149         0.69962
 This state for optimization and/or second-order correction.
 Total Energy, E(TD-HF/TD-DFT) =  -1557.52035627
 Copying the excited state density for this state as the 1-particle RhoCI density.

 The electronic state is 1-A.
 Alpha  occ. eigenvalues --  -10.20873 -10.20497 -10.20457 -10.20096 -10.20006
 Alpha  occ. eigenvalues --  -10.19853 -10.19711 -10.19698 -10.19578 -10.19487
 Alpha  occ. eigenvalues --  -10.19373 -10.19360 -10.19321 -10.19251 -10.19248
 Alpha  occ. eigenvalues --  -10.19172 -10.19100 -10.18993 -10.18899 -10.18845
 Alpha  occ. eigenvalues --  -10.18785 -10.18688 -10.18685 -10.18665 -10.18459
 Alpha  occ. eigenvalues --  -10.18446 -10.18273 -10.18233 -10.17907 -10.17893
 Alpha  occ. eigenvalues --  -10.17864 -10.17790 -10.17780 -10.17750 -10.17075
 Alpha  occ. eigenvalues --  -10.17071 -10.16914 -10.16364 -10.15272 -10.14605
 Alpha  occ. eigenvalues --   -0.84572  -0.84459  -0.84227  -0.83853  -0.82233
 Alpha  occ. eigenvalues --   -0.81523  -0.78868  -0.78187  -0.77851  -0.77301
 Alpha  occ. eigenvalues --   -0.76884  -0.75697  -0.75014  -0.72235  -0.72110
 Alpha  occ. eigenvalues --   -0.71111  -0.69055  -0.68598  -0.68219  -0.67839
 Alpha  occ. eigenvalues --   -0.67625  -0.67127  -0.67030  -0.66500  -0.66041
 Alpha  occ. eigenvalues --   -0.62842  -0.61655  -0.59792  -0.59028  -0.57533
 Alpha  occ. eigenvalues --   -0.56270  -0.56169  -0.55327  -0.54421  -0.53708
 Alpha  occ. eigenvalues --   -0.52112  -0.51552  -0.50986  -0.49761  -0.49243
 Alpha  occ. eigenvalues --   -0.48604  -0.47543  -0.46825  -0.46334  -0.45801
 Alpha  occ. eigenvalues --   -0.45621  -0.45205  -0.44873  -0.44757  -0.44083
 Alpha  occ. eigenvalues --   -0.43868  -0.43432  -0.42984  -0.42751  -0.42223
 Alpha  occ. eigenvalues --   -0.42157  -0.41304  -0.41282  -0.41124  -0.41009
 Alpha  occ. eigenvalues --   -0.40942  -0.40650  -0.39892  -0.39543  -0.39269
 Alpha  occ. eigenvalues --   -0.39062  -0.39041  -0.38833  -0.38517  -0.38089
 Alpha  occ. eigenvalues --   -0.37895  -0.37121  -0.36931  -0.36618  -0.36249
 Alpha  occ. eigenvalues --   -0.36161  -0.36024  -0.35749  -0.35551  -0.35471
 Alpha  occ. eigenvalues --   -0.35226  -0.34783  -0.34018  -0.33908  -0.33724
 Alpha  occ. eigenvalues --   -0.33629  -0.33384  -0.33255  -0.32863  -0.32772
 Alpha  occ. eigenvalues --   -0.32412  -0.32252  -0.31786  -0.31587  -0.31468
 Alpha  occ. eigenvalues --   -0.30079  -0.29901  -0.29646  -0.29067  -0.28462
 Alpha  occ. eigenvalues --   -0.27954  -0.27027  -0.26201  -0.24312  -0.22954
 Alpha  occ. eigenvalues --   -0.21225  -0.19609  -0.16864
 Alpha virt. eigenvalues --   -0.07802  -0.04345  -0.01407   0.00937   0.02599
 Alpha virt. eigenvalues --    0.04074   0.06293   0.06865   0.07393   0.07602
 Alpha virt. eigenvalues --    0.07718   0.08116   0.08258   0.08836   0.09137

 Mulliken charges:
               1
     1  C    0.012996
     2  C   -0.007725
     3  C   -0.161389
     4  C   -0.140526
     5  C   -0.187745
     6  C   -0.210864
     7  C    0.065967
     8  C    0.071489
     9  C   -0.246209
    10  C   -0.217271
    11  C    0.076437
    12  C    0.066404
    13  C   -0.293249
    14  C   -0.323967
    15  C   -0.296914
    16  C   -0.296008
    17  C   -0.168179
    18  C   -0.149306
    19  C   -0.371511
    20  C   -0.350184
    21  C   -0.053799
    22  C   -0.081457
    23  C    0.119335
    24  C    0.115285
    25  C   -0.360851
    26  C   -0.386231
    27  C   -0.132350
    28  C   -0.122463
    29  C   -0.104681
    30  C   -0.069830
    31  C   -0.074284
    32  C   -0.120911
    33  C    0.127558
    34  C    0.151519
    35  C   -0.378845
    36  C   -0.402910
    37  C   -0.132284
    38  C   -0.095944
    39  C   -0.086213
    40  C   -0.094599
    41  H    0.103836
    42  H    0.046156
    43  H    0.091984
    44  H    0.081543
    45  H    0.096915
    46  H    0.116204
    47  H    0.074697
    48  H    0.091355
    49  H    0.089761
    50  H    0.100665
    51  H    0.100514
    52  H    0.098269
    53  H    0.087364
    54  H    0.093425
    55  H    0.110016
    56  H    0.099038
    57  H    0.096467
    58  H    0.083855
    59  H    0.118983
    60  H    0.099993
    61  H    0.073317
    62  H    0.119208
    63  H    0.082153
    64  H    0.074683
    65  H    0.085923
    66  H    0.081865
    67  H    0.115140
    68  H    0.094957
    69  H    0.129124
    70  H    0.121131
    71  H    0.118238
    72  H    0.084902
    73  H    0.086078
    74  H    0.069472
    75  H    0.098004
    76  H    0.116254
    77  H    0.131373
    78  H    0.113568
    79  H    0.138995
    80  H    0.105245
    81  H    0.047736
    82  H    0.063674
    83  H    0.078139
    84  H    0.076446
    85  H    0.065116
    86  H    0.066779
    87  H    0.125927
    88  H    0.108777
    89  H    0.122960
    90  H    0.144266
    91  H    0.105284
    92  H    0.080576
    93  H    0.067758
    94  H    0.071458
    95  H    0.080430
    96  H    0.085716
 Sum of Mulliken charges =  -0.00000

 Dipole moment (field-independent basis, Debye):
    X=             -0.4468    Y=              0.0349    Z=              0.1223  Tot=              0.4645
 Quadrupole moment (field-independent basis, Debye-Ang):
   XX=           -231.0975   YY=           -229.6339   ZZ=           -255.2512
   XY=             -1.0799   XZ=              1.2962   YZ=              3.8216

 Normal termination of Gaussian 16 at Tue Jul 30 14:06:10 2019.
