 Gaussian 16, Revision A.03,
 Gaussian 16:  ES64L-G16RevA.03 25-Dec-2016

 ---------------------------------
 # td=(NStates=1) B3LYP/6-31G(d,p)
 ---------------------------------

 --
 TD
 --
 Symbolic Z-matrix:
 Charge =  0 Multiplicity = 1

                         Standard orientation:
 ---------------------------------------------------------------------
 Center     Atomic      Atomic             Coordinates (Angstroms)
 Number     Number       Type             X           Y           Z
 ---------------------------------------------------------------------
      1          6           0       12.086183    0.510078   -0.871538
      2          6           0      -12.113039   -0.042179    0.867007
      3          6           0       13.360629   -0.415565   -0.691053
      4          6           0      -12.956825    1.144899    1.240024
      5          6           0       13.055587   -1.820723   -0.503847
      6          6           0      -13.402666    2.019513    0.079067
      7          6           0       10.943841    0.075957    0.248817
      8          6           0      -10.960390    0.387846   -0.086988
      9          6           0       12.263418   -2.057408    0.829080
     10          6           0      -12.086105    2.568546   -0.497750
     11          6           0       11.097996   -1.122627    0.906143
     12          6           0      -10.998176    1.599733   -0.820655
     13          6           0       11.520510    0.251338   -2.283457
     14          6           0       12.486616    1.979111   -0.686631
     15          6           0      -12.938123   -1.120767    0.271983
     16          6           0      -11.455266   -0.607565    2.164682
     17          6           0        9.853566    1.016805    0.284579
     18          6           0       -9.872223   -0.503700   -0.229210
     19          6           0       10.218459   -1.543685    1.975204
     20          6           0      -10.041782    1.892559   -1.887908
     21          6           0        8.553424    0.521693    0.336790
     22          6           0       -8.532946   -0.305415   -0.258607
     23          6           0        7.385447    1.308362    0.531944
     24          6           0       -7.442465   -1.254286   -0.400634
     25          6           0        7.615048    2.798200    0.571807
     26          6           0       -7.831840   -2.685061   -0.783811
     27          6           0        6.127489    0.716125    0.370335
     28          6           0       -6.239953   -0.774818   -0.391660
     29          6           0        4.940520    1.369131    0.609577
     30          6           0       -4.971551   -1.623670   -0.512441
     31          6           0        3.693014    0.796895    0.245295
     32          6           0       -3.669165   -1.152949   -0.430268
     33          6           0        2.330030    1.247173    0.298385
     34          6           0       -2.479357   -1.809477   -0.340771
     35          6           0        2.136265    2.796480    0.644721
     36          6           0       -2.500238   -3.341976   -0.596023
     37          6           0        1.215380    0.542028    0.229904
     38          6           0       -1.359190   -1.118376   -0.123576
     39          6           0        1.143848   -0.865874   -0.078728
     40          6           0        0.011138   -1.648041   -0.233906
     41          1           0       13.966067   -0.098673    0.202871
     42          1           0       14.013595   -0.244292   -1.407700
     43          1           0      -12.203809    1.812068    1.776632
     44          1           0      -13.792323    0.857227    1.787166
     45          1           0       13.947305   -2.356378   -0.485713
     46          1           0       12.404899   -2.370731   -1.300475
     47          1           0      -14.134678    2.856306    0.506845
     48          1           0      -14.070805    1.484307   -0.645390
     49          1           0       12.893305   -1.567654    1.736186
     50          1           0       11.966402   -3.150371    1.210637
     51          1           0      -11.781051    3.399022    0.033397
     52          1           0      -12.382292    2.963410   -1.467465
     53          1           0       11.520251   -0.748659   -2.381661
     54          1           0       12.241446    0.737142   -2.951121
     55          1           0       10.728538    0.878022   -2.303992
     56          1           0       12.931594    2.238152    0.324676
     57          1           0       11.716317    2.686825   -0.892527
     58          1           0       13.212779    2.269157   -1.477233
     59          1           0      -13.523275   -0.946959   -0.561731
     60          1           0      -13.495974   -1.464957    1.195557
     61          1           0      -12.424956   -1.998791   -0.107719
     62          1           0      -10.887710    0.157862    2.782027
     63          1           0      -10.809796   -1.310317    2.049285
     64          1           0      -12.317517   -1.151112    2.522726
     65          1           0       10.131966    1.991743    0.431967
     66          1           0      -10.245316   -1.543662   -0.041591
     67          1           0        9.191023   -0.864194    1.903707
     68          1           0       10.730713   -1.358658    3.208006
     69          1           0        9.793833   -2.657048    1.805379
     70          1           0       -9.554994    1.061274   -2.441377
     71          1           0       -9.198208    2.514557   -1.608843
     72          1           0      -10.460467    2.477551   -2.661077
     73          1           0        8.546573   -0.481403    0.132555
     74          1           0       -8.203807    0.802195   -0.190150
     75          1           0        7.988483    2.936558    1.443068
     76          1           0        6.647474    3.518128    0.623261
     77          1           0        8.308923    3.223891   -0.319473
     78          1           0       -8.437073   -2.535377   -1.734203
     79          1           0       -8.320917   -3.141712   -0.051098
     80          1           0       -7.031619   -3.441795   -1.161707
     81          1           0        6.053681   -0.403713    0.145555
     82          1           0       -5.973692    0.213640   -0.192777
     83          1           0        4.715596    2.322115    0.989801
     84          1           0       -5.081009   -2.674299   -0.650720
     85          1           0        3.599967   -0.321481   -0.139190
     86          1           0       -3.707119    0.020723   -0.209045
     87          1           0        2.707653    3.026651    1.603805
     88          1           0        1.113393    3.215907    0.900766
     89          1           0        2.624944    3.325227   -0.146120
     90          1           0       -3.005550   -3.476577   -1.470929
     91          1           0       -3.240765   -3.828944    0.202402
     92          1           0       -1.425142   -3.786904   -0.487690
     93          1           0        0.196753    0.859416    0.593999
     94          1           0       -1.573891    0.010079    0.001637
     95          1           0        2.087806   -1.616005   -0.323475
     96          1           0        0.179810   -2.688336   -0.276991
 ---------------------------------------------------------------------

 SCF Done:  E(RB3LYP) =  -1557.57173475     A.U. after   16 cycles

 Excitation energies and oscillator strengths:

 Excited State   1:      Singlet-A      2.1097 eV  587.70 nm  f=2.7705  <S**2>=0.000
     147 ->149         0.11562
     148 ->149         0.69888
 This state for optimization and/or second-order correction.
 Total Energy, E(TD-HF/TD-DFT) =  -1557.49420597
 Copying the excited state density for this state as the 1-particle RhoCI density.

 The electronic state is 1-A.
 Alpha  occ. eigenvalues --  -10.20484 -10.20238 -10.20088 -10.20037 -10.20017
 Alpha  occ. eigenvalues --  -10.19916 -10.19856 -10.19578 -10.19374 -10.19306
 Alpha  occ. eigenvalues --  -10.19282 -10.19196 -10.19165 -10.19112 -10.19077
 Alpha  occ. eigenvalues --  -10.18992 -10.18917 -10.18913 -10.18888 -10.18844
 Alpha  occ. eigenvalues --  -10.18840 -10.18828 -10.18756 -10.18647 -10.18553
 Alpha  occ. eigenvalues --  -10.18404 -10.18116 -10.18069 -10.17941 -10.17884
 Alpha  occ. eigenvalues --  -10.17879 -10.17820 -10.17511 -10.17128 -10.16888
 Alpha  occ. eigenvalues --  -10.16792 -10.16735 -10.16511 -10.15750 -10.15116
 Alpha  occ. eigenvalues --   -0.85403  -0.84699  -0.83748  -0.83177  -0.82495
 Alpha  occ. eigenvalues --   -0.81866  -0.79376  -0.79031  -0.78440  -0.77737
 Alpha  occ. eigenvalues --   -0.77047  -0.75475  -0.73874  -0.72546  -0.72083
 Alpha  occ. eigenvalues --   -0.69587  -0.68976  -0.68910  -0.68803  -0.68325
 Alpha  occ. eigenvalues --   -0.68174  -0.67769  -0.66887  -0.66564  -0.65986
 Alpha  occ. eigenvalues --   -0.62640  -0.61889  -0.59949  -0.59146  -0.57586
 Alpha  occ. eigenvalues --   -0.56924  -0.55562  -0.54519  -0.53900  -0.53344
 Alpha  occ. eigenvalues --   -0.52953  -0.51571  -0.50414  -0.50055  -0.49145
 Alpha  occ. eigenvalues --   -0.48556  -0.47623  -0.47225  -0.46485  -0.46384
 Alpha  occ. eigenvalues --   -0.45786  -0.45504  -0.45150  -0.44157  -0.43827
 Alpha  occ. eigenvalues --   -0.43637  -0.43406  -0.43322  -0.43065  -0.42791
 Alpha  occ. eigenvalues --   -0.42585  -0.42102  -0.41534  -0.41476  -0.41185
 Alpha  occ. eigenvalues --   -0.40925  -0.40665  -0.40582  -0.39904  -0.39058
 Alpha  occ. eigenvalues --   -0.38898  -0.38704  -0.38527  -0.37954  -0.37843
 Alpha  occ. eigenvalues --   -0.37689  -0.37381  -0.37108  -0.36816  -0.36379
 Alpha  occ. eigenvalues --   -0.36300  -0.35959  -0.35704  -0.35651  -0.35415
 Alpha  occ. eigenvalues --   -0.34971  -0.34770  -0.34494  -0.34434  -0.34034
 Alpha  occ. eigenvalues --   -0.33407  -0.33261  -0.33210  -0.32686  -0.32478
 Alpha  occ. eigenvalues --   -0.32218  -0.32086  -0.31773  -0.31670  -0.30801
 Alpha  occ. eigenvalues --   -0.30475  -0.29757  -0.29679  -0.29491  -0.28942
 Alpha  occ. eigenvalues --   -0.28544  -0.27039  -0.26059  -0.24497  -0.22489
 Alpha  occ. eigenvalues --   -0.20480  -0.18315  -0.16375
 Alpha virt. eigenvalues --   -0.08338  -0.05389  -0.02051  -0.00016   0.02375
 Alpha virt. eigenvalues --    0.04318   0.05716   0.06968   0.07355   0.07905
 Alpha virt. eigenvalues --    0.08017   0.08595   0.09125   0.09243   0.09365

 Mulliken charges:
               1
     1  C   -0.015679
     2  C   -0.021537
     3  C   -0.161930
     4  C   -0.148865
     5  C   -0.178842
     6  C   -0.183318
     7  C    0.040596
     8  C    0.073947
     9  C   -0.210860
    10  C   -0.236577
    11  C    0.091526
    12  C    0.073567
    13  C   -0.273699
    14  C   -0.323236
    15  C   -0.296780
    16  C   -0.279744
    17  C   -0.105338
    18  C   -0.144920
    19  C   -0.335092
    20  C   -0.380912
    21  C   -0.117434
    22  C   -0.107635
    23  C    0.090858
    24  C    0.142198
    25  C   -0.352862
    26  C   -0.364250
    27  C   -0.112214
    28  C   -0.125350
    29  C   -0.056399
    30  C   -0.100578
    31  C   -0.119401
    32  C   -0.127408
    33  C    0.110641
    34  C    0.168750
    35  C   -0.380515
    36  C   -0.365992
    37  C   -0.126635
    38  C   -0.133456
    39  C   -0.082863
    40  C   -0.108573
    41  H    0.081651
    42  H    0.093238
    43  H    0.086309
    44  H    0.080982
    45  H    0.095311
    46  H    0.084104
    47  H    0.071818
    48  H    0.092438
    49  H    0.090255
    50  H    0.087450
    51  H    0.120098
    52  H    0.089559
    53  H    0.108927
    54  H    0.086039
    55  H    0.112368
    56  H    0.098987
    57  H    0.100777
    58  H    0.091498
    59  H    0.111640
    60  H    0.086909
    61  H    0.100140
    62  H    0.096344
    63  H    0.111088
    64  H    0.083099
    65  H    0.093414
    66  H    0.065729
    67  H    0.089549
    68  H    0.059902
    69  H    0.088928
    70  H    0.122137
    71  H    0.114151
    72  H    0.102704
    73  H    0.097400
    74  H    0.073371
    75  H    0.145822
    76  H    0.084029
    77  H    0.106313
    78  H    0.119850
    79  H    0.134022
    80  H    0.097667
    81  H    0.088481
    82  H    0.075034
    83  H    0.083886
    84  H    0.063490
    85  H    0.058736
    86  H    0.051959
    87  H    0.103570
    88  H    0.103456
    89  H    0.128024
    90  H    0.139304
    91  H    0.101650
    92  H    0.101725
    93  H    0.102228
    94  H    0.077422
    95  H    0.065975
    96  H    0.085859
 Sum of Mulliken charges =  -0.00000

 Dipole moment (field-independent basis, Debye):
    X=              0.0279    Y=              0.1546    Z=             -0.2901  Tot=              0.3299
 Quadrupole moment (field-independent basis, Debye-Ang):
   XX=           -213.6291   YY=           -233.6833   ZZ=           -256.3591
   XY=              4.8398   XZ=             -0.1259   YZ=              3.2508

 Normal termination of Gaussian 16 at Sat Jul 27 07:52:20 2019.
