 Gaussian 16, Revision A.03,
 Gaussian 16:  ES64L-G16RevA.03 25-Dec-2016

 ---------------------------------
 # td=(NStates=1) B3LYP/6-31G(d,p)
 ---------------------------------

 --
 TD
 --
 Symbolic Z-matrix:
 Charge =  0 Multiplicity = 1

                         Standard orientation:
 ---------------------------------------------------------------------
 Center     Atomic      Atomic             Coordinates (Angstroms)
 Number     Number       Type             X           Y           Z
 ---------------------------------------------------------------------
      1          6           0       12.219681    0.515990   -0.551977
      2          6           0      -12.135966   -0.002774    0.968743
      3          6           0       13.442665   -0.420366   -0.450503
      4          6           0      -12.983544    1.197441    1.310659
      5          6           0       13.146251   -2.019480   -0.337639
      6          6           0      -13.350101    2.029791    0.085895
      7          6           0       11.003006   -0.076445    0.197482
      8          6           0      -11.107779    0.326084   -0.122701
      9          6           0       12.247006   -2.106616    0.821601
     10          6           0      -12.085243    2.516119   -0.610072
     11          6           0       11.073871   -1.237486    0.944889
     12          6           0      -11.057004    1.440758   -0.870834
     13          6           0       11.715523    0.522180   -2.020012
     14          6           0       12.601174    1.838448   -0.042473
     15          6           0      -13.081124   -1.231613    0.667661
     16          6           0      -11.410155   -0.397574    2.395051
     17          6           0        9.871344    0.851730    0.387736
     18          6           0       -9.921043   -0.639026   -0.232861
     19          6           0        9.972044   -1.611668    1.938058
     20          6           0      -10.068399    1.831754   -1.837456
     21          6           0        8.540501    0.470295    0.211428
     22          6           0       -8.662290   -0.309093   -0.214298
     23          6           0        7.440034    1.390887    0.316589
     24          6           0       -7.569722   -1.286805   -0.346013
     25          6           0        7.633408    2.894751    0.523402
     26          6           0       -7.777935   -2.756379   -0.544822
     27          6           0        6.114436    0.821187    0.200985
     28          6           0       -6.270495   -0.898912   -0.186010
     29          6           0        4.828615    1.467788    0.343741
     30          6           0       -5.098698   -1.616257   -0.335422
     31          6           0        3.695890    0.874358    0.117833
     32          6           0       -3.814047   -1.090031   -0.221881
     33          6           0        2.419807    1.404526    0.045269
     34          6           0       -2.531128   -1.838774   -0.589113
     35          6           0        2.195835    2.905748    0.415779
     36          6           0       -2.471086   -3.246330   -1.002473
     37          6           0        1.297052    0.644378   -0.202152
     38          6           0       -1.279004   -1.086524   -0.363643
     39          6           0        1.211400   -0.859263   -0.464381
     40          6           0       -0.035460   -1.496334   -0.509892
     41          1           0       14.063513   -0.234399    0.175954
     42          1           0       14.133672   -0.286562   -1.192431
     43          1           0      -12.456437    1.859372    1.944307
     44          1           0      -13.759673    1.037135    1.864781
     45          1           0       13.946878   -2.703694   -0.161016
     46          1           0       12.695633   -2.306501   -1.170137
     47          1           0      -14.017961    3.040873    0.357797
     48          1           0      -14.030872    1.359233   -0.648363
     49          1           0       12.811642   -2.114039    1.807392
     50          1           0       11.902920   -3.127523    0.843350
     51          1           0      -11.510384    3.456583   -0.053744
     52          1           0      -12.416310    2.892221   -1.628279
     53          1           0       11.581084   -0.512638   -2.416249
     54          1           0       12.535964    0.793916   -2.739561
     55          1           0       10.979186    1.382919   -2.348393
     56          1           0       12.887126    1.929541    0.956102
     57          1           0       11.925979    2.684895   -0.214174
     58          1           0       13.428353    2.359804   -0.578224
     59          1           0      -13.493174   -1.171082   -0.431782
     60          1           0      -14.001462   -1.176508    1.404261
     61          1           0      -12.620603   -2.337967    0.560382
     62          1           0      -10.720105    0.457747    2.607587
     63          1           0      -10.792767   -1.260806    2.228122
     64          1           0      -12.243935   -0.580250    3.152751
     65          1           0       10.032456    1.910913    0.612718
     66          1           0      -10.193447   -1.734509   -0.131447
     67          1           0        9.229647   -0.909966    2.430384
     68          1           0       10.565305   -2.302785    2.604892
     69          1           0        9.338574   -2.457002    1.362424
     70          1           0       -9.473752    0.925254   -2.330126
     71          1           0       -9.322218    2.532891   -1.463780
     72          1           0      -10.625590    2.171529   -2.878516
     73          1           0        8.458605   -0.559822    0.048247
     74          1           0       -8.259666    0.768579   -0.101753
     75          1           0        8.116561    3.174203    1.563415
     76          1           0        6.823701    3.519487    0.457691
     77          1           0        8.400513    3.226196   -0.165152
     78          1           0       -8.342040   -2.909750   -1.473465
     79          1           0       -8.472515   -3.440478    0.269111
     80          1           0       -6.710877   -3.203936   -0.528067
     81          1           0        6.145107   -0.239930    0.249587
     82          1           0       -6.028457    0.157684   -0.026364
     83          1           0        4.813291    2.365006    0.375190
     84          1           0       -5.167864   -2.697348   -0.647863
     85          1           0        3.839716   -0.207712    0.040133
     86          1           0       -3.784744   -0.049885    0.007205
     87          1           0        2.842571    3.167432    1.232425
     88          1           0        1.132290    3.219243    0.565695
     89          1           0        2.455970    3.795556   -0.394587
     90          1           0       -3.204734   -3.340244   -1.754486
     91          1           0       -2.929824   -3.916620   -0.260639
     92          1           0       -1.530827   -3.955099   -1.250821
     93          1           0        0.268971    1.226219   -0.263558
     94          1           0       -1.282220    0.114860   -0.427336
     95          1           0        2.134231   -1.434818   -0.318109
     96          1           0        0.147081   -2.656193   -0.740533
 ---------------------------------------------------------------------

 SCF Done:  E(RB3LYP) =  -1557.52823805     A.U. after   17 cycles

 Excitation energies and oscillator strengths:

 Excited State   1:      Singlet-A      1.9461 eV  637.10 nm  f=2.5278  <S**2>=0.000
     147 ->149         0.14910
     148 ->149         0.69501
     148 <-149        -0.11927
 This state for optimization and/or second-order correction.
 Total Energy, E(TD-HF/TD-DFT) =  -1557.45672131
 Copying the excited state density for this state as the 1-particle RhoCI density.

 The electronic state is 1-A.
 Alpha  occ. eigenvalues --  -10.22582 -10.20833 -10.20500 -10.20250 -10.20105
 Alpha  occ. eigenvalues --  -10.20091 -10.20070 -10.19996 -10.19996 -10.19952
 Alpha  occ. eigenvalues --  -10.19896 -10.19743 -10.19479 -10.19447 -10.19390
 Alpha  occ. eigenvalues --  -10.19387 -10.19368 -10.19273 -10.19230 -10.19139
 Alpha  occ. eigenvalues --  -10.19028 -10.18958 -10.18936 -10.18701 -10.18569
 Alpha  occ. eigenvalues --  -10.18409 -10.18380 -10.18368 -10.18085 -10.17988
 Alpha  occ. eigenvalues --  -10.17961 -10.17951 -10.17735 -10.17708 -10.17121
 Alpha  occ. eigenvalues --  -10.16982 -10.16775 -10.15861 -10.15743 -10.15225
 Alpha  occ. eigenvalues --   -0.85139  -0.85039  -0.83513  -0.83342  -0.81723
 Alpha  occ. eigenvalues --   -0.80620  -0.79309  -0.79242  -0.78442  -0.77471
 Alpha  occ. eigenvalues --   -0.76658  -0.75321  -0.74383  -0.72092  -0.71758
 Alpha  occ. eigenvalues --   -0.69548  -0.68920  -0.68640  -0.68122  -0.68064
 Alpha  occ. eigenvalues --   -0.67582  -0.66756  -0.66608  -0.66235  -0.65321
 Alpha  occ. eigenvalues --   -0.62910  -0.62061  -0.60272  -0.58600  -0.56928
 Alpha  occ. eigenvalues --   -0.56823  -0.56485  -0.56202  -0.54513  -0.54011
 Alpha  occ. eigenvalues --   -0.52605  -0.52154  -0.50539  -0.49229  -0.49111
 Alpha  occ. eigenvalues --   -0.47877  -0.47485  -0.47015  -0.46819  -0.45777
 Alpha  occ. eigenvalues --   -0.45512  -0.44998  -0.44584  -0.44213  -0.43474
 Alpha  occ. eigenvalues --   -0.43392  -0.43272  -0.42861  -0.42455  -0.42388
 Alpha  occ. eigenvalues --   -0.42057  -0.41557  -0.41252  -0.40770  -0.40283
 Alpha  occ. eigenvalues --   -0.40138  -0.39926  -0.39815  -0.39306  -0.39069
 Alpha  occ. eigenvalues --   -0.38916  -0.38764  -0.38224  -0.38214  -0.37879
 Alpha  occ. eigenvalues --   -0.37767  -0.37272  -0.36894  -0.36745  -0.36491
 Alpha  occ. eigenvalues --   -0.36401  -0.36054  -0.35753  -0.35681  -0.35360
 Alpha  occ. eigenvalues --   -0.35128  -0.34902  -0.34767  -0.34164  -0.33842
 Alpha  occ. eigenvalues --   -0.33761  -0.32901  -0.32873  -0.32698  -0.32600
 Alpha  occ. eigenvalues --   -0.32297  -0.32131  -0.31888  -0.31625  -0.31541
 Alpha  occ. eigenvalues --   -0.29880  -0.29659  -0.29544  -0.29177  -0.28930
 Alpha  occ. eigenvalues --   -0.28411  -0.27587  -0.25892  -0.23910  -0.22514
 Alpha  occ. eigenvalues --   -0.21144  -0.18439  -0.15770
 Alpha virt. eigenvalues --   -0.08713  -0.04973  -0.01936   0.01060   0.02163
 Alpha virt. eigenvalues --    0.03868   0.06105   0.06206   0.06922   0.07221
 Alpha virt. eigenvalues --    0.07507   0.08282   0.08475   0.08603   0.09084

 Mulliken charges:
               1
     1  C    0.018637
     2  C   -0.007873
     3  C   -0.166506
     4  C   -0.144908
     5  C   -0.199856
     6  C   -0.183859
     7  C    0.047772
     8  C    0.071017
     9  C   -0.231094
    10  C   -0.191858
    11  C    0.093599
    12  C    0.096019
    13  C   -0.301470
    14  C   -0.326448
    15  C   -0.292505
    16  C   -0.297276
    17  C   -0.135534
    18  C   -0.167639
    19  C   -0.357220
    20  C   -0.366817
    21  C   -0.092204
    22  C   -0.049584
    23  C    0.109752
    24  C    0.123862
    25  C   -0.377746
    26  C   -0.360490
    27  C   -0.149369
    28  C   -0.119281
    29  C   -0.016315
    30  C   -0.070926
    31  C   -0.087627
    32  C   -0.116179
    33  C    0.130184
    34  C    0.082716
    35  C   -0.372438
    36  C   -0.386045
    37  C   -0.141415
    38  C   -0.100918
    39  C   -0.100191
    40  C   -0.064581
    41  H    0.091491
    42  H    0.081633
    43  H    0.095635
    44  H    0.089879
    45  H    0.094424
    46  H    0.112430
    47  H    0.059239
    48  H    0.080400
    49  H    0.096344
    50  H    0.092875
    51  H    0.076399
    52  H    0.089896
    53  H    0.105683
    54  H    0.079955
    55  H    0.097401
    56  H    0.116442
    57  H    0.097518
    58  H    0.091816
    59  H    0.088344
    60  H    0.094031
    61  H    0.085171
    62  H    0.101227
    63  H    0.107556
    64  H    0.094387
    65  H    0.079920
    66  H    0.081641
    67  H    0.134962
    68  H    0.097555
    69  H    0.090577
    70  H    0.106790
    71  H    0.124866
    72  H    0.079560
    73  H    0.083598
    74  H    0.077567
    75  H    0.100934
    76  H    0.123298
    77  H    0.121007
    78  H    0.123306
    79  H    0.080404
    80  H    0.101705
    81  H    0.070807
    82  H    0.067662
    83  H    0.031761
    84  H    0.073218
    85  H    0.065253
    86  H    0.085552
    87  H    0.123702
    88  H    0.111977
    89  H    0.080211
    90  H    0.135468
    91  H    0.125431
    92  H    0.118237
    93  H    0.070238
    94  H    0.064973
    95  H    0.096536
    96  H    0.053723
 Sum of Mulliken charges =  -0.00000

 Dipole moment (field-independent basis, Debye):
    X=              1.0061    Y=             -0.2197    Z=              0.2838  Tot=              1.0682
 Quadrupole moment (field-independent basis, Debye-Ang):
   XX=           -205.3960   YY=           -231.4947   ZZ=           -256.4516
   XY=             -0.9600   XZ=              2.0491   YZ=              3.9298

 Normal termination of Gaussian 16 at Tue Jul 30 05:34:43 2019.
