 Gaussian 16, Revision A.03,
 Gaussian 16:  ES64L-G16RevA.03 25-Dec-2016

 ---------------------------------
 # td=(NStates=1) B3LYP/6-31G(d,p)
 ---------------------------------

 --
 TD
 --
 Symbolic Z-matrix:
 Charge =  0 Multiplicity = 1

                         Standard orientation:
 ---------------------------------------------------------------------
 Center     Atomic      Atomic             Coordinates (Angstroms)
 Number     Number       Type             X           Y           Z
 ---------------------------------------------------------------------
      1          6           0       12.160463    0.558838   -0.752816
      2          6           0      -12.207725    0.014429    0.804956
      3          6           0       13.481671   -0.265153   -0.609628
      4          6           0      -13.140024    1.139809    1.143962
      5          6           0       13.149084   -1.790337   -0.553111
      6          6           0      -13.314225    2.135011    0.036279
      7          6           0       11.061568    0.095799    0.274685
      8          6           0      -10.967639    0.451419   -0.086723
      9          6           0       12.305470   -2.118870    0.726054
     10          6           0      -11.954048    2.751560   -0.494617
     11          6           0       11.230660   -1.054081    0.890390
     12          6           0      -10.948562    1.726946   -0.683365
     13          6           0       11.585722    0.454364   -2.117021
     14          6           0       12.485327    2.081511   -0.459085
     15          6           0      -13.099512   -1.002489   -0.060487
     16          6           0      -11.732467   -0.629238    2.003979
     17          6           0        9.907507    1.011209    0.325457
     18          6           0       -9.916379   -0.489339   -0.186317
     19          6           0       10.162814   -1.537872    1.866504
     20          6           0       -9.887447    2.121018   -1.693085
     21          6           0        8.562509    0.524798    0.315162
     22          6           0       -8.620794   -0.376478   -0.354962
     23          6           0        7.416659    1.316908    0.390051
     24          6           0       -7.575883   -1.379835   -0.331463
     25          6           0        7.525840    2.849617    0.820864
     26          6           0       -7.884930   -2.812228   -0.496520
     27          6           0        6.163958    0.752282    0.261391
     28          6           0       -6.263656   -0.929811   -0.245207
     29          6           0        4.867162    1.281601    0.473703
     30          6           0       -4.935753   -1.781223   -0.227705
     31          6           0        3.696427    0.616696    0.179295
     32          6           0       -3.760664   -1.096991   -0.182036
     33          6           0        2.409708    1.193805    0.237095
     34          6           0       -2.526625   -1.878659   -0.254697
     35          6           0        2.268114    2.630041    0.539499
     36          6           0       -2.541336   -3.397546   -0.818290
     37          6           0        1.278145    0.413063    0.149393
     38          6           0       -1.352107   -1.107312   -0.206858
     39          6           0        1.254479   -1.073113   -0.104954
     40          6           0       -0.023957   -1.648901   -0.291413
     41          1           0       14.144473    0.057447    0.230791
     42          1           0       14.099892   -0.260781   -1.579987
     43          1           0      -12.776082    1.835465    2.154146
     44          1           0      -14.203880    0.692013    1.532563
     45          1           0       13.978569   -2.234304   -0.334816
     46          1           0       12.745458   -2.141025   -1.375101
     47          1           0      -14.128631    2.976320    0.193966
     48          1           0      -14.026235    1.776082   -0.789838
     49          1           0       12.857174   -1.958822    1.539785
     50          1           0       11.690328   -3.283401    0.691033
     51          1           0      -11.600901    3.577564    0.216341
     52          1           0      -12.223874    3.261022   -1.512270
     53          1           0       11.376219   -0.700485   -2.851422
     54          1           0       12.222883    0.819585   -2.954628
     55          1           0       10.656485    0.875932   -2.414881
     56          1           0       12.837475    2.400433    0.645196
     57          1           0       11.712434    2.709167   -0.897980
     58          1           0       13.381955    2.436448   -0.988415
     59          1           0      -13.651099   -0.413595   -0.778554
     60          1           0      -13.851025   -1.534850    0.609733
     61          1           0      -12.443183   -1.951804   -0.263548
     62          1           0      -11.256721    0.129976    2.831015
     63          1           0      -10.932545   -1.357198    1.694974
     64          1           0      -12.608761   -1.185750    2.756545
     65          1           0       10.327397    1.956103    0.426468
     66          1           0      -10.182720   -1.545326   -0.247860
     67          1           0        9.565150   -0.794025    2.209571
     68          1           0       10.649388   -2.281221    2.673345
     69          1           0        9.511975   -2.301402    1.418253
     70          1           0       -9.346523    1.081127   -1.983630
     71          1           0       -9.234060    2.959407   -1.418306
     72          1           0      -10.581025    2.520148   -2.471830
     73          1           0        8.546980   -0.506756    0.178494
     74          1           0       -8.236971    0.644116   -0.253608
     75          1           0        7.941795    3.023932    1.834828
     76          1           0        6.491849    3.430896    0.639914
     77          1           0        8.312825    3.407262    0.168580
     78          1           0       -8.438688   -3.040696   -1.519861
     79          1           0       -8.613903   -3.013760    0.448940
     80          1           0       -6.967069   -3.625832   -0.229764
     81          1           0        6.271997   -0.295021    0.086438
     82          1           0       -6.131443    0.136594   -0.115982
     83          1           0        5.106480    2.272473    0.696380
     84          1           0       -5.036471   -2.771456   -0.281241
     85          1           0        3.739459   -0.472094   -0.234425
     86          1           0       -3.606170   -0.157317   -0.241370
     87          1           0        2.656679    3.112184    1.381924
     88          1           0        1.202110    2.979553    0.562646
     89          1           0        2.678544    3.194388   -0.330841
     90          1           0       -2.892140   -3.560470   -1.695015
     91          1           0       -3.173831   -3.814188   -0.215348
     92          1           0       -1.575744   -3.904602   -0.911011
     93          1           0        0.377700    0.834825    0.271967
     94          1           0       -1.509237   -0.027237   -0.032458
     95          1           0        2.121641   -1.803801   -0.105027
     96          1           0        0.106288   -2.670732   -0.434972
 ---------------------------------------------------------------------

 SCF Done:  E(RB3LYP) =  -1557.49028011     A.U. after   16 cycles

 Excitation energies and oscillator strengths:

 Excited State   1:      Singlet-A      2.1570 eV  574.79 nm  f=2.8510  <S**2>=0.000
     148 ->149         0.70328
 This state for optimization and/or second-order correction.
 Total Energy, E(TD-HF/TD-DFT) =  -1557.41101075
 Copying the excited state density for this state as the 1-particle RhoCI density.

 The electronic state is 1-A.
 Alpha  occ. eigenvalues --  -10.21832 -10.21078 -10.20720 -10.20281 -10.20248
 Alpha  occ. eigenvalues --  -10.20203 -10.20196 -10.19961 -10.19960 -10.19860
 Alpha  occ. eigenvalues --  -10.19613 -10.19609 -10.19604 -10.19551 -10.19524
 Alpha  occ. eigenvalues --  -10.19495 -10.19340 -10.19264 -10.19234 -10.18923
 Alpha  occ. eigenvalues --  -10.18863 -10.18815 -10.18741 -10.18602 -10.18589
 Alpha  occ. eigenvalues --  -10.18570 -10.18541 -10.18411 -10.18399 -10.18373
 Alpha  occ. eigenvalues --  -10.18215 -10.18201 -10.17958 -10.17771 -10.17624
 Alpha  occ. eigenvalues --  -10.17615 -10.17206 -10.16777 -10.16629 -10.15208
 Alpha  occ. eigenvalues --   -0.85386  -0.84559  -0.83353  -0.82956  -0.82047
 Alpha  occ. eigenvalues --   -0.81400  -0.79246  -0.78472  -0.77947  -0.77519
 Alpha  occ. eigenvalues --   -0.76891  -0.74997  -0.73930  -0.72497  -0.71359
 Alpha  occ. eigenvalues --   -0.70918  -0.68496  -0.67769  -0.67483  -0.67299
 Alpha  occ. eigenvalues --   -0.67188  -0.66851  -0.66526  -0.66301  -0.66066
 Alpha  occ. eigenvalues --   -0.63684  -0.62245  -0.60247  -0.59950  -0.57740
 Alpha  occ. eigenvalues --   -0.56493  -0.56172  -0.55518  -0.54556  -0.54010
 Alpha  occ. eigenvalues --   -0.52446  -0.51862  -0.51227  -0.49805  -0.49232
 Alpha  occ. eigenvalues --   -0.48246  -0.47970  -0.47062  -0.46354  -0.45841
 Alpha  occ. eigenvalues --   -0.45410  -0.45214  -0.44600  -0.44446  -0.44385
 Alpha  occ. eigenvalues --   -0.43305  -0.43115  -0.42812  -0.42693  -0.42399
 Alpha  occ. eigenvalues --   -0.41828  -0.41680  -0.41596  -0.41337  -0.40763
 Alpha  occ. eigenvalues --   -0.40615  -0.40337  -0.40102  -0.39939  -0.39546
 Alpha  occ. eigenvalues --   -0.39040  -0.38746  -0.38469  -0.38189  -0.37868
 Alpha  occ. eigenvalues --   -0.37479  -0.37383  -0.36769  -0.36686  -0.36395
 Alpha  occ. eigenvalues --   -0.36152  -0.36080  -0.35643  -0.35560  -0.35252
 Alpha  occ. eigenvalues --   -0.34898  -0.34732  -0.34399  -0.34146  -0.33629
 Alpha  occ. eigenvalues --   -0.33362  -0.33232  -0.32840  -0.32485  -0.32369
 Alpha  occ. eigenvalues --   -0.32310  -0.32123  -0.31513  -0.31070  -0.30777
 Alpha  occ. eigenvalues --   -0.30646  -0.30004  -0.29027  -0.28541  -0.28232
 Alpha  occ. eigenvalues --   -0.27859  -0.27191  -0.26049  -0.24441  -0.22989
 Alpha  occ. eigenvalues --   -0.20874  -0.18692  -0.16342
 Alpha virt. eigenvalues --   -0.08103  -0.05504  -0.02564   0.00635   0.02501
 Alpha virt. eigenvalues --    0.04904   0.05573   0.05898   0.06398   0.06936
 Alpha virt. eigenvalues --    0.07040   0.07966   0.08103   0.08361   0.08553

 Mulliken charges:
               1
     1  C    0.020517
     2  C    0.026179
     3  C   -0.200228
     4  C   -0.147230
     5  C   -0.170287
     6  C   -0.188554
     7  C    0.065103
     8  C    0.109158
     9  C   -0.207310
    10  C   -0.221119
    11  C    0.052072
    12  C    0.064552
    13  C   -0.285512
    14  C   -0.330560
    15  C   -0.299697
    16  C   -0.273546
    17  C   -0.119299
    18  C   -0.139342
    19  C   -0.366204
    20  C   -0.354903
    21  C   -0.119473
    22  C   -0.116182
    23  C    0.128924
    24  C    0.141921
    25  C   -0.375293
    26  C   -0.366932
    27  C   -0.129192
    28  C   -0.147950
    29  C   -0.046590
    30  C   -0.080783
    31  C   -0.121302
    32  C   -0.046447
    33  C    0.140973
    34  C    0.064028
    35  C   -0.387148
    36  C   -0.359485
    37  C   -0.117398
    38  C   -0.116826
    39  C   -0.104313
    40  C   -0.092422
    41  H    0.090744
    42  H    0.086884
    43  H    0.050753
    44  H    0.074657
    45  H    0.095397
    46  H    0.114626
    47  H    0.068919
    48  H    0.088180
    49  H    0.122990
    50  H    0.056851
    51  H    0.112750
    52  H    0.087845
    53  H    0.026457
    54  H    0.098536
    55  H    0.126828
    56  H    0.091057
    57  H    0.111018
    58  H    0.099726
    59  H    0.116189
    60  H    0.092215
    61  H    0.091515
    62  H    0.081476
    63  H    0.097378
    64  H    0.057828
    65  H    0.093155
    66  H    0.077517
    67  H    0.124580
    68  H    0.069268
    69  H    0.107160
    70  H    0.109451
    71  H    0.115985
    72  H    0.098590
    73  H    0.098284
    74  H    0.086169
    75  H    0.128181
    76  H    0.096037
    77  H    0.103069
    78  H    0.119330
    79  H    0.102241
    80  H    0.089299
    81  H    0.061129
    82  H    0.073985
    83  H    0.062040
    84  H    0.072518
    85  H    0.081400
    86  H    0.074711
    87  H    0.130154
    88  H    0.095309
    89  H    0.114270
    90  H    0.137467
    91  H    0.128511
    92  H    0.107702
    93  H    0.073203
    94  H    0.080098
    95  H    0.095503
    96  H    0.070966
 Sum of Mulliken charges =  -0.00000

 Dipole moment (field-independent basis, Debye):
    X=             -0.3924    Y=              0.2293    Z=             -0.7375  Tot=              0.8663
 Quadrupole moment (field-independent basis, Debye-Ang):
   XX=           -225.4868   YY=           -232.6116   ZZ=           -257.7922
   XY=              0.7684   XZ=              4.2041   YZ=              2.8600

 Normal termination of Gaussian 16 at Sat Jul 27 00:23:58 2019.
