 Gaussian 16, Revision A.03,
 Gaussian 16:  ES64L-G16RevA.03 25-Dec-2016

 ---------------------------------
 # td=(NStates=1) B3LYP/6-31G(d,p)
 ---------------------------------

 --
 TD
 --
 Symbolic Z-matrix:
 Charge =  0 Multiplicity = 1

                         Standard orientation:
 ---------------------------------------------------------------------
 Center     Atomic      Atomic             Coordinates (Angstroms)
 Number     Number       Type             X           Y           Z
 ---------------------------------------------------------------------
      1          6           0       12.148008   -0.525563    0.755678
      2          6           0      -12.091655    0.135062   -0.857868
      3          6           0       13.352243    0.290748    0.626080
      4          6           0      -13.114245   -1.013188   -1.134799
      5          6           0       13.125909    1.813240    0.668130
      6          6           0      -13.572225   -1.956271    0.022832
      7          6           0       11.014215   -0.037896   -0.121371
      8          6           0      -10.993001   -0.499283    0.020209
      9          6           0       12.212527    2.122752   -0.604717
     10          6           0      -12.268972   -2.633312    0.609979
     11          6           0       11.109711    1.150501   -0.756026
     12          6           0      -11.093109   -1.691557    0.852051
     13          6           0       11.672577   -0.638857    2.182074
     14          6           0       12.573454   -1.992386    0.328092
     15          6           0      -12.913478    1.186750   -0.102015
     16          6           0      -11.453356    0.672234   -2.002398
     17          6           0        9.888771   -0.951730   -0.266178
     18          6           0       -9.863153    0.443227    0.276688
     19          6           0       10.087106    1.675519   -1.698440
     20          6           0      -10.123812   -2.084243    1.748457
     21          6           0        8.670655   -0.490415   -0.159695
     22          6           0       -8.507596    0.175056    0.337294
     23          6           0        7.410318   -1.318604   -0.359724
     24          6           0       -7.551350    1.237484    0.364847
     25          6           0        7.670663   -2.838380   -0.591638
     26          6           0       -7.802920    2.634903    0.636111
     27          6           0        6.235974   -0.666410   -0.398022
     28          6           0       -6.229924    0.842338    0.173929
     29          6           0        4.912666   -1.303541   -0.583208
     30          6           0       -5.006364    1.595982    0.331286
     31          6           0        3.738247   -0.618217   -0.317128
     32          6           0       -3.724911    1.144306    0.413356
     33          6           0        2.379521   -1.317379   -0.524037
     34          6           0       -2.535964    1.839490    0.422950
     35          6           0        2.231010   -2.764683   -0.856476
     36          6           0       -2.571781    3.385149    0.592630
     37          6           0        1.280407   -0.481287   -0.445260
     38          6           0       -1.318613    1.072239    0.245514
     39          6           0        1.183872    0.951854   -0.120191
     40          6           0        0.007352    1.609333    0.194421
     41          1           0       13.876266    0.104878   -0.281287
     42          1           0       14.122587    0.159720    1.539509
     43          1           0      -12.594812   -1.683003   -1.879891
     44          1           0      -13.929733   -0.606687   -1.864825
     45          1           0       14.087976    2.401629    0.620582
     46          1           0       12.535131    2.014720    1.504561
     47          1           0      -14.288379   -2.745519   -0.199433
     48          1           0      -13.963550   -1.288898    0.822527
     49          1           0       12.812534    2.271622   -1.394880
     50          1           0       11.816475    3.178778   -0.466359
     51          1           0      -11.987465   -3.573024    0.107693
     52          1           0      -12.648921   -3.010613    1.596204
     53          1           0       11.545107    0.380537    2.249521
     54          1           0       12.345148   -1.225503    3.018550
     55          1           0       10.536919   -1.190249    2.505718
     56          1           0       12.772559   -1.985290   -0.784819
     57          1           0       11.865808   -2.808719    0.581175
     58          1           0       13.613866   -2.042074    0.807511
     59          1           0      -13.458498    0.657588    0.602554
     60          1           0      -13.556954    1.970650   -0.873615
     61          1           0      -11.973945    1.849208    0.628997
     62          1           0      -10.866373   -0.023982   -2.762231
     63          1           0      -10.730159    1.446925   -1.849092
     64          1           0      -12.311372    0.847231   -2.717768
     65          1           0       10.170286   -1.962863   -0.401023
     66          1           0      -10.241668    1.465487    0.361032
     67          1           0        9.508055    0.911793   -2.378819
     68          1           0       10.749562    2.205510   -2.318890
     69          1           0        9.344848    2.421507   -1.403749
     70          1           0       -9.288565   -1.356544    2.047810
     71          1           0       -9.635346   -3.049477    1.144114
     72          1           0      -10.817869   -2.349139    2.704333
     73          1           0        8.681369    0.504703    0.190727
     74          1           0       -8.045416   -0.846024    0.209459
     75          1           0        8.038840   -2.960149   -1.625230
     76          1           0        6.711656   -3.343585   -0.757325
     77          1           0        8.144461   -3.368563    0.136064
     78          1           0       -8.201332    2.854036    1.694521
     79          1           0       -8.527335    3.042547   -0.146314
     80          1           0       -6.983734    3.294427    0.641910
     81          1           0        6.240034    0.396159   -0.280250
     82          1           0       -5.934950   -0.246680    0.029776
     83          1           0        4.933144   -2.381034   -0.684146
     84          1           0       -5.102812    2.635775    0.635534
     85          1           0        3.699238    0.431576   -0.034846
     86          1           0       -3.727641    0.058201   -0.096274
     87          1           0        2.794703   -2.944829   -1.672190
     88          1           0        1.170938   -3.077803   -0.729497
     89          1           0        2.836629   -3.162205   -0.235344
     90          1           0       -3.293282    3.713668    1.391718
     91          1           0       -3.003359    3.866971   -0.312560
     92          1           0       -1.649814    3.895690    0.704918
     93          1           0        0.319891   -0.893149   -0.618889
     94          1           0       -1.607435    0.101929    0.254166
     95          1           0        2.052908    1.544658    0.069860
     96          1           0        0.031125    2.567693    0.547996
 ---------------------------------------------------------------------

 SCF Done:  E(RB3LYP) =  -1557.57181046     A.U. after   16 cycles

 Excitation energies and oscillator strengths:

 Excited State   1:      Singlet-A      2.2175 eV  559.12 nm  f=2.9632  <S**2>=0.000
     148 ->149         0.69913
     148 <-149        -0.11302
 This state for optimization and/or second-order correction.
 Total Energy, E(TD-HF/TD-DFT) =  -1557.49031918
 Copying the excited state density for this state as the 1-particle RhoCI density.

 The electronic state is 1-A.
 Alpha  occ. eigenvalues --  -10.20744 -10.20369 -10.20240 -10.20104 -10.20048
 Alpha  occ. eigenvalues --  -10.19853 -10.19820 -10.19771 -10.19669 -10.19551
 Alpha  occ. eigenvalues --  -10.19207 -10.19176 -10.19160 -10.19135 -10.19069
 Alpha  occ. eigenvalues --  -10.18923 -10.18879 -10.18841 -10.18829 -10.18786
 Alpha  occ. eigenvalues --  -10.18605 -10.18567 -10.18550 -10.18456 -10.18313
 Alpha  occ. eigenvalues --  -10.18307 -10.18188 -10.18136 -10.18114 -10.18111
 Alpha  occ. eigenvalues --  -10.17874 -10.17845 -10.17751 -10.17587 -10.17540
 Alpha  occ. eigenvalues --  -10.17388 -10.17348 -10.17040 -10.16787 -10.16502
 Alpha  occ. eigenvalues --   -0.86120  -0.85261  -0.83191  -0.82486  -0.81820
 Alpha  occ. eigenvalues --   -0.81154  -0.80267  -0.79300  -0.78421  -0.77683
 Alpha  occ. eigenvalues --   -0.76613  -0.74652  -0.74346  -0.72545  -0.72413
 Alpha  occ. eigenvalues --   -0.70740  -0.69050  -0.68686  -0.68153  -0.67904
 Alpha  occ. eigenvalues --   -0.67507  -0.67199  -0.66597  -0.66324  -0.65763
 Alpha  occ. eigenvalues --   -0.62482  -0.61436  -0.59999  -0.59164  -0.57223
 Alpha  occ. eigenvalues --   -0.56665  -0.55149  -0.54473  -0.54042  -0.53004
 Alpha  occ. eigenvalues --   -0.52484  -0.51922  -0.51106  -0.49976  -0.49309
 Alpha  occ. eigenvalues --   -0.47969  -0.47589  -0.47409  -0.46898  -0.46420
 Alpha  occ. eigenvalues --   -0.45832  -0.45168  -0.45111  -0.44492  -0.44090
 Alpha  occ. eigenvalues --   -0.43553  -0.43318  -0.43221  -0.42723  -0.42527
 Alpha  occ. eigenvalues --   -0.42249  -0.41941  -0.41886  -0.41830  -0.41653
 Alpha  occ. eigenvalues --   -0.41438  -0.40478  -0.40140  -0.39969  -0.39470
 Alpha  occ. eigenvalues --   -0.39338  -0.38736  -0.38654  -0.38341  -0.38068
 Alpha  occ. eigenvalues --   -0.37888  -0.37755  -0.37200  -0.37004  -0.36858
 Alpha  occ. eigenvalues --   -0.36504  -0.36280  -0.35985  -0.35858  -0.35509
 Alpha  occ. eigenvalues --   -0.35257  -0.34629  -0.34557  -0.34293  -0.33837
 Alpha  occ. eigenvalues --   -0.33615  -0.32915  -0.32710  -0.32295  -0.32163
 Alpha  occ. eigenvalues --   -0.31756  -0.31428  -0.31264  -0.30906  -0.30741
 Alpha  occ. eigenvalues --   -0.30595  -0.29659  -0.29470  -0.28864  -0.28515
 Alpha  occ. eigenvalues --   -0.28346  -0.27372  -0.25700  -0.23821  -0.22342
 Alpha  occ. eigenvalues --   -0.20628  -0.18875  -0.15948
 Alpha virt. eigenvalues --   -0.07825  -0.04336  -0.01837   0.00711   0.02108
 Alpha virt. eigenvalues --    0.04188   0.05501   0.06111   0.06778   0.07120
 Alpha virt. eigenvalues --    0.07675   0.08701   0.08940   0.09203   0.09300

 Mulliken charges:
               1
     1  C   -0.006882
     2  C    0.012691
     3  C   -0.179414
     4  C   -0.188183
     5  C   -0.207395
     6  C   -0.188038
     7  C    0.052024
     8  C    0.061666
     9  C   -0.247528
    10  C   -0.223637
    11  C    0.073102
    12  C    0.090847
    13  C   -0.258496
    14  C   -0.307405
    15  C   -0.240374
    16  C   -0.292194
    17  C   -0.089574
    18  C   -0.156662
    19  C   -0.366558
    20  C   -0.339819
    21  C   -0.091481
    22  C   -0.104765
    23  C    0.084267
    24  C    0.156843
    25  C   -0.376190
    26  C   -0.381388
    27  C   -0.110750
    28  C   -0.142433
    29  C   -0.103004
    30  C   -0.078572
    31  C   -0.092657
    32  C   -0.136239
    33  C    0.077591
    34  C    0.120603
    35  C   -0.353767
    36  C   -0.386372
    37  C   -0.135006
    38  C   -0.096353
    39  C   -0.071654
    40  C   -0.104566
    41  H    0.103148
    42  H    0.070130
    43  H    0.087030
    44  H    0.066009
    45  H    0.085169
    46  H    0.112814
    47  H    0.104004
    48  H    0.100873
    49  H    0.121063
    50  H    0.091042
    51  H    0.108886
    52  H    0.086574
    53  H    0.106120
    54  H    0.081081
    55  H    0.062717
    56  H    0.088070
    57  H    0.100276
    58  H    0.093650
    59  H    0.118779
    60  H    0.082036
    61  H    0.035686
    62  H    0.084655
    63  H    0.118548
    64  H    0.083532
    65  H    0.081992
    66  H    0.088233
    67  H    0.102600
    68  H    0.104794
    69  H    0.114047
    70  H    0.125037
    71  H    0.091875
    72  H    0.089861
    73  H    0.085776
    74  H    0.091969
    75  H    0.127731
    76  H    0.098035
    77  H    0.133642
    78  H    0.110338
    79  H    0.108665
    80  H    0.123349
    81  H    0.078316
    82  H    0.062761
    83  H    0.074901
    84  H    0.061575
    85  H    0.088627
    86  H    0.057705
    87  H    0.130124
    88  H    0.115817
    89  H    0.134280
    90  H    0.115683
    91  H    0.122301
    92  H    0.116049
    93  H    0.071798
    94  H    0.074502
    95  H    0.073989
    96  H    0.079460
 Sum of Mulliken charges =  -0.00000

 Dipole moment (field-independent basis, Debye):
    X=             -0.6672    Y=             -0.3627    Z=             -0.0301  Tot=              0.7600
 Quadrupole moment (field-independent basis, Debye-Ang):
   XX=           -213.5278   YY=           -231.7113   ZZ=           -256.5125
   XY=              9.0686   XZ=             -5.3439   YZ=              2.5212

 Normal termination of Gaussian 16 at Thu Aug  1 21:54:54 2019.
