 Gaussian 16, Revision A.03,
 Gaussian 16:  ES64L-G16RevA.03 25-Dec-2016

 ---------------------------------
 # td=(NStates=1) B3LYP/6-31G(d,p)
 ---------------------------------

 --
 TD
 --
 Symbolic Z-matrix:
 Charge =  0 Multiplicity = 1

                         Standard orientation:
 ---------------------------------------------------------------------
 Center     Atomic      Atomic             Coordinates (Angstroms)
 Number     Number       Type             X           Y           Z
 ---------------------------------------------------------------------
      1          6           0       12.153027    0.534568   -0.803856
      2          6           0      -12.105305   -0.043461    0.702131
      3          6           0       13.428272   -0.268205   -0.716691
      4          6           0      -12.940640    1.184211    1.234658
      5          6           0       13.195871   -1.856764   -0.565917
      6          6           0      -13.343893    2.044387    0.177198
      7          6           0       11.074139    0.104936    0.241135
      8          6           0      -11.094134    0.422684   -0.104670
      9          6           0       12.454907   -2.083983    0.630859
     10          6           0      -12.144392    2.673455   -0.563944
     11          6           0       11.252699   -1.174454    0.825644
     12          6           0      -11.134479    1.704419   -0.693626
     13          6           0       11.532263    0.477080   -2.167262
     14          6           0       12.613898    2.058875   -0.449914
     15          6           0      -12.927811   -1.023916   -0.167006
     16          6           0      -11.673783   -0.851866    1.971594
     17          6           0        9.885126    0.986283    0.459148
     18          6           0       -9.872934   -0.467128   -0.262861
     19          6           0       10.183654   -1.558425    1.918693
     20          6           0       -9.944098    2.230001   -1.602897
     21          6           0        8.557584    0.441083    0.320691
     22          6           0       -8.513978   -0.258890   -0.230561
     23          6           0        7.398671    1.342323    0.353298
     24          6           0       -7.523953   -1.238427   -0.405160
     25          6           0        7.607818    2.778347    0.776620
     26          6           0       -7.818561   -2.764744   -0.525531
     27          6           0        6.152355    0.734065    0.203495
     28          6           0       -6.285733   -0.894031   -0.306630
     29          6           0        4.868495    1.324157    0.370441
     30          6           0       -5.091396   -1.623779   -0.400949
     31          6           0        3.685272    0.591354    0.231975
     32          6           0       -3.803975   -1.143723   -0.252128
     33          6           0        2.350635    1.158584    0.331985
     34          6           0       -2.574825   -1.869108   -0.362904
     35          6           0        2.266964    2.695085    0.569401
     36          6           0       -2.624266   -3.336168   -0.556001
     37          6           0        1.242336    0.404830    0.287707
     38          6           0       -1.410599   -1.155092   -0.167785
     39          6           0        1.120192   -0.914488   -0.069077
     40          6           0        0.024179   -1.694498   -0.258415
     41          1           0       14.010140    0.240723    0.187084
     42          1           0       13.996393   -0.130223   -1.564260
     43          1           0      -12.373949    1.783717    2.087815
     44          1           0      -13.794784    0.764030    1.627341
     45          1           0       14.240642   -2.231475   -0.578459
     46          1           0       12.669386   -2.083894   -1.541959
     47          1           0      -13.770836    3.158143    0.695406
     48          1           0      -14.104521    1.558951   -0.406010
     49          1           0       12.988631   -2.065702    1.568191
     50          1           0       12.084131   -3.013455    0.502808
     51          1           0      -11.669884    3.534064   -0.098489
     52          1           0      -12.380939    2.949182   -1.550189
     53          1           0       11.244601   -0.600040   -2.304870
     54          1           0       12.221417    0.762457   -3.074701
     55          1           0       10.609752    1.040808   -1.985063
     56          1           0       12.675583    2.366310    0.554768
     57          1           0       11.757050    2.485328   -0.951934
     58          1           0       13.391797    2.533643   -1.079952
     59          1           0      -13.561750   -0.569623   -0.823651
     60          1           0      -13.742058   -1.494039    0.522969
     61          1           0      -12.381790   -1.797163   -0.584983
     62          1           0      -10.761833   -0.486182    2.397471
     63          1           0      -11.187397   -1.764470    1.536132
     64          1           0      -12.572102   -1.057181    2.547385
     65          1           0       10.104301    2.084722    0.770232
     66          1           0      -10.214188   -1.443169   -0.362790
     67          1           0        9.278566   -0.762803    2.062337
     68          1           0       10.612934   -1.640065    3.079849
     69          1           0        9.692087   -2.722982    1.637335
     70          1           0       -9.220199    1.169011   -1.683080
     71          1           0       -9.350654    3.051289   -0.886839
     72          1           0      -10.223856    2.659188   -2.294909
     73          1           0        8.247060   -0.554515    0.139428
     74          1           0       -8.330485    0.920282   -0.127819
     75          1           0        8.153170    2.860185    1.558621
     76          1           0        6.614674    3.408169    1.043659
     77          1           0        8.095958    3.101878   -0.130238
     78          1           0       -8.581917   -2.992633   -1.469211
     79          1           0       -8.301213   -3.158174    0.392705
     80          1           0       -7.035167   -3.439504   -1.044681
     81          1           0        6.278848   -0.289165   -0.159693
     82          1           0       -5.992867    0.055577   -0.103228
     83          1           0        4.663202    2.419103    0.635068
     84          1           0       -5.214107   -2.703560   -0.589679
     85          1           0        3.842325   -0.254860   -0.122980
     86          1           0       -3.540998   -0.218897   -0.042898
     87          1           0        2.768541    2.976990    1.473580
     88          1           0        1.252552    3.082819    0.604957
     89          1           0        2.833723    3.242387   -0.234406
     90          1           0       -3.286038   -3.749047   -1.284765
     91          1           0       -3.122989   -3.634318    0.351443
     92          1           0       -1.538527   -3.878642   -0.460928
     93          1           0        0.084965    0.864768    0.178592
     94          1           0       -1.582059   -0.214132    0.131617
     95          1           0        1.997218   -1.484358   -0.247651
     96          1           0        0.109848   -2.656924   -0.333817
 ---------------------------------------------------------------------

 SCF Done:  E(RB3LYP) =  -1557.43017290     A.U. after   16 cycles

 Excitation energies and oscillator strengths:

 Excited State   1:      Singlet-A      2.1681 eV  571.86 nm  f=2.8064  <S**2>=0.000
     148 ->149         0.70508
 This state for optimization and/or second-order correction.
 Total Energy, E(TD-HF/TD-DFT) =  -1557.35049699
 Copying the excited state density for this state as the 1-particle RhoCI density.

 The electronic state is 1-A.
 Alpha  occ. eigenvalues --  -10.21304 -10.21163 -10.20619 -10.20448 -10.20296
 Alpha  occ. eigenvalues --  -10.20242 -10.20106 -10.19856 -10.19636 -10.19552
 Alpha  occ. eigenvalues --  -10.19527 -10.19403 -10.19331 -10.19255 -10.19249
 Alpha  occ. eigenvalues --  -10.18800 -10.18657 -10.18550 -10.18479 -10.18474
 Alpha  occ. eigenvalues --  -10.18319 -10.18268 -10.18248 -10.18146 -10.18102
 Alpha  occ. eigenvalues --  -10.18043 -10.17840 -10.17747 -10.17740 -10.17724
 Alpha  occ. eigenvalues --  -10.17558 -10.17404 -10.17261 -10.17202 -10.17049
 Alpha  occ. eigenvalues --  -10.16941 -10.16905 -10.16709 -10.16616 -10.16473
 Alpha  occ. eigenvalues --   -0.86644  -0.84542  -0.84219  -0.83622  -0.82631
 Alpha  occ. eigenvalues --   -0.81977  -0.79717  -0.79011  -0.78679  -0.77552
 Alpha  occ. eigenvalues --   -0.76472  -0.75216  -0.74408  -0.71928  -0.70933
 Alpha  occ. eigenvalues --   -0.70412  -0.69446  -0.68935  -0.68592  -0.68320
 Alpha  occ. eigenvalues --   -0.67908  -0.67869  -0.67365  -0.67154  -0.65476
 Alpha  occ. eigenvalues --   -0.63237  -0.62063  -0.59787  -0.58971  -0.57594
 Alpha  occ. eigenvalues --   -0.57185  -0.56062  -0.55287  -0.54126  -0.53644
 Alpha  occ. eigenvalues --   -0.53275  -0.52948  -0.50966  -0.49726  -0.49323
 Alpha  occ. eigenvalues --   -0.49047  -0.48125  -0.47480  -0.47075  -0.46877
 Alpha  occ. eigenvalues --   -0.45753  -0.45462  -0.45087  -0.44878  -0.44628
 Alpha  occ. eigenvalues --   -0.44291  -0.43881  -0.43413  -0.42928  -0.42559
 Alpha  occ. eigenvalues --   -0.42326  -0.42234  -0.41713  -0.41456  -0.41393
 Alpha  occ. eigenvalues --   -0.41145  -0.40833  -0.40349  -0.40194  -0.39417
 Alpha  occ. eigenvalues --   -0.39282  -0.38889  -0.38412  -0.38057  -0.38012
 Alpha  occ. eigenvalues --   -0.37870  -0.37654  -0.37232  -0.37034  -0.36411
 Alpha  occ. eigenvalues --   -0.36115  -0.36045  -0.35944  -0.35725  -0.35261
 Alpha  occ. eigenvalues --   -0.34974  -0.34677  -0.34584  -0.34224  -0.33762
 Alpha  occ. eigenvalues --   -0.33534  -0.33480  -0.33107  -0.33087  -0.32878
 Alpha  occ. eigenvalues --   -0.32480  -0.32284  -0.32010  -0.31665  -0.30660
 Alpha  occ. eigenvalues --   -0.30441  -0.30037  -0.29741  -0.29145  -0.27976
 Alpha  occ. eigenvalues --   -0.26813  -0.26225  -0.25644  -0.23854  -0.22243
 Alpha  occ. eigenvalues --   -0.20663  -0.18517  -0.16522
 Alpha virt. eigenvalues --   -0.08168  -0.05537  -0.01888   0.00505   0.01988
 Alpha virt. eigenvalues --    0.03638   0.05310   0.06515   0.07318   0.07760
 Alpha virt. eigenvalues --    0.07879   0.08024   0.08438   0.08847   0.09252

 Mulliken charges:
               1
     1  C   -0.009009
     2  C   -0.063531
     3  C   -0.162847
     4  C   -0.145880
     5  C   -0.208646
     6  C   -0.182099
     7  C    0.068489
     8  C    0.128005
     9  C   -0.176546
    10  C   -0.204618
    11  C    0.041974
    12  C    0.029769
    13  C   -0.289594
    14  C   -0.328072
    15  C   -0.299843
    16  C   -0.288071
    17  C   -0.182953
    18  C   -0.147676
    19  C   -0.329423
    20  C   -0.297732
    21  C   -0.089199
    22  C   -0.132046
    23  C    0.099817
    24  C    0.132114
    25  C   -0.348533
    26  C   -0.374839
    27  C   -0.143135
    28  C   -0.068541
    29  C   -0.082223
    30  C   -0.095778
    31  C   -0.064341
    32  C   -0.095028
    33  C    0.098907
    34  C    0.151008
    35  C   -0.380940
    36  C   -0.387653
    37  C   -0.114641
    38  C   -0.141545
    39  C   -0.061306
    40  C   -0.080597
    41  H    0.066772
    42  H    0.087570
    43  H    0.082896
    44  H    0.090963
    45  H    0.093667
    46  H    0.095502
    47  H    0.036681
    48  H    0.103962
    49  H    0.118325
    50  H    0.113459
    51  H    0.112323
    52  H    0.110896
    53  H    0.096511
    54  H    0.087498
    55  H    0.108301
    56  H    0.110455
    57  H    0.094555
    58  H    0.096793
    59  H    0.108618
    60  H    0.067756
    61  H    0.118917
    62  H    0.109864
    63  H    0.080991
    64  H    0.103706
    65  H    0.109758
    66  H    0.074074
    67  H    0.115369
    68  H    0.075441
    69  H    0.058493
    70  H    0.097824
    71  H    0.063843
    72  H    0.089443
    73  H    0.105237
    74  H    0.099440
    75  H    0.135317
    76  H    0.087905
    77  H    0.131555
    78  H    0.078424
    79  H    0.132124
    80  H    0.115876
    81  H    0.075939
    82  H    0.063848
    83  H    0.075910
    84  H    0.056666
    85  H    0.058389
    86  H    0.058065
    87  H    0.128177
    88  H    0.112012
    89  H    0.115744
    90  H    0.124816
    91  H    0.134652
    92  H    0.088829
    93  H    0.058219
    94  H    0.070234
    95  H    0.071441
    96  H    0.066759
 Sum of Mulliken charges =  -0.00000

 Dipole moment (field-independent basis, Debye):
    X=              0.4059    Y=              0.0071    Z=             -0.0134  Tot=              0.4062
 Quadrupole moment (field-independent basis, Debye-Ang):
   XX=           -221.0754   YY=           -235.1574   ZZ=           -255.5620
   XY=              3.7596   XZ=              0.3520   YZ=              4.1582

 Normal termination of Gaussian 16 at Sat Jul 27 00:48:36 2019.
