 Gaussian 16, Revision A.03,
 Gaussian 16:  ES64L-G16RevA.03 25-Dec-2016

 ---------------------------------
 # td=(NStates=1) B3LYP/6-31G(d,p)
 ---------------------------------

 --
 TD
 --
 Symbolic Z-matrix:
 Charge =  0 Multiplicity = 1

                         Standard orientation:
 ---------------------------------------------------------------------
 Center     Atomic      Atomic             Coordinates (Angstroms)
 Number     Number       Type             X           Y           Z
 ---------------------------------------------------------------------
      1          6           0      -12.147246   -0.502211   -0.681625
      2          6           0       12.142682    0.073650    0.813034
      3          6           0      -13.359848    0.441598   -0.716978
      4          6           0       13.080307   -1.060086    1.271821
      5          6           0      -12.943159    1.945712   -0.624919
      6          6           0       13.465838   -1.933687    0.024725
      7          6           0      -10.998809    0.054333    0.263704
      8          6           0       10.994610   -0.470056   -0.058832
      9          6           0      -12.171470    2.236179    0.598408
     10          6           0       12.246407   -2.517388   -0.636293
     11          6           0      -11.069947    1.286199    0.894835
     12          6           0       11.031765   -1.624404   -0.831183
     13          6           0      -11.586106   -0.536839   -2.102422
     14          6           0      -12.593978   -1.949765   -0.436060
     15          6           0       12.809057    1.266770    0.220710
     16          6           0       11.574172    0.636636    2.179246
     17          6           0       -9.877971   -0.938010    0.463020
     18          6           0        9.811902    0.516798   -0.214341
     19          6           0      -10.116245    1.716348    1.953453
     20          6           0       10.028784   -1.938565   -1.815064
     21          6           0       -8.530158   -0.595161    0.214038
     22          6           0        8.461978    0.154069   -0.321487
     23          6           0       -7.354693   -1.347230    0.523650
     24          6           0        7.484321    1.215758   -0.338068
     25          6           0       -7.617581   -2.865519    0.824928
     26          6           0        7.954794    2.714092   -0.674071
     27          6           0       -6.160500   -0.715330    0.270667
     28          6           0        6.195387    0.841886   -0.283183
     29          6           0       -4.922537   -1.471804    0.484439
     30          6           0        4.995692    1.702216   -0.346713
     31          6           0       -3.670913   -0.845883    0.222652
     32          6           0        3.710232    1.079986   -0.175812
     33          6           0       -2.421681   -1.323063    0.278413
     34          6           0        2.408099    1.778201   -0.338085
     35          6           0       -2.339169   -2.797312    0.623718
     36          6           0        2.443274    3.347133   -0.594654
     37          6           0       -1.314166   -0.674151    0.081471
     38          6           0        1.336560    1.009253   -0.276749
     39          6           0       -1.133249    0.731040   -0.179309
     40          6           0        0.029350    1.520963   -0.334930
     41          1           0      -14.125762    0.174815    0.190940
     42          1           0      -14.131633    0.151730   -1.461403
     43          1           0       12.757007   -1.742832    2.209573
     44          1           0       14.067939   -0.507118    1.665828
     45          1           0      -13.966013    2.535764   -0.835638
     46          1           0      -12.230381    2.341541   -1.581788
     47          1           0       14.092978   -2.890000    0.243591
     48          1           0       14.159113   -1.389918   -0.683910
     49          1           0      -12.908727    2.310401    1.399544
     50          1           0      -11.864371    3.092375    0.352507
     51          1           0       11.854110   -3.496411   -0.020212
     52          1           0       12.489461   -2.964039   -1.587735
     53          1           0      -11.452564    0.406105   -2.698678
     54          1           0      -12.222710   -1.155490   -3.010545
     55          1           0      -10.504657   -0.989737   -2.108462
     56          1           0      -13.121751   -1.983998    0.357271
     57          1           0      -11.633142   -2.585567   -0.504941
     58          1           0      -13.340352   -2.384779   -1.115119
     59          1           0       13.414510    0.976473   -0.686324
     60          1           0       13.515729    1.681726    0.797856
     61          1           0       12.114788    2.177526    0.088050
     62          1           0       10.796995    0.024733    2.451548
     63          1           0       11.011623    1.654794    1.939440
     64          1           0       12.326277    0.588462    2.837338
     65          1           0      -10.097875   -2.034011    0.684089
     66          1           0        9.992603    1.462980   -0.358220
     67          1           0       -9.335071    1.012897    2.365467
     68          1           0      -10.672467    1.943934    2.878102
     69          1           0       -9.499709    2.627370    1.706227
     70          1           0        9.149730   -1.262518   -2.070871
     71          1           0        9.376695   -2.613067   -1.459217
     72          1           0       10.646592   -2.171021   -2.699562
     73          1           0       -8.429347    0.573179    0.115049
     74          1           0        8.151839   -0.883871   -0.158387
     75          1           0       -8.019884   -2.881397    1.910788
     76          1           0       -6.665145   -3.350562    0.664814
     77          1           0       -8.455795   -3.263426   -0.017193
     78          1           0        8.785796    2.722618   -1.455580
     79          1           0        8.186225    3.357969    0.479204
     80          1           0        7.141103    3.452278   -1.222343
     81          1           0       -6.142270    0.381198    0.039906
     82          1           0        5.985145   -0.220038   -0.267933
     83          1           0       -4.891285   -2.468834    0.721980
     84          1           0        5.019111    2.779968   -0.445918
     85          1           0       -3.905846    0.195578   -0.092761
     86          1           0        3.647124    0.055542   -0.207904
     87          1           0       -2.784152   -3.244230    1.585423
     88          1           0       -1.291564   -3.245755    0.764396
     89          1           0       -2.729729   -3.468332   -0.165386
     90          1           0        2.978542    3.557538   -1.337449
     91          1           0        2.952701    3.626688    0.337684
     92          1           0        1.393376    3.876990   -0.708440
     93          1           0       -0.307182   -1.359688    0.020442
     94          1           0        1.599717   -0.004822    0.076213
     95          1           0       -1.843493    1.313074   -0.579572
     96          1           0       -0.288662    2.531082   -0.698700
 ---------------------------------------------------------------------

 SCF Done:  E(RB3LYP) =  -1557.50791995     A.U. after   16 cycles

 Excitation energies and oscillator strengths:

 Excited State   1:      Singlet-A      2.1606 eV  573.83 nm  f=3.0379  <S**2>=0.000
     148 ->149         0.70653
 This state for optimization and/or second-order correction.
 Total Energy, E(TD-HF/TD-DFT) =  -1557.42851823
 Copying the excited state density for this state as the 1-particle RhoCI density.

 The electronic state is 1-A.
 Alpha  occ. eigenvalues --  -10.22901 -10.20837 -10.20342 -10.20184 -10.20123
 Alpha  occ. eigenvalues --  -10.20027 -10.19927 -10.19875 -10.19817 -10.19776
 Alpha  occ. eigenvalues --  -10.19718 -10.19712 -10.19604 -10.19473 -10.19399
 Alpha  occ. eigenvalues --  -10.19310 -10.19290 -10.19247 -10.19018 -10.18944
 Alpha  occ. eigenvalues --  -10.18939 -10.18919 -10.18817 -10.18733 -10.18723
 Alpha  occ. eigenvalues --  -10.18606 -10.18571 -10.18499 -10.18234 -10.18203
 Alpha  occ. eigenvalues --  -10.18159 -10.18130 -10.17915 -10.17740 -10.17716
 Alpha  occ. eigenvalues --  -10.16942 -10.16782 -10.16453 -10.16088 -10.15827
 Alpha  occ. eigenvalues --   -0.84563  -0.84496  -0.84243  -0.82871  -0.81798
 Alpha  occ. eigenvalues --   -0.81527  -0.79364  -0.79165  -0.77893  -0.76767
 Alpha  occ. eigenvalues --   -0.76158  -0.74694  -0.73880  -0.71434  -0.71008
 Alpha  occ. eigenvalues --   -0.70490  -0.68451  -0.68259  -0.68172  -0.67771
 Alpha  occ. eigenvalues --   -0.67461  -0.67117  -0.66523  -0.66448  -0.65708
 Alpha  occ. eigenvalues --   -0.62866  -0.61794  -0.59266  -0.58321  -0.56727
 Alpha  occ. eigenvalues --   -0.56453  -0.56019  -0.54980  -0.54490  -0.53558
 Alpha  occ. eigenvalues --   -0.52481  -0.51910  -0.49774  -0.49439  -0.48702
 Alpha  occ. eigenvalues --   -0.47822  -0.47709  -0.47267  -0.46759  -0.46284
 Alpha  occ. eigenvalues --   -0.46110  -0.45433  -0.44617  -0.44068  -0.44041
 Alpha  occ. eigenvalues --   -0.43586  -0.43257  -0.42657  -0.42573  -0.42393
 Alpha  occ. eigenvalues --   -0.42004  -0.41412  -0.41123  -0.40858  -0.40803
 Alpha  occ. eigenvalues --   -0.40652  -0.40345  -0.39761  -0.39602  -0.39456
 Alpha  occ. eigenvalues --   -0.38676  -0.38329  -0.38161  -0.37893  -0.37558
 Alpha  occ. eigenvalues --   -0.37492  -0.37419  -0.37080  -0.36846  -0.36126
 Alpha  occ. eigenvalues --   -0.35812  -0.35711  -0.35215  -0.35107  -0.34997
 Alpha  occ. eigenvalues --   -0.34972  -0.34489  -0.33955  -0.33829  -0.33474
 Alpha  occ. eigenvalues --   -0.33183  -0.33114  -0.32898  -0.32851  -0.32388
 Alpha  occ. eigenvalues --   -0.32208  -0.32108  -0.31829  -0.30881  -0.30649
 Alpha  occ. eigenvalues --   -0.30254  -0.29730  -0.29605  -0.28812  -0.28315
 Alpha  occ. eigenvalues --   -0.28178  -0.27420  -0.26053  -0.23915  -0.22684
 Alpha  occ. eigenvalues --   -0.21079  -0.18597  -0.16286
 Alpha virt. eigenvalues --   -0.08133  -0.05152  -0.01677   0.00541   0.02413
 Alpha virt. eigenvalues --    0.03803   0.05198   0.06080   0.06523   0.07383
 Alpha virt. eigenvalues --    0.07565   0.07875   0.08371   0.08586   0.08950

 Mulliken charges:
               1
     1  C    0.013230
     2  C   -0.003083
     3  C   -0.167832
     4  C   -0.179705
     5  C   -0.194513
     6  C   -0.186269
     7  C    0.057716
     8  C    0.047968
     9  C   -0.171301
    10  C   -0.203046
    11  C    0.067272
    12  C    0.078863
    13  C   -0.274397
    14  C   -0.285166
    15  C   -0.286649
    16  C   -0.290335
    17  C   -0.161617
    18  C   -0.112421
    19  C   -0.373966
    20  C   -0.361703
    21  C   -0.093718
    22  C   -0.117323
    23  C    0.104843
    24  C    0.132349
    25  C   -0.350517
    26  C   -0.344564
    27  C   -0.112916
    28  C   -0.135599
    29  C   -0.078119
    30  C   -0.090194
    31  C   -0.141112
    32  C   -0.128855
    33  C    0.211091
    34  C    0.116303
    35  C   -0.399698
    36  C   -0.354893
    37  C   -0.149242
    38  C   -0.113792
    39  C   -0.080947
    40  C   -0.125052
    41  H    0.048162
    42  H    0.091841
    43  H    0.087526
    44  H    0.069604
    45  H    0.074479
    46  H    0.061938
    47  H    0.080821
    48  H    0.099177
    49  H    0.108263
    50  H    0.115457
    51  H    0.077100
    52  H    0.095294
    53  H    0.095241
    54  H    0.051626
    55  H    0.089924
    56  H    0.105322
    57  H    0.088154
    58  H    0.097957
    59  H    0.085631
    60  H    0.112705
    61  H    0.093681
    62  H    0.112606
    63  H    0.073233
    64  H    0.106568
    65  H    0.089570
    66  H    0.077866
    67  H    0.119270
    68  H    0.109536
    69  H    0.104101
    70  H    0.114338
    71  H    0.127374
    72  H    0.103251
    73  H    0.068055
    74  H    0.085521
    75  H    0.126383
    76  H    0.116636
    77  H    0.101698
    78  H    0.126677
    79  H    0.078466
    80  H    0.092183
    81  H    0.093456
    82  H    0.075997
    83  H    0.079243
    84  H    0.083472
    85  H    0.067039
    86  H    0.079211
    87  H    0.109584
    88  H    0.093555
    89  H    0.117343
    90  H    0.136921
    91  H    0.127589
    92  H    0.095758
    93  H    0.069300
    94  H    0.086208
    95  H    0.076379
    96  H    0.084615
 Sum of Mulliken charges =  -0.00000

 Dipole moment (field-independent basis, Debye):
    X=              1.2010    Y=              0.1839    Z=             -0.0127  Tot=              1.2151
 Quadrupole moment (field-independent basis, Debye-Ang):
   XX=           -224.1107   YY=           -233.9188   ZZ=           -255.7851
   XY=             -4.3747   XZ=            -10.5495   YZ=             -3.5922

 Normal termination of Gaussian 16 at Mon Jul 29 18:03:08 2019.
