 Gaussian 16, Revision A.03,
 Gaussian 16:  ES64L-G16RevA.03 25-Dec-2016

 ---------------------------------
 # td=(NStates=1) B3LYP/6-31G(d,p)
 ---------------------------------

 --
 TD
 --
 Symbolic Z-matrix:
 Charge =  0 Multiplicity = 1

                         Standard orientation:
 ---------------------------------------------------------------------
 Center     Atomic      Atomic             Coordinates (Angstroms)
 Number     Number       Type             X           Y           Z
 ---------------------------------------------------------------------
      1          6           0      -12.143108   -0.693889   -0.777371
      2          6           0       11.978979    0.004518    0.827417
      3          6           0      -13.481819    0.165531   -0.636959
      4          6           0       12.815469   -1.211195    1.351999
      5          6           0      -13.318823    1.666822   -0.611937
      6          6           0       13.321935   -2.112221    0.233088
      7          6           0      -10.992879   -0.081486    0.155590
      8          6           0       10.946844   -0.580484   -0.166500
      9          6           0      -12.407034    1.966221    0.583734
     10          6           0       12.250074   -2.823913   -0.573416
     11          6           0      -11.176411    1.046314    0.814055
     12          6           0       10.952060   -1.771859   -0.810367
     13          6           0      -11.506739   -0.603524   -2.241405
     14          6           0      -12.482388   -2.159552   -0.321009
     15          6           0       12.844081    1.092172    0.307435
     16          6           0       11.238367    0.554715    2.111866
     17          6           0       -9.731474   -0.939114    0.287276
     18          6           0        9.821920    0.455109   -0.500941
     19          6           0      -10.154998    1.692073    1.816811
     20          6           0        9.949219   -2.213694   -1.774435
     21          6           0       -8.512375   -0.542381    0.258948
     22          6           0        8.528601    0.217383   -0.461676
     23          6           0       -7.319134   -1.277484    0.457980
     24          6           0        7.520614    1.284036   -0.559131
     25          6           0       -7.400860   -2.766840    0.732846
     26          6           0        7.932195    2.751036   -0.847286
     27          6           0       -6.059940   -0.708585    0.244830
     28          6           0        6.193133    0.912878   -0.515009
     29          6           0       -4.799702   -1.233286    0.473186
     30          6           0        5.064784    1.785772   -0.389299
     31          6           0       -3.667187   -0.569228    0.224230
     32          6           0        3.837416    1.270497   -0.364011
     33          6           0       -2.294992   -1.160767    0.312313
     34          6           0        2.587394    2.013168   -0.303022
     35          6           0       -2.121975   -2.638450    0.575996
     36          6           0        2.613381    3.540173   -0.427677
     37          6           0       -1.182470   -0.331075    0.248317
     38          6           0        1.399174    1.354318   -0.183973
     39          6           0       -1.123331    1.128895    0.126818
     40          6           0        0.034233    1.747747   -0.025223
     41          1           0      -13.941551   -0.195773    0.389330
     42          1           0      -14.224439   -0.164800   -1.354754
     43          1           0       12.145674   -1.797317    1.989976
     44          1           0       13.491479   -0.937449    2.036914
     45          1           0      -14.282811    2.070418   -0.536985
     46          1           0      -12.755283    1.987086   -1.320316
     47          1           0       14.013944   -2.737071    0.608850
     48          1           0       14.029929   -1.324425   -0.301540
     49          1           0      -12.977508    2.020144    1.485587
     50          1           0      -11.896098    2.850359    0.741064
     51          1           0       11.786814   -3.496460    0.061210
     52          1           0       12.516635   -3.057395   -1.469532
     53          1           0      -11.624333    0.443747   -2.565503
     54          1           0      -12.222474   -1.112071   -2.980609
     55          1           0      -10.570496   -0.931101   -2.547940
     56          1           0      -12.838148   -2.298034    0.743261
     57          1           0      -11.697993   -2.614329   -0.655248
     58          1           0      -13.390254   -2.151144   -0.705502
     59          1           0       13.399493    0.875845   -0.693674
     60          1           0       13.647660    1.370880    0.950906
     61          1           0       12.238482    1.910210   -0.123293
     62          1           0       10.724304   -0.321375    2.658362
     63          1           0       10.578646    1.351864    1.991768
     64          1           0       12.069126    0.992651    2.777410
     65          1           0       -9.972067   -2.038454    0.334278
     66          1           0       10.174059    1.477875   -0.433230
     67          1           0       -9.424073    0.950820    2.133187
     68          1           0      -10.624276    2.139212    2.675844
     69          1           0       -9.712599    2.664608    1.450651
     70          1           0        9.502083   -1.253418   -2.059559
     71          1           0        9.374110   -2.830049   -1.247217
     72          1           0       10.559927   -2.597701   -2.603320
     73          1           0       -8.563333    0.319450   -0.102845
     74          1           0        8.187943   -0.710370   -0.220297
     75          1           0       -7.950377   -2.987501    1.582080
     76          1           0       -6.408049   -3.202142    0.885695
     77          1           0       -7.943059   -3.522158    0.058609
     78          1           0        8.318304    2.646854   -2.027672
     79          1           0        8.579853    3.115230   -0.016162
     80          1           0        7.012353    3.365547   -0.847709
     81          1           0       -6.201217    0.359038    0.136143
     82          1           0        6.142824   -0.145097   -0.336794
     83          1           0       -4.643220   -2.219731    1.042517
     84          1           0        5.029392    3.024046   -0.578177
     85          1           0       -3.879504    0.389088    0.080066
     86          1           0        3.640807    0.199867   -0.093197
     87          1           0       -2.626224   -2.724915    1.571701
     88          1           0       -1.061988   -2.962334    0.930006
     89          1           0       -2.614038   -3.259083    0.000774
     90          1           0        3.213881    3.763869   -1.235580
     91          1           0        3.004014    4.040900    0.495516
     92          1           0        1.580420    3.963079   -0.662983
     93          1           0       -0.163110   -0.794474    0.116502
     94          1           0        1.536245    0.139464   -0.130797
     95          1           0       -2.018845    1.683187    0.025119
     96          1           0        0.015552    2.888763   -0.027399
 ---------------------------------------------------------------------

 SCF Done:  E(RB3LYP) =  -1557.55280174     A.U. after   14 cycles

 Excitation energies and oscillator strengths:

 Excited State   1:      Singlet-A      2.3975 eV  517.15 nm  f=2.9016  <S**2>=0.000
     148 ->149         0.70806
 This state for optimization and/or second-order correction.
 Total Energy, E(TD-HF/TD-DFT) =  -1557.46469674
 Copying the excited state density for this state as the 1-particle RhoCI density.

 The electronic state is 1-A.
 Alpha  occ. eigenvalues --  -10.20902 -10.20572 -10.20132 -10.20085 -10.20009
 Alpha  occ. eigenvalues --  -10.19877 -10.19774 -10.19669 -10.19534 -10.18779
 Alpha  occ. eigenvalues --  -10.18758 -10.18712 -10.18640 -10.18629 -10.18560
 Alpha  occ. eigenvalues --  -10.18513 -10.18477 -10.18400 -10.18351 -10.18264
 Alpha  occ. eigenvalues --  -10.18172 -10.18170 -10.18004 -10.17984 -10.17838
 Alpha  occ. eigenvalues --  -10.17699 -10.17690 -10.17509 -10.17488 -10.17448
 Alpha  occ. eigenvalues --  -10.17373 -10.17365 -10.17191 -10.17166 -10.16922
 Alpha  occ. eigenvalues --  -10.16578 -10.16175 -10.16112 -10.15484 -10.15378
 Alpha  occ. eigenvalues --   -0.84405  -0.84199  -0.83385  -0.83074  -0.82024
 Alpha  occ. eigenvalues --   -0.81342  -0.79587  -0.78735  -0.77917  -0.77817
 Alpha  occ. eigenvalues --   -0.76966  -0.75726  -0.75015  -0.73014  -0.72260
 Alpha  occ. eigenvalues --   -0.69899  -0.69319  -0.68587  -0.68531  -0.68070
 Alpha  occ. eigenvalues --   -0.67894  -0.67606  -0.67178  -0.67087  -0.66523
 Alpha  occ. eigenvalues --   -0.62650  -0.61816  -0.60239  -0.59634  -0.57404
 Alpha  occ. eigenvalues --   -0.56715  -0.55826  -0.55045  -0.54038  -0.53697
 Alpha  occ. eigenvalues --   -0.53002  -0.51663  -0.50457  -0.49793  -0.48825
 Alpha  occ. eigenvalues --   -0.48404  -0.47757  -0.47310  -0.47141  -0.46811
 Alpha  occ. eigenvalues --   -0.46080  -0.45851  -0.45410  -0.44914  -0.44383
 Alpha  occ. eigenvalues --   -0.44213  -0.43891  -0.43308  -0.42814  -0.42469
 Alpha  occ. eigenvalues --   -0.42241  -0.42104  -0.41733  -0.41471  -0.41355
 Alpha  occ. eigenvalues --   -0.40749  -0.40367  -0.40146  -0.39629  -0.39544
 Alpha  occ. eigenvalues --   -0.39200  -0.38992  -0.38880  -0.38629  -0.38168
 Alpha  occ. eigenvalues --   -0.38019  -0.37750  -0.37442  -0.36993  -0.36541
 Alpha  occ. eigenvalues --   -0.36286  -0.36129  -0.35629  -0.35479  -0.35272
 Alpha  occ. eigenvalues --   -0.35139  -0.34851  -0.34709  -0.34017  -0.33851
 Alpha  occ. eigenvalues --   -0.33734  -0.33601  -0.33453  -0.32975  -0.32871
 Alpha  occ. eigenvalues --   -0.32309  -0.32078  -0.31529  -0.31157  -0.30764
 Alpha  occ. eigenvalues --   -0.29768  -0.29539  -0.29476  -0.29330  -0.29084
 Alpha  occ. eigenvalues --   -0.27478  -0.26714  -0.26113  -0.24082  -0.22858
 Alpha  occ. eigenvalues --   -0.21439  -0.18957  -0.16740
 Alpha virt. eigenvalues --   -0.07430  -0.04710  -0.00958   0.02071   0.04026
 Alpha virt. eigenvalues --    0.05282   0.06190   0.07047   0.07739   0.08089
 Alpha virt. eigenvalues --    0.08489   0.08698   0.08898   0.09069   0.10139

 Mulliken charges:
               1
     1  C   -0.024174
     2  C   -0.003279
     3  C   -0.201865
     4  C   -0.171925
     5  C   -0.169858
     6  C   -0.184946
     7  C    0.055320
     8  C    0.092789
     9  C   -0.232780
    10  C   -0.183738
    11  C    0.057924
    12  C   -0.033374
    13  C   -0.322059
    14  C   -0.282334
    15  C   -0.299723
    16  C   -0.292050
    17  C   -0.149412
    18  C   -0.170505
    19  C   -0.380594
    20  C   -0.344407
    21  C   -0.042379
    22  C   -0.056162
    23  C    0.115859
    24  C    0.087145
    25  C   -0.384290
    26  C   -0.355366
    27  C   -0.137416
    28  C   -0.119475
    29  C   -0.072223
    30  C   -0.092958
    31  C   -0.081213
    32  C   -0.087993
    33  C    0.086487
    34  C    0.118831
    35  C   -0.369502
    36  C   -0.383936
    37  C   -0.140809
    38  C   -0.111246
    39  C   -0.061636
    40  C   -0.092742
    41  H    0.077441
    42  H    0.091468
    43  H    0.077516
    44  H    0.085215
    45  H    0.100334
    46  H    0.117696
    47  H    0.094474
    48  H    0.071108
    49  H    0.100879
    50  H    0.096620
    51  H    0.118539
    52  H    0.104787
    53  H    0.105522
    54  H    0.077936
    55  H    0.124603
    56  H    0.094113
    57  H    0.111174
    58  H    0.112756
    59  H    0.086034
    60  H    0.109643
    61  H    0.099188
    62  H    0.093123
    63  H    0.105240
    64  H    0.079649
    65  H    0.065912
    66  H    0.080250
    67  H    0.124586
    68  H    0.107426
    69  H    0.102292
    70  H    0.124811
    71  H    0.129432
    72  H    0.102005
    73  H    0.062825
    74  H    0.080314
    75  H    0.125241
    76  H    0.104156
    77  H    0.102185
    78  H    0.106432
    79  H    0.120237
    80  H    0.109643
    81  H    0.077262
    82  H    0.077586
    83  H    0.076844
    84  H    0.073931
    85  H    0.070018
    86  H    0.077072
    87  H    0.119479
    88  H    0.106894
    89  H    0.133158
    90  H    0.130116
    91  H    0.121026
    92  H    0.105898
    93  H    0.077441
    94  H    0.044235
    95  H    0.088536
    96  H    0.059712
 Sum of Mulliken charges =  -0.00000

 Dipole moment (field-independent basis, Debye):
    X=             -0.0987    Y=              0.2322    Z=              0.4074  Tot=              0.4792
 Quadrupole moment (field-independent basis, Debye-Ang):
   XX=           -208.1448   YY=           -233.3068   ZZ=           -253.7118
   XY=             -6.1697   XZ=              2.4509   YZ=             -2.2102

 Normal termination of Gaussian 16 at Fri Jul 26 16:57:43 2019.
