 Gaussian 16, Revision A.03,
 Gaussian 16:  ES64L-G16RevA.03 25-Dec-2016

 ---------------------------------
 # td=(NStates=1) B3LYP/6-31G(d,p)
 ---------------------------------

 --
 TD
 --
 Symbolic Z-matrix:
 Charge =  0 Multiplicity = 1

                         Standard orientation:
 ---------------------------------------------------------------------
 Center     Atomic      Atomic             Coordinates (Angstroms)
 Number     Number       Type             X           Y           Z
 ---------------------------------------------------------------------
      1          6           0       12.145583    0.451519   -0.692960
      2          6           0      -11.993578   -0.010838    0.984445
      3          6           0       13.353811   -0.370979   -0.512307
      4          6           0      -12.982843    1.047993    1.388080
      5          6           0       13.163648   -1.874472   -0.364900
      6          6           0      -13.401956    1.909462    0.222978
      7          6           0       10.999762   -0.001459    0.235635
      8          6           0      -10.949687    0.425368    0.033683
      9          6           0       12.327630   -2.109172    1.003027
     10          6           0      -12.301033    2.619662   -0.540300
     11          6           0       11.203520   -1.103946    1.000199
     12          6           0      -11.103108    1.575382   -0.817616
     13          6           0       11.680538    0.390979   -2.227625
     14          6           0       12.502659    1.978729   -0.601021
     15          6           0      -12.926616   -1.069573    0.205587
     16          6           0      -11.330180   -0.550655    2.243357
     17          6           0        9.819179    0.864464    0.249866
     18          6           0       -9.902486   -0.592910   -0.191325
     19          6           0       10.152216   -1.499119    1.995655
     20          6           0      -10.134825    2.047852   -1.779520
     21          6           0        8.531084    0.462332    0.205212
     22          6           0       -8.549701   -0.277271   -0.423445
     23          6           0        7.403114    1.376191    0.423681
     24          6           0       -7.495340   -1.251893   -0.531748
     25          6           0        7.681341    2.929521    0.580706
     26          6           0       -8.047147   -2.755104   -0.745917
     27          6           0        6.131988    0.885282    0.335802
     28          6           0       -6.125613   -0.854580   -0.422503
     29          6           0        4.807681    1.365736    0.395037
     30          6           0       -4.983496   -1.699850   -0.464133
     31          6           0        3.719466    0.689604    0.240424
     32          6           0       -3.801557   -1.233928   -0.313667
     33          6           0        2.421975    1.242753    0.342734
     34          6           0       -2.478153   -1.839280   -0.417781
     35          6           0        2.306355    2.814913    0.566319
     36          6           0       -2.572722   -3.296680   -0.849628
     37          6           0        1.212863    0.573960    0.039904
     38          6           0       -1.346008   -1.142899   -0.194475
     39          6           0        1.141091   -0.814043   -0.140903
     40          6           0       -0.056573   -1.538110   -0.365251
     41          1           0       13.887408   -0.011758    0.447652
     42          1           0       14.039375   -0.149017   -1.520749
     43          1           0      -12.358876    1.751097    2.030308
     44          1           0      -13.737875    0.794732    1.976731
     45          1           0       14.110986   -2.340253   -0.338302
     46          1           0       12.461870   -2.183404   -1.174718
     47          1           0      -14.070731    2.616574    0.717298
     48          1           0      -14.361228    1.401351   -0.315664
     49          1           0       12.687719   -2.226290    1.968795
     50          1           0       11.906822   -3.057955    1.207686
     51          1           0      -12.003876    3.616588    0.186976
     52          1           0      -12.678183    3.173498   -1.350652
     53          1           0       11.236435   -0.645678   -2.188787
     54          1           0       12.511229    0.574334   -3.012826
     55          1           0       10.764347    1.029342   -2.459259
     56          1           0       12.689402    2.262834    0.453367
     57          1           0       11.754365    2.742258   -0.883764
     58          1           0       13.388528    2.368758   -1.092791
     59          1           0      -13.547115   -0.432203   -0.450930
     60          1           0      -13.719012   -1.693417    0.857380
     61          1           0      -12.321507   -1.870127   -0.253506
     62          1           0      -10.422634    0.106884    2.589268
     63          1           0      -10.844676   -1.406491    1.932839
     64          1           0      -12.129364   -0.730975    3.183395
     65          1           0       10.039129    1.932163    0.132377
     66          1           0      -10.306111   -1.592314   -0.390425
     67          1           0        9.371993   -0.722926    2.266308
     68          1           0       10.603032   -2.176287    2.832060
     69          1           0        9.652237   -2.320508    1.239323
     70          1           0       -9.495257    1.219807   -2.270740
     71          1           0       -9.317990    2.764745   -1.175157
     72          1           0      -10.534108    2.655941   -2.585753
     73          1           0        8.015652   -0.581780    0.070612
     74          1           0       -8.316660    0.607346   -0.189950
     75          1           0        8.472814    2.862111    1.228168
     76          1           0        6.605594    3.212712    0.738882
     77          1           0        8.083672    3.346207   -0.484128
     78          1           0       -8.507927   -2.894653   -1.672801
     79          1           0       -8.678933   -3.005017    0.057235
     80          1           0       -6.977736   -3.578614   -0.623456
     81          1           0        6.207187   -0.420634    0.115116
     82          1           0       -6.025939    0.140590   -0.579112
     83          1           0        4.958881    2.472395    0.494229
     84          1           0       -5.189386   -3.011582   -0.529475
     85          1           0        3.778027   -0.381924    0.171067
     86          1           0       -3.621792   -0.132275    0.085176
     87          1           0        3.185090    3.011178    1.278405
     88          1           0        1.180632    2.968841    0.791771
     89          1           0        2.684309    3.274784   -0.379385
     90          1           0       -2.937686   -3.258384   -1.875652
     91          1           0       -3.125896   -3.919935   -0.070075
     92          1           0       -1.448296   -3.631072   -1.132846
     93          1           0        0.357345    1.110976    0.044218
     94          1           0       -1.502097   -0.121329    0.058083
     95          1           0        2.091381   -1.614826   -0.138185
     96          1           0        0.118130   -2.496068   -0.587466
 ---------------------------------------------------------------------

 SCF Done:  E(RB3LYP) =  -1557.46647829     A.U. after   16 cycles

 Excitation energies and oscillator strengths:

 Excited State   1:      Singlet-A      2.0617 eV  601.38 nm  f=3.2399  <S**2>=0.000
     148 ->149         0.70811
     148 <-149        -0.11650
 This state for optimization and/or second-order correction.
 Total Energy, E(TD-HF/TD-DFT) =  -1557.39071392
 Copying the excited state density for this state as the 1-particle RhoCI density.

 The electronic state is 1-A.
 Alpha  occ. eigenvalues --  -10.21001 -10.20721 -10.20558 -10.20465 -10.20347
 Alpha  occ. eigenvalues --  -10.20267 -10.20197 -10.20088 -10.19991 -10.19885
 Alpha  occ. eigenvalues --  -10.19861 -10.19769 -10.19705 -10.19673 -10.19629
 Alpha  occ. eigenvalues --  -10.19477 -10.19442 -10.19441 -10.19381 -10.19276
 Alpha  occ. eigenvalues --  -10.19250 -10.19176 -10.19143 -10.19107 -10.19052
 Alpha  occ. eigenvalues --  -10.18853 -10.18731 -10.18639 -10.18572 -10.18357
 Alpha  occ. eigenvalues --  -10.18309 -10.18307 -10.18100 -10.18074 -10.18013
 Alpha  occ. eigenvalues --  -10.17826 -10.17788 -10.17576 -10.17080 -10.16223
 Alpha  occ. eigenvalues --   -0.85268  -0.85080  -0.84255  -0.83701  -0.81976
 Alpha  occ. eigenvalues --   -0.81335  -0.79681  -0.78849  -0.78068  -0.77678
 Alpha  occ. eigenvalues --   -0.76817  -0.75894  -0.74274  -0.72224  -0.71292
 Alpha  occ. eigenvalues --   -0.70050  -0.68625  -0.68346  -0.68234  -0.67777
 Alpha  occ. eigenvalues --   -0.67324  -0.66781  -0.66583  -0.66458  -0.65944
 Alpha  occ. eigenvalues --   -0.63595  -0.61960  -0.61021  -0.59324  -0.57668
 Alpha  occ. eigenvalues --   -0.56964  -0.55715  -0.54866  -0.53719  -0.53005
 Alpha  occ. eigenvalues --   -0.52464  -0.51725  -0.50374  -0.49909  -0.49656
 Alpha  occ. eigenvalues --   -0.47932  -0.47501  -0.46737  -0.46634  -0.46201
 Alpha  occ. eigenvalues --   -0.45810  -0.45386  -0.44866  -0.44306  -0.44201
 Alpha  occ. eigenvalues --   -0.43999  -0.43269  -0.42805  -0.42657  -0.42363
 Alpha  occ. eigenvalues --   -0.42009  -0.41784  -0.41643  -0.41024  -0.40861
 Alpha  occ. eigenvalues --   -0.40655  -0.40233  -0.40175  -0.39973  -0.39582
 Alpha  occ. eigenvalues --   -0.39103  -0.39033  -0.38514  -0.38429  -0.38151
 Alpha  occ. eigenvalues --   -0.37668  -0.37648  -0.37084  -0.36913  -0.36249
 Alpha  occ. eigenvalues --   -0.36115  -0.35886  -0.35341  -0.35103  -0.34996
 Alpha  occ. eigenvalues --   -0.34936  -0.34864  -0.34148  -0.33912  -0.33743
 Alpha  occ. eigenvalues --   -0.33658  -0.33431  -0.32907  -0.32668  -0.32550
 Alpha  occ. eigenvalues --   -0.32246  -0.31793  -0.31493  -0.30931  -0.30541
 Alpha  occ. eigenvalues --   -0.30139  -0.29904  -0.29635  -0.29050  -0.28118
 Alpha  occ. eigenvalues --   -0.28026  -0.27259  -0.26819  -0.24052  -0.22743
 Alpha  occ. eigenvalues --   -0.20745  -0.19064  -0.16271
 Alpha virt. eigenvalues --   -0.08731  -0.05500  -0.02578   0.00141   0.01588
 Alpha virt. eigenvalues --    0.03101   0.04383   0.05338   0.06091   0.06847
 Alpha virt. eigenvalues --    0.07308   0.07646   0.08142   0.08572   0.08672

 Mulliken charges:
               1
     1  C    0.001451
     2  C    0.003315
     3  C   -0.153893
     4  C   -0.146739
     5  C   -0.185476
     6  C   -0.196606
     7  C    0.068702
     8  C    0.058547
     9  C   -0.232291
    10  C   -0.191753
    11  C    0.077746
    12  C    0.080151
    13  C   -0.292583
    14  C   -0.316326
    15  C   -0.302400
    16  C   -0.287108
    17  C   -0.175783
    18  C   -0.143036
    19  C   -0.354232
    20  C   -0.360299
    21  C   -0.057426
    22  C   -0.069058
    23  C    0.075583
    24  C    0.074009
    25  C   -0.339875
    26  C   -0.346378
    27  C   -0.124597
    28  C   -0.125869
    29  C   -0.060685
    30  C   -0.065965
    31  C   -0.073082
    32  C   -0.086026
    33  C    0.060759
    34  C    0.114621
    35  C   -0.361089
    36  C   -0.371336
    37  C   -0.101791
    38  C   -0.087677
    39  C   -0.090865
    40  C   -0.089187
    41  H    0.086169
    42  H    0.058315
    43  H    0.075535
    44  H    0.095096
    45  H    0.102966
    46  H    0.110860
    47  H    0.085154
    48  H    0.069392
    49  H    0.112334
    50  H    0.101123
    51  H    0.068945
    52  H    0.112355
    53  H    0.088264
    54  H    0.092868
    55  H    0.096933
    56  H    0.086331
    57  H    0.094945
    58  H    0.102757
    59  H    0.115163
    60  H    0.069787
    61  H    0.092803
    62  H    0.091848
    63  H    0.109146
    64  H    0.069288
    65  H    0.093801
    66  H    0.095452
    67  H    0.126604
    68  H    0.087241
    69  H    0.098424
    70  H    0.113478
    71  H    0.089216
    72  H    0.109586
    73  H    0.081201
    74  H    0.070890
    75  H    0.140814
    76  H    0.105311
    77  H    0.105664
    78  H    0.138395
    79  H    0.134754
    80  H    0.044723
    81  H    0.009830
    82  H    0.087807
    83  H    0.071086
    84  H    0.057854
    85  H    0.086840
    86  H    0.060978
    87  H    0.114308
    88  H    0.105157
    89  H    0.128128
    90  H    0.136891
    91  H    0.125310
    92  H    0.081245
    93  H    0.079778
    94  H    0.065857
    95  H    0.073690
    96  H    0.065857
 Sum of Mulliken charges =  -0.00000

 Dipole moment (field-independent basis, Debye):
    X=              0.5960    Y=              0.1459    Z=             -0.1180  Tot=              0.6248
 Quadrupole moment (field-independent basis, Debye-Ang):
   XX=           -220.9145   YY=           -238.5493   ZZ=           -256.1587
   XY=            -10.9355   XZ=              6.7485   YZ=             -2.2318

 Normal termination of Gaussian 16 at Sat Jul 27 01:09:24 2019.
