 Gaussian 16, Revision A.03,
 Gaussian 16:  ES64L-G16RevA.03 25-Dec-2016

 ---------------------------------
 # td=(NStates=1) B3LYP/6-31G(d,p)
 ---------------------------------

 --
 TD
 --
 Symbolic Z-matrix:
 Charge =  0 Multiplicity = 1

                         Standard orientation:
 ---------------------------------------------------------------------
 Center     Atomic      Atomic             Coordinates (Angstroms)
 Number     Number       Type             X           Y           Z
 ---------------------------------------------------------------------
      1          6           0      -12.204098   -0.610659   -0.669461
      2          6           0       12.153651   -0.016539    0.902809
      3          6           0      -13.556541    0.252076   -0.552774
      4          6           0       12.984326   -1.279635    1.162086
      5          6           0      -13.216692    1.719005   -0.574923
      6          6           0       13.434609   -2.052739   -0.017697
      7          6           0      -11.022364   -0.002113    0.162122
      8          6           0       10.959617   -0.469588   -0.073755
      9          6           0      -12.333110    2.016029    0.641761
     10          6           0       12.176490   -2.618118   -0.662612
     11          6           0      -11.190799    1.030203    0.848003
     12          6           0       11.100978   -1.606188   -0.777794
     13          6           0      -11.720377   -0.608417   -2.184711
     14          6           0      -12.512795   -2.129206   -0.248360
     15          6           0       13.015235    1.043403    0.153807
     16          6           0       11.644077    0.511748    2.159594
     17          6           0       -9.844009   -0.835186    0.304136
     18          6           0        9.926083    0.481719   -0.085638
     19          6           0      -10.227024    1.600690    1.846391
     20          6           0       10.049191   -2.054850   -1.726990
     21          6           0       -8.565754   -0.473299    0.122793
     22          6           0        8.538909    0.278805   -0.200512
     23          6           0       -7.393782   -1.226319    0.371327
     24          6           0        7.563097    1.330040   -0.339672
     25          6           0       -7.664080   -2.686484    0.843590
     26          6           0        8.121842    2.690171   -0.545538
     27          6           0       -6.219522   -0.698667    0.161571
     28          6           0        6.190725    0.957617   -0.284294
     29          6           0       -4.854540   -1.277782    0.342631
     30          6           0        5.014091    1.717716   -0.426638
     31          6           0       -3.704281   -0.608367    0.331539
     32          6           0        3.750685    1.197181   -0.299715
     33          6           0       -2.354711   -1.217840    0.338701
     34          6           0        2.471454    1.917634   -0.368512
     35          6           0       -2.246296   -2.699968    0.518074
     36          6           0        2.548458    3.384356   -0.710434
     37          6           0       -1.215770   -0.508129    0.026020
     38          6           0        1.354253    1.177394   -0.202567
     39          6           0       -1.120461    0.912746   -0.092298
     40          6           0       -0.022483    1.694998   -0.166993
     41          1           0      -14.265667    0.018730    0.410648
     42          1           0      -14.372512    0.104531   -1.485330
     43          1           0       12.635851   -1.966178    1.938518
     44          1           0       13.973141   -0.911211    1.723384
     45          1           0      -14.156492    2.393819   -0.561133
     46          1           0      -12.676730    1.902561   -1.389816
     47          1           0       14.012944   -2.841708    0.314214
     48          1           0       13.966117   -1.434228   -0.720850
     49          1           0      -13.082367    2.023107    1.497651
     50          1           0      -11.905356    3.155680    0.596456
     51          1           0       11.901248   -3.611182   -0.169270
     52          1           0       12.369181   -2.692212   -1.741185
     53          1           0      -11.613843    0.498769   -2.647250
     54          1           0      -12.415496   -1.085590   -2.773221
     55          1           0      -10.807261   -1.213980   -2.229187
     56          1           0      -12.493690   -2.281264    0.800310
     57          1           0      -11.918900   -2.688563   -0.809068
     58          1           0      -13.489572   -2.372787   -0.606386
     59          1           0       13.316280    0.663648   -0.788408
     60          1           0       13.959623    1.377098    0.506936
     61          1           0       12.384289    1.820521   -0.081603
     62          1           0       11.137107   -0.308462    2.777235
     63          1           0       10.972491    1.240118    2.140821
     64          1           0       12.655936    0.922029    2.583207
     65          1           0      -10.007203   -1.887402    0.629300
     66          1           0       10.199708    1.514517   -0.114593
     67          1           0       -9.510697    0.859196    2.357766
     68          1           0      -10.651795    2.188070    2.754755
     69          1           0       -9.595469    2.350961    1.237743
     70          1           0        9.546023   -1.220270   -1.962556
     71          1           0        9.404210   -2.710368   -1.238499
     72          1           0       10.461301   -2.378208   -2.528029
     73          1           0       -8.372297    0.605017   -0.180335
     74          1           0        8.285427   -0.673310   -0.153782
     75          1           0       -8.193085   -2.761389    1.778423
     76          1           0       -6.544846   -3.064240    1.121506
     77          1           0       -8.269956   -3.191433    0.077903
     78          1           0        8.530182    2.669839   -1.546649
     79          1           0        8.629269    3.125440    0.176523
     80          1           0        7.352795    3.305271   -0.642750
     81          1           0       -6.147019    0.321975    0.027680
     82          1           0        6.093400   -0.089285   -0.114377
     83          1           0       -4.882008   -2.323632    0.701816
     84          1           0        5.158547    2.826066   -0.647214
     85          1           0       -3.864750    0.553355   -0.234685
     86          1           0        3.571279    0.023086   -0.313425
     87          1           0       -3.231992   -2.979379    1.416598
     88          1           0       -1.260495   -2.943690    0.880402
     89          1           0       -2.521199   -3.175271   -0.553827
     90          1           0        3.338924    3.640739   -1.533488
     91          1           0        2.941066    4.119361    0.140421
     92          1           0        1.689503    3.870592   -1.004019
     93          1           0       -0.381386   -1.204602    0.152055
     94          1           0        1.375268    0.213374   -0.174768
     95          1           0       -2.088698    1.419275    0.154561
     96          1           0        0.009973    2.882462   -0.101521
 ---------------------------------------------------------------------

 SCF Done:  E(RB3LYP) =  -1557.57766319     A.U. after   15 cycles

 Excitation energies and oscillator strengths:

 Excited State   1:      Singlet-A      2.2954 eV  540.13 nm  f=2.5544  <S**2>=0.000
     148 ->149         0.69483
     148 ->150         0.13075
 This state for optimization and/or second-order correction.
 Total Energy, E(TD-HF/TD-DFT) =  -1557.49330756
 Copying the excited state density for this state as the 1-particle RhoCI density.

 The electronic state is 1-A.
 Alpha  occ. eigenvalues --  -10.21739 -10.21137 -10.20694 -10.20638 -10.20251
 Alpha  occ. eigenvalues --  -10.20249 -10.19881 -10.19810 -10.19796 -10.19582
 Alpha  occ. eigenvalues --  -10.19508 -10.19465 -10.19341 -10.19317 -10.19226
 Alpha  occ. eigenvalues --  -10.19115 -10.19051 -10.18938 -10.18741 -10.18515
 Alpha  occ. eigenvalues --  -10.18513 -10.18396 -10.18099 -10.17910 -10.17868
 Alpha  occ. eigenvalues --  -10.17787 -10.17715 -10.17623 -10.17509 -10.17306
 Alpha  occ. eigenvalues --  -10.17251 -10.17219 -10.17195 -10.16921 -10.16247
 Alpha  occ. eigenvalues --  -10.16138 -10.16107 -10.15739 -10.15468 -10.13685
 Alpha  occ. eigenvalues --   -0.85487  -0.85378  -0.83761  -0.83153  -0.82481
 Alpha  occ. eigenvalues --   -0.81716  -0.79537  -0.78849  -0.78125  -0.77617
 Alpha  occ. eigenvalues --   -0.77256  -0.75920  -0.74706  -0.73231  -0.72152
 Alpha  occ. eigenvalues --   -0.70140  -0.69656  -0.68999  -0.68871  -0.68629
 Alpha  occ. eigenvalues --   -0.67965  -0.67652  -0.67166  -0.66027  -0.65220
 Alpha  occ. eigenvalues --   -0.62745  -0.62182  -0.59550  -0.58673  -0.57282
 Alpha  occ. eigenvalues --   -0.57006  -0.55229  -0.54913  -0.53706  -0.53329
 Alpha  occ. eigenvalues --   -0.52949  -0.52796  -0.50695  -0.50328  -0.49367
 Alpha  occ. eigenvalues --   -0.48669  -0.47502  -0.46993  -0.46684  -0.46478
 Alpha  occ. eigenvalues --   -0.45986  -0.45324  -0.44735  -0.44567  -0.44426
 Alpha  occ. eigenvalues --   -0.44352  -0.43845  -0.43256  -0.42886  -0.42501
 Alpha  occ. eigenvalues --   -0.42230  -0.41836  -0.41692  -0.41340  -0.41115
 Alpha  occ. eigenvalues --   -0.40887  -0.40519  -0.40068  -0.39620  -0.39332
 Alpha  occ. eigenvalues --   -0.39223  -0.39074  -0.38620  -0.38572  -0.38272
 Alpha  occ. eigenvalues --   -0.38204  -0.37793  -0.37724  -0.37252  -0.37018
 Alpha  occ. eigenvalues --   -0.36570  -0.36366  -0.35859  -0.35733  -0.35232
 Alpha  occ. eigenvalues --   -0.34922  -0.34542  -0.34433  -0.34310  -0.33954
 Alpha  occ. eigenvalues --   -0.33575  -0.33474  -0.33390  -0.32810  -0.32737
 Alpha  occ. eigenvalues --   -0.31967  -0.31838  -0.31610  -0.31108  -0.31009
 Alpha  occ. eigenvalues --   -0.30464  -0.30314  -0.29703  -0.29156  -0.28828
 Alpha  occ. eigenvalues --   -0.28411  -0.26955  -0.26100  -0.24750  -0.23328
 Alpha  occ. eigenvalues --   -0.21543  -0.19367  -0.16587
 Alpha virt. eigenvalues --   -0.07813  -0.05224  -0.01955   0.00956   0.03157
 Alpha virt. eigenvalues --    0.04289   0.04961   0.06213   0.07206   0.07410
 Alpha virt. eigenvalues --    0.07711   0.08240   0.08755   0.08920   0.09569

 Mulliken charges:
               1
     1  C   -0.017729
     2  C   -0.003040
     3  C   -0.161217
     4  C   -0.168160
     5  C   -0.173818
     6  C   -0.178053
     7  C    0.087753
     8  C    0.100323
     9  C   -0.215935
    10  C   -0.209746
    11  C    0.098276
    12  C    0.005360
    13  C   -0.303960
    14  C   -0.317694
    15  C   -0.311742
    16  C   -0.271483
    17  C   -0.161091
    18  C   -0.156200
    19  C   -0.360167
    20  C   -0.337700
    21  C   -0.075774
    22  C   -0.081476
    23  C    0.151062
    24  C    0.076655
    25  C   -0.370976
    26  C   -0.367176
    27  C   -0.134197
    28  C   -0.110610
    29  C   -0.075870
    30  C   -0.086241
    31  C   -0.098900
    32  C   -0.125081
    33  C    0.081664
    34  C    0.154562
    35  C   -0.331259
    36  C   -0.381353
    37  C   -0.092603
    38  C   -0.091224
    39  C   -0.097237
    40  C   -0.101357
    41  H    0.065761
    42  H    0.057746
    43  H    0.087168
    44  H    0.047189
    45  H    0.075999
    46  H    0.110592
    47  H    0.092352
    48  H    0.097950
    49  H    0.094656
    50  H    0.072602
    51  H    0.099074
    52  H    0.096047
    53  H    0.084668
    54  H    0.107946
    55  H    0.106432
    56  H    0.112481
    57  H    0.110330
    58  H    0.106976
    59  H    0.100750
    60  H    0.102873
    61  H    0.104458
    62  H    0.087389
    63  H    0.106746
    64  H    0.077801
    65  H    0.081199
    66  H    0.083394
    67  H    0.104368
    68  H    0.096106
    69  H    0.107019
    70  H    0.116705
    71  H    0.118097
    72  H    0.099636
    73  H    0.067564
    74  H    0.062943
    75  H    0.130980
    76  H    0.083379
    77  H    0.127372
    78  H    0.127708
    79  H    0.131138
    80  H    0.105464
    81  H    0.071910
    82  H    0.071676
    83  H    0.071018
    84  H    0.079474
    85  H    0.059995
    86  H    0.071818
    87  H    0.063928
    88  H    0.119465
    89  H    0.122469
    90  H    0.110224
    91  H    0.100257
    92  H    0.121580
    93  H    0.071924
    94  H    0.062643
    95  H    0.090156
    96  H    0.075822
 Sum of Mulliken charges =  -0.00000

 Dipole moment (field-independent basis, Debye):
    X=             -0.5779    Y=             -0.3566    Z=             -0.4491  Tot=              0.8141
 Quadrupole moment (field-independent basis, Debye-Ang):
   XX=           -229.9993   YY=           -233.6803   ZZ=           -254.9671
   XY=              4.4038   XZ=             -8.3359   YZ=             -2.9117

 Normal termination of Gaussian 16 at Thu Aug  1 06:30:46 2019.
