 Gaussian 16, Revision A.03,
 Gaussian 16:  ES64L-G16RevA.03 25-Dec-2016

 ---------------------------------
 # td=(NStates=1) B3LYP/6-31G(d,p)
 ---------------------------------

 --
 TD
 --
 Symbolic Z-matrix:
 Charge =  0 Multiplicity = 1

                         Standard orientation:
 ---------------------------------------------------------------------
 Center     Atomic      Atomic             Coordinates (Angstroms)
 Number     Number       Type             X           Y           Z
 ---------------------------------------------------------------------
      1          6           0      -12.020594    0.588046    0.873069
      2          6           0       12.107901   -0.102783   -0.807846
      3          6           0      -13.368489   -0.261373    0.953775
      4          6           0       13.052775    1.125137   -1.230997
      5          6           0      -13.098880   -1.689030    0.811515
      6          6           0       13.392776    2.049009   -0.004200
      7          6           0      -11.076208    0.080022   -0.130525
      8          6           0       11.068911    0.504182    0.139236
      9          6           0      -12.450541   -1.957025   -0.609071
     10          6           0       12.018951    2.733522    0.437000
     11          6           0      -11.274260   -1.053553   -0.983964
     12          6           0       10.958403    1.654505    0.726197
     13          6           0      -11.450096    0.451484    2.278474
     14          6           0      -12.496927    2.106470    0.660247
     15          6           0       12.997093   -1.051416    0.032506
     16          6           0       11.635622   -0.787909   -2.084115
     17          6           0       -9.909555    0.882901   -0.344241
     18          6           0        9.894953   -0.500694    0.244004
     19          6           0      -10.418951   -1.636841   -2.010792
     20          6           0        9.982088    2.135354    1.795077
     21          6           0       -8.634384    0.388877   -0.300854
     22          6           0        8.663667   -0.210052    0.262587
     23          6           0       -7.436723    1.194370   -0.499101
     24          6           0        7.577004   -1.229735    0.499183
     25          6           0       -7.699277    2.689998   -0.712936
     26          6           0        7.955565   -2.725744    0.797291
     27          6           0       -6.170874    0.536463   -0.528003
     28          6           0        6.217941   -0.899328    0.512131
     29          6           0       -4.905994    1.266315   -0.506231
     30          6           0        5.053059   -1.678744    0.527137
     31          6           0       -3.833732    0.573685   -0.508841
     32          6           0        3.853593   -1.116925    0.335781
     33          6           0       -2.474052    1.110022   -0.555804
     34          6           0        2.577731   -1.867104    0.290043
     35          6           0       -2.336387    2.644675   -0.734328
     36          6           0        2.680851   -3.297124    0.502174
     37          6           0       -1.254282    0.429813   -0.368938
     38          6           0        1.442990   -1.042692    0.142895
     39          6           0       -1.097814   -0.966970   -0.110704
     40          6           0        0.109076   -1.577115    0.094621
     41          1           0      -13.887370   -0.002221    0.004740
     42          1           0      -13.842016    0.137477    1.903228
     43          1           0       12.582078    1.750515   -1.910609
     44          1           0       13.758845    0.753598   -1.969119
     45          1           0      -14.073032   -2.011154    0.557114
     46          1           0      -12.472828   -2.014384    1.597191
     47          1           0       13.992582    2.977226   -0.361993
     48          1           0       13.930723    1.445612    0.602161
     49          1           0      -13.389243   -1.650140   -1.358971
     50          1           0      -12.231298   -2.974392   -0.859296
     51          1           0       11.590140    3.350971   -0.305927
     52          1           0       12.197982    3.325385    1.393666
     53          1           0      -11.326336   -0.571495    2.864077
     54          1           0      -11.992188    1.184401    3.075150
     55          1           0      -10.340662    0.831703    2.111760
     56          1           0      -12.857271    2.324497   -0.334216
     57          1           0      -11.586280    2.771650    0.551224
     58          1           0      -13.291822    2.371377    1.337242
     59          1           0       13.490482   -0.583674    0.858576
     60          1           0       13.903380   -1.407035   -0.545432
     61          1           0       12.211193   -1.726480    0.427439
     62          1           0       11.070712    0.090775   -2.706970
     63          1           0       10.986276   -1.630334   -1.849673
     64          1           0       12.450842   -0.969472   -2.748840
     65          1           0      -10.016232    1.924459   -0.552895
     66          1           0       10.276914   -1.453921    0.354156
     67          1           0       -9.862357   -0.785616   -2.227657
     68          1           0      -10.979737   -1.954367   -2.810591
     69          1           0       -9.773517   -2.482316   -1.596881
     70          1           0        9.375724    1.277543    2.229655
     71          1           0        9.209673    3.055881    1.283159
     72          1           0       10.688287    2.731622    2.700428
     73          1           0       -8.436125   -0.732986    0.019709
     74          1           0        8.100188    0.697607    0.112734
     75          1           0       -8.364413    2.863332   -1.599796
     76          1           0       -6.874967    3.074215   -1.174022
     77          1           0       -8.104986    3.203564    0.154427
     78          1           0        8.755208   -2.686437    1.506780
     79          1           0        8.420921   -3.379334   -0.004134
     80          1           0        7.015665   -3.044970    1.182462
     81          1           0       -6.086437   -0.459968   -0.278020
     82          1           0        5.992664    0.168758    0.549363
     83          1           0       -4.855027    2.271669   -0.678512
     84          1           0        5.094308   -2.702526    0.624421
     85          1           0       -3.770428   -0.496316   -0.429353
     86          1           0        3.752273   -0.143910    0.331288
     87          1           0       -2.744803    2.822682   -1.628641
     88          1           0       -1.102484    2.915549   -0.841057
     89          1           0       -2.562435    3.138591    0.041824
     90          1           0        3.233642   -3.749970    1.555827
     91          1           0        3.146785   -3.594306   -0.341753
     92          1           0        1.686081   -3.694558    0.489088
     93          1           0       -0.426646    0.833335   -0.688244
     94          1           0        1.471163    0.065567   -0.087798
     95          1           0       -1.979578   -1.689256   -0.092476
     96          1           0       -0.151784   -2.724175    0.263270
 ---------------------------------------------------------------------

 SCF Done:  E(RB3LYP) =  -1557.53221410     A.U. after   14 cycles

 Excitation energies and oscillator strengths:

 Excited State   1:      Singlet-A      2.3060 eV  537.65 nm  f=3.0076  <S**2>=0.000
     148 ->149         0.70605
 This state for optimization and/or second-order correction.
 Total Energy, E(TD-HF/TD-DFT) =  -1557.44746930
 Copying the excited state density for this state as the 1-particle RhoCI density.

 The electronic state is 1-A.
 Alpha  occ. eigenvalues --  -10.21763 -10.20564 -10.20399 -10.20086 -10.19957
 Alpha  occ. eigenvalues --  -10.19932 -10.19905 -10.19591 -10.19307 -10.19291
 Alpha  occ. eigenvalues --  -10.19204 -10.19130 -10.18989 -10.18859 -10.18837
 Alpha  occ. eigenvalues --  -10.18697 -10.18374 -10.18370 -10.18341 -10.18323
 Alpha  occ. eigenvalues --  -10.18248 -10.18233 -10.18199 -10.17897 -10.17895
 Alpha  occ. eigenvalues --  -10.17863 -10.17784 -10.17749 -10.17738 -10.17716
 Alpha  occ. eigenvalues --  -10.17580 -10.17532 -10.17518 -10.17232 -10.17175
 Alpha  occ. eigenvalues --  -10.17106 -10.17074 -10.16684 -10.16619 -10.16544
 Alpha  occ. eigenvalues --   -0.85029  -0.84779  -0.83815  -0.83479  -0.81501
 Alpha  occ. eigenvalues --   -0.80972  -0.79535  -0.78422  -0.78228  -0.77840
 Alpha  occ. eigenvalues --   -0.77111  -0.75494  -0.74468  -0.72647  -0.71957
 Alpha  occ. eigenvalues --   -0.70735  -0.69207  -0.68392  -0.68222  -0.67912
 Alpha  occ. eigenvalues --   -0.67315  -0.67286  -0.66314  -0.65688  -0.65384
 Alpha  occ. eigenvalues --   -0.62570  -0.61808  -0.59779  -0.59166  -0.57690
 Alpha  occ. eigenvalues --   -0.56468  -0.55842  -0.55798  -0.54923  -0.54314
 Alpha  occ. eigenvalues --   -0.52465  -0.51867  -0.50308  -0.49724  -0.49524
 Alpha  occ. eigenvalues --   -0.48348  -0.48032  -0.47458  -0.46589  -0.45986
 Alpha  occ. eigenvalues --   -0.45774  -0.45511  -0.45449  -0.44654  -0.44417
 Alpha  occ. eigenvalues --   -0.44150  -0.44041  -0.43290  -0.42711  -0.42572
 Alpha  occ. eigenvalues --   -0.42358  -0.42129  -0.41929  -0.41541  -0.40985
 Alpha  occ. eigenvalues --   -0.40743  -0.40690  -0.40062  -0.39960  -0.39674
 Alpha  occ. eigenvalues --   -0.39622  -0.39341  -0.38536  -0.38350  -0.38113
 Alpha  occ. eigenvalues --   -0.38070  -0.37944  -0.37193  -0.36984  -0.36833
 Alpha  occ. eigenvalues --   -0.36502  -0.36099  -0.35830  -0.35331  -0.35162
 Alpha  occ. eigenvalues --   -0.34790  -0.34058  -0.33898  -0.33787  -0.33647
 Alpha  occ. eigenvalues --   -0.33589  -0.33344  -0.33107  -0.32860  -0.32770
 Alpha  occ. eigenvalues --   -0.32603  -0.31758  -0.31346  -0.31319  -0.30814
 Alpha  occ. eigenvalues --   -0.30715  -0.30275  -0.30106  -0.29221  -0.28642
 Alpha  occ. eigenvalues --   -0.26453  -0.26302  -0.25887  -0.23604  -0.22537
 Alpha  occ. eigenvalues --   -0.20942  -0.19008  -0.16518
 Alpha virt. eigenvalues --   -0.07727  -0.04795  -0.01448   0.00579   0.02250
 Alpha virt. eigenvalues --    0.03502   0.06615   0.06795   0.07305   0.07473
 Alpha virt. eigenvalues --    0.07709   0.07752   0.08075   0.08635   0.09167

 Mulliken charges:
               1
     1  C   -0.013202
     2  C   -0.023595
     3  C   -0.157152
     4  C   -0.189779
     5  C   -0.167690
     6  C   -0.189831
     7  C    0.067513
     8  C    0.097692
     9  C   -0.229358
    10  C   -0.215613
    11  C    0.070240
    12  C    0.054396
    13  C   -0.282931
    14  C   -0.311148
    15  C   -0.287424
    16  C   -0.286858
    17  C   -0.160617
    18  C   -0.149070
    19  C   -0.354283
    20  C   -0.320044
    21  C   -0.076731
    22  C   -0.039238
    23  C    0.091500
    24  C    0.061808
    25  C   -0.377244
    26  C   -0.368374
    27  C   -0.131045
    28  C   -0.143174
    29  C   -0.063209
    30  C   -0.052463
    31  C   -0.059418
    32  C   -0.084075
    33  C    0.038531
    34  C    0.104561
    35  C   -0.348344
    36  C   -0.363442
    37  C   -0.106616
    38  C   -0.128225
    39  C   -0.095657
    40  C   -0.092218
    41  H    0.078220
    42  H    0.080091
    43  H    0.090509
    44  H    0.069523
    45  H    0.104481
    46  H    0.101917
    47  H    0.077275
    48  H    0.111628
    49  H    0.057901
    50  H    0.098062
    51  H    0.120196
    52  H    0.082764
    53  H    0.091155
    54  H    0.075732
    55  H    0.086288
    56  H    0.104847
    57  H    0.088252
    58  H    0.109315
    59  H    0.108458
    60  H    0.095698
    61  H    0.092890
    62  H    0.081315
    63  H    0.104249
    64  H    0.111942
    65  H    0.086720
    66  H    0.077256
    67  H    0.125239
    68  H    0.117527
    69  H    0.110706
    70  H    0.121767
    71  H    0.072125
    72  H    0.071547
    73  H    0.070716
    74  H    0.080473
    75  H    0.113731
    76  H    0.113227
    77  H    0.134008
    78  H    0.118686
    79  H    0.105266
    80  H    0.113251
    81  H    0.082004
    82  H    0.065840
    83  H    0.083444
    84  H    0.076655
    85  H    0.071713
    86  H    0.059703
    87  H    0.128864
    88  H    0.056708
    89  H    0.139253
    90  H    0.094288
    91  H    0.146313
    92  H    0.111700
    93  H    0.078204
    94  H    0.091461
    95  H    0.076207
    96  H    0.064517
 Sum of Mulliken charges =  -0.00000

 Dipole moment (field-independent basis, Debye):
    X=             -0.3176    Y=              0.1746    Z=             -0.7938  Tot=              0.8726
 Quadrupole moment (field-independent basis, Debye-Ang):
   XX=           -229.6266   YY=           -235.6109   ZZ=           -254.3149
   XY=             -3.2158   XZ=              2.1882   YZ=             -2.4115

 Normal termination of Gaussian 16 at Sat Jul 27 01:11:47 2019.
