 Gaussian 16, Revision A.03,
 Gaussian 16:  ES64L-G16RevA.03 25-Dec-2016

 ---------------------------------
 # td=(NStates=1) B3LYP/6-31G(d,p)
 ---------------------------------

 --
 TD
 --
 Symbolic Z-matrix:
 Charge =  0 Multiplicity = 1

                         Standard orientation:
 ---------------------------------------------------------------------
 Center     Atomic      Atomic             Coordinates (Angstroms)
 Number     Number       Type             X           Y           Z
 ---------------------------------------------------------------------
      1          6           0      -12.115287   -0.529606   -0.714666
      2          6           0       12.142999    0.042008    0.868725
      3          6           0      -13.413440    0.345285   -0.541661
      4          6           0       12.994613   -1.177524    1.359265
      5          6           0      -13.095765    1.824791   -0.485909
      6          6           0       13.386040   -2.105236    0.277523
      7          6           0      -11.055080   -0.039470    0.304416
      8          6           0       10.980708   -0.446963   -0.095498
      9          6           0      -12.351502    2.000043    0.852388
     10          6           0       11.996875   -2.696328   -0.431772
     11          6           0      -11.144063    1.137120    1.050992
     12          6           0       11.003384   -1.640303   -0.669487
     13          6           0      -11.568467   -0.478649   -2.162254
     14          6           0      -12.555466   -1.900388   -0.473235
     15          6           0       13.008039    1.094164    0.180993
     16          6           0       11.482657    0.713359    2.092172
     17          6           0       -9.780166   -0.915111    0.304305
     18          6           0        9.906491    0.532779   -0.279302
     19          6           0      -10.004321    1.599603    2.058325
     20          6           0        9.962528   -2.144273   -1.687399
     21          6           0       -8.485682   -0.472405    0.292847
     22          6           0        8.549381    0.316108   -0.283101
     23          6           0       -7.361729   -1.348230    0.364026
     24          6           0        7.509863    1.326302   -0.489509
     25          6           0       -7.682845   -2.899825    0.513918
     26          6           0        7.903072    2.782557   -0.587093
     27          6           0       -6.149395   -0.844194    0.174943
     28          6           0        6.237026    0.919276   -0.494561
     29          6           0       -4.822844   -1.454582    0.298726
     30          6           0        4.972558    1.608355   -0.552835
     31          6           0       -3.762579   -0.712621    0.180923
     32          6           0        3.800491    1.138250   -0.322487
     33          6           0       -2.470192   -1.272197    0.221585
     34          6           0        2.442169    1.979022   -0.471865
     35          6           0       -2.216072   -2.700724    0.544768
     36          6           0        2.588293    3.467732   -0.692705
     37          6           0       -1.299717   -0.523530    0.082445
     38          6           0        1.297336    1.128808   -0.360257
     39          6           0       -1.158132    0.928401   -0.127918
     40          6           0       -0.001328    1.653226   -0.314898
     41          1           0      -13.947157    0.029381    0.438727
     42          1           0      -14.283118   -0.063583   -1.204956
     43          1           0       12.295120   -1.691406    2.147529
     44          1           0       13.848789   -0.713725    1.972217
     45          1           0      -14.121696    2.409741   -0.338134
     46          1           0      -12.410806    2.175391   -1.357450
     47          1           0       13.999008   -2.988763    0.603773
     48          1           0       13.981296   -1.484587   -0.478382
     49          1           0      -13.116821    1.957280    1.632030
     50          1           0      -11.740949    3.076271    1.156970
     51          1           0       11.737256   -3.798189    0.069577
     52          1           0       12.473070   -3.187291   -1.315162
     53          1           0      -11.388613    0.556459   -2.616027
     54          1           0      -12.192234   -0.962222   -2.839245
     55          1           0      -10.592140   -1.016341   -2.391244
     56          1           0      -12.776474   -2.023009    0.659287
     57          1           0      -11.745263   -2.632796   -0.683975
     58          1           0      -13.569944   -1.995761   -0.976010
     59          1           0       13.443573    0.867625   -0.750947
     60          1           0       13.933678    1.192652    0.851470
     61          1           0       12.294517    1.866960   -0.097219
     62          1           0       10.960803   -0.110650    2.669426
     63          1           0       10.887405    1.655721    1.683788
     64          1           0       12.422918    1.135755    2.730313
     65          1           0       -9.959787   -1.955108    0.422520
     66          1           0       10.226951    1.599828   -0.318662
     67          1           0       -9.259091    0.850748    2.348594
     68          1           0      -10.392678    1.996111    2.913977
     69          1           0       -9.521847    2.532695    1.478555
     70          1           0        9.435628   -1.381960   -2.175029
     71          1           0        9.362698   -2.963005   -1.160509
     72          1           0       10.436685   -2.657670   -2.394435
     73          1           0       -8.305089    0.619000    0.089615
     74          1           0        8.291402   -0.680746   -0.325877
     75          1           0       -8.262337   -2.990254    1.433794
     76          1           0       -6.727588   -3.407253    0.834143
     77          1           0       -8.282192   -3.154700   -0.343855
     78          1           0        8.332256    3.091525   -1.590739
     79          1           0        8.479396    3.134433    0.139128
     80          1           0        7.181432    3.624372   -0.493223
     81          1           0       -6.193232    0.235061    0.129659
     82          1           0        6.043103   -0.162941   -0.395001
     83          1           0       -4.659899   -2.589211    0.388272
     84          1           0        5.218744    2.622642   -0.624873
     85          1           0       -3.652582    0.374681    0.072373
     86          1           0        3.704017   -0.051733   -0.438360
     87          1           0       -2.741567   -2.954647    1.635198
     88          1           0       -1.109042   -2.832790    0.918945
     89          1           0       -2.586989   -3.414681   -0.067107
     90          1           0        2.737641    3.660051   -1.816961
     91          1           0        3.191564    3.909852   -0.024961
     92          1           0        1.528420    3.848089   -0.770167
     93          1           0       -0.189224   -1.038247    0.083365
     94          1           0        1.562179    0.153621   -0.171538
     95          1           0       -2.156222    1.586101    0.246106
     96          1           0       -0.147669    2.731042   -0.298554
 ---------------------------------------------------------------------

 SCF Done:  E(RB3LYP) =  -1557.60658685     A.U. after   15 cycles

 Excitation energies and oscillator strengths:

 Excited State   1:      Singlet-A      2.4428 eV  507.56 nm  f=2.8444  <S**2>=0.000
     148 ->149         0.70315
 This state for optimization and/or second-order correction.
 Total Energy, E(TD-HF/TD-DFT) =  -1557.51681711
 Copying the excited state density for this state as the 1-particle RhoCI density.

 The electronic state is 1-A.
 Alpha  occ. eigenvalues --  -10.21844 -10.20395 -10.20201 -10.20165 -10.20106
 Alpha  occ. eigenvalues --  -10.19941 -10.19863 -10.19844 -10.19815 -10.19679
 Alpha  occ. eigenvalues --  -10.19601 -10.19548 -10.19327 -10.19297 -10.19205
 Alpha  occ. eigenvalues --  -10.19055 -10.19042 -10.19002 -10.18966 -10.18963
 Alpha  occ. eigenvalues --  -10.18930 -10.18806 -10.18793 -10.18789 -10.18672
 Alpha  occ. eigenvalues --  -10.18532 -10.18425 -10.18378 -10.18368 -10.18292
 Alpha  occ. eigenvalues --  -10.18154 -10.18153 -10.17943 -10.17942 -10.17915
 Alpha  occ. eigenvalues --  -10.17851 -10.17310 -10.17192 -10.17133 -10.16356
 Alpha  occ. eigenvalues --   -0.84630  -0.84593  -0.83891  -0.83012  -0.81955
 Alpha  occ. eigenvalues --   -0.81286  -0.78930  -0.78407  -0.78379  -0.76992
 Alpha  occ. eigenvalues --   -0.76172  -0.75130  -0.74310  -0.72351  -0.71519
 Alpha  occ. eigenvalues --   -0.70251  -0.69717  -0.68867  -0.68238  -0.67819
 Alpha  occ. eigenvalues --   -0.67460  -0.67435  -0.66467  -0.65814  -0.65672
 Alpha  occ. eigenvalues --   -0.62392  -0.61420  -0.59199  -0.58236  -0.56556
 Alpha  occ. eigenvalues --   -0.55870  -0.55558  -0.54733  -0.53551  -0.53394
 Alpha  occ. eigenvalues --   -0.52862  -0.52228  -0.49975  -0.49647  -0.49244
 Alpha  occ. eigenvalues --   -0.48221  -0.47290  -0.47004  -0.46766  -0.45900
 Alpha  occ. eigenvalues --   -0.45527  -0.44971  -0.44903  -0.44481  -0.44221
 Alpha  occ. eigenvalues --   -0.43606  -0.43209  -0.43002  -0.42604  -0.42334
 Alpha  occ. eigenvalues --   -0.42197  -0.41698  -0.41313  -0.41108  -0.40888
 Alpha  occ. eigenvalues --   -0.40452  -0.40208  -0.40069  -0.39748  -0.39165
 Alpha  occ. eigenvalues --   -0.39102  -0.38858  -0.38362  -0.37876  -0.37842
 Alpha  occ. eigenvalues --   -0.37304  -0.36986  -0.36931  -0.36564  -0.36435
 Alpha  occ. eigenvalues --   -0.36282  -0.35945  -0.35755  -0.35481  -0.35159
 Alpha  occ. eigenvalues --   -0.34813  -0.34681  -0.34627  -0.34189  -0.33778
 Alpha  occ. eigenvalues --   -0.33379  -0.33197  -0.32809  -0.32392  -0.32319
 Alpha  occ. eigenvalues --   -0.32161  -0.31916  -0.31646  -0.31252  -0.30669
 Alpha  occ. eigenvalues --   -0.30252  -0.30120  -0.29953  -0.29311  -0.28659
 Alpha  occ. eigenvalues --   -0.28090  -0.27318  -0.26080  -0.24363  -0.23015
 Alpha  occ. eigenvalues --   -0.20834  -0.19225  -0.16902
 Alpha virt. eigenvalues --   -0.07385  -0.04515  -0.02068   0.00835   0.02686
 Alpha virt. eigenvalues --    0.03911   0.06312   0.06650   0.06741   0.07007
 Alpha virt. eigenvalues --    0.07411   0.08386   0.08706   0.09125   0.09388

 Mulliken charges:
               1
     1  C    0.025196
     2  C   -0.032678
     3  C   -0.180261
     4  C   -0.151881
     5  C   -0.183368
     6  C   -0.184335
     7  C    0.048186
     8  C    0.105384
     9  C   -0.201827
    10  C   -0.243011
    11  C    0.062683
    12  C    0.065653
    13  C   -0.300566
    14  C   -0.295785
    15  C   -0.285186
    16  C   -0.262500
    17  C   -0.148205
    18  C   -0.160556
    19  C   -0.351634
    20  C   -0.355965
    21  C   -0.093156
    22  C   -0.089169
    23  C    0.111440
    24  C    0.139053
    25  C   -0.375941
    26  C   -0.396128
    27  C   -0.133535
    28  C   -0.144905
    29  C   -0.110770
    30  C   -0.021710
    31  C   -0.034244
    32  C   -0.142131
    33  C    0.124526
    34  C    0.072180
    35  C   -0.375641
    36  C   -0.365335
    37  C   -0.145663
    38  C   -0.076255
    39  C   -0.094634
    40  C   -0.101271
    41  H    0.084959
    42  H    0.075243
    43  H    0.072136
    44  H    0.069938
    45  H    0.082165
    46  H    0.102978
    47  H    0.086356
    48  H    0.091388
    49  H    0.110699
    50  H    0.048325
    51  H    0.079495
    52  H    0.104507
    53  H    0.088218
    54  H    0.106430
    55  H    0.098608
    56  H    0.088614
    57  H    0.096417
    58  H    0.096342
    59  H    0.106730
    60  H    0.093204
    61  H    0.096768
    62  H    0.105175
    63  H    0.087632
    64  H    0.069572
    65  H    0.082233
    66  H    0.076151
    67  H    0.128684
    68  H    0.119452
    69  H    0.091992
    70  H    0.118946
    71  H    0.101700
    72  H    0.114948
    73  H    0.084014
    74  H    0.086043
    75  H    0.123306
    76  H    0.104620
    77  H    0.133837
    78  H    0.113946
    79  H    0.133395
    80  H    0.102477
    81  H    0.072443
    82  H    0.059485
    83  H    0.085867
    84  H    0.064596
    85  H    0.077331
    86  H    0.068337
    87  H    0.079568
    88  H    0.106114
    89  H    0.132807
    90  H    0.128080
    91  H    0.139852
    92  H    0.107810
    93  H    0.070659
    94  H    0.085958
    95  H    0.059520
    96  H    0.087877
 Sum of Mulliken charges =  -0.00000

 Dipole moment (field-independent basis, Debye):
    X=             -0.1222    Y=              0.3099    Z=             -0.1815  Tot=              0.3793
 Quadrupole moment (field-independent basis, Debye-Ang):
   XX=           -225.3829   YY=           -233.4429   ZZ=           -255.4937
   XY=              2.1680   XZ=             -8.8806   YZ=             -1.0461

 Normal termination of Gaussian 16 at Sun Jul 28 21:43:38 2019.
