 Gaussian 16, Revision A.03,
 Gaussian 16:  ES64L-G16RevA.03 25-Dec-2016

 ---------------------------------
 # td=(NStates=1) B3LYP/6-31G(d,p)
 ---------------------------------

 --
 TD
 --
 Symbolic Z-matrix:
 Charge =  0 Multiplicity = 1

                         Standard orientation:
 ---------------------------------------------------------------------
 Center     Atomic      Atomic             Coordinates (Angstroms)
 Number     Number       Type             X           Y           Z
 ---------------------------------------------------------------------
      1          6           0       12.102108    0.644106   -0.766942
      2          6           0      -12.197312   -0.144296    0.738646
      3          6           0       13.603460   -0.263893   -0.624482
      4          6           0      -13.078296    0.991940    1.290437
      5          6           0       13.265976   -1.788845   -0.692656
      6          6           0      -13.522813    1.962763    0.015084
      7          6           0       11.037387    0.016790    0.202781
      8          6           0      -10.995534    0.387248   -0.188970
      9          6           0       12.483338   -2.151647    0.605948
     10          6           0      -12.234283    2.581952   -0.482282
     11          6           0       11.233571   -1.293994    0.751314
     12          6           0      -11.103028    1.582280   -0.765334
     13          6           0       11.611405    0.504058   -2.222141
     14          6           0       12.511476    2.066728   -0.416659
     15          6           0      -12.924157   -1.239124    0.005757
     16          6           0      -11.727985   -0.797110    2.097508
     17          6           0        9.899208    0.907053    0.433423
     18          6           0       -9.909944   -0.509738   -0.422691
     19          6           0       10.308979   -1.787145    1.761061
     20          6           0      -10.131929    2.208265   -1.676604
     21          6           0        8.595924    0.470381    0.324712
     22          6           0       -8.526409   -0.244631   -0.235330
     23          6           0        7.376659    1.248263    0.434185
     24          6           0       -7.508529   -1.144341   -0.409442
     25          6           0        7.644911    2.740923    0.586803
     26          6           0       -7.797171   -2.519392   -0.884803
     27          6           0        6.047593    0.705512    0.532964
     28          6           0       -6.135739   -0.728776   -0.267974
     29          6           0        4.909757    1.370285    0.508129
     30          6           0       -4.954712   -1.490240   -0.391389
     31          6           0        3.745226    0.749079    0.439869
     32          6           0       -3.710078   -1.002728   -0.168383
     33          6           0        2.392245    1.278515    0.490642
     34          6           0       -2.522059   -1.886567   -0.294834
     35          6           0        2.170086    2.791122    0.659910
     36          6           0       -2.611049   -3.307888   -0.557153
     37          6           0        1.235492    0.511139    0.192247
     38          6           0       -1.316205   -1.138025   -0.083819
     39          6           0        1.169648   -0.848713   -0.135184
     40          6           0       -0.038337   -1.644285   -0.390171
     41          1           0       13.999037    0.261137    0.348483
     42          1           0       14.301702   -0.172368   -1.391827
     43          1           0      -12.825332    1.541740    2.108923
     44          1           0      -14.069446    0.474525    1.498114
     45          1           0       14.255392   -2.497108   -0.612843
     46          1           0       12.867889   -1.962682   -1.777712
     47          1           0      -14.359240    2.578755    0.548529
     48          1           0      -14.153314    1.415228   -0.793574
     49          1           0       12.961982   -2.086707    1.526009
     50          1           0       11.955272   -3.167709    0.525018
     51          1           0      -11.952384    3.149064    0.414665
     52          1           0      -12.413687    3.124499   -1.310796
     53          1           0       11.350085   -0.480955   -2.378951
     54          1           0       12.184188    1.134507   -2.790062
     55          1           0       10.688589    1.056853   -2.474261
     56          1           0       12.853337    2.189230    0.657800
     57          1           0       11.683536    2.753838   -0.685546
     58          1           0       13.184189    2.558376   -1.004286
     59          1           0      -13.273300   -0.904621   -1.033160
     60          1           0      -13.711227   -1.457304    0.828021
     61          1           0      -12.301956   -2.074185   -0.073962
     62          1           0      -10.996116   -0.204942    2.703107
     63          1           0      -11.255274   -1.850804    1.904809
     64          1           0      -12.509869   -1.108802    2.842326
     65          1           0        9.845366    1.956955    0.513702
     66          1           0      -10.180351   -1.449709   -0.784128
     67          1           0        9.534058   -0.961048    1.854386
     68          1           0       10.910883   -2.037524    2.766249
     69          1           0        9.918245   -2.666656    1.314972
     70          1           0       -9.036839    1.590073   -1.709639
     71          1           0       -9.827523    3.186674   -1.309841
     72          1           0      -10.682601    2.361560   -2.628037
     73          1           0        8.557289   -0.674695   -0.044314
     74          1           0       -8.441717    0.766569    0.268985
     75          1           0        8.297124    2.927220    1.488814
     76          1           0        6.718812    3.266696    0.852332
     77          1           0        8.113033    3.177153   -0.210882
     78          1           0       -8.497267   -2.517640   -1.948906
     79          1           0       -8.454733   -3.192252   -0.010859
     80          1           0       -6.879421   -3.046914   -0.987187
     81          1           0        6.069750   -0.517213    0.926993
     82          1           0       -6.042794    0.252502    0.053456
     83          1           0        4.717973    2.460276    0.285618
     84          1           0       -5.164817   -2.546015   -0.554008
     85          1           0        3.842705   -0.403232    0.322029
     86          1           0       -3.364011    0.033594    0.182325
     87          1           0        2.719939    3.178060    1.459453
     88          1           0        1.225152    2.989136    0.749989
     89          1           0        2.331707    3.245913   -0.305092
     90          1           0       -2.842160   -3.513825   -1.621970
     91          1           0       -3.462957   -3.932338    0.035029
     92          1           0       -1.641602   -3.647325   -0.377882
     93          1           0        0.269547    0.902465    0.322889
     94          1           0       -1.429903   -0.195206    0.390710
     95          1           0        2.041318   -1.271221   -0.276120
     96          1           0       -0.021524   -2.713738   -0.562955
 ---------------------------------------------------------------------

 SCF Done:  E(RB3LYP) =  -1557.54393928     A.U. after   17 cycles

 Excitation energies and oscillator strengths:

 Excited State   1:      Singlet-A      1.7684 eV  701.10 nm  f=3.2942  <S**2>=0.000
     148 ->149         0.71985
     148 <-149        -0.17192
 This state for optimization and/or second-order correction.
 Total Energy, E(TD-HF/TD-DFT) =  -1557.47895084
 Copying the excited state density for this state as the 1-particle RhoCI density.

 The electronic state is 1-A.
 Alpha  occ. eigenvalues --  -10.20700 -10.20694 -10.20664 -10.20645 -10.20446
 Alpha  occ. eigenvalues --  -10.20328 -10.20287 -10.20071 -10.19543 -10.19533
 Alpha  occ. eigenvalues --  -10.19528 -10.19472 -10.19390 -10.19222 -10.19173
 Alpha  occ. eigenvalues --  -10.19009 -10.18906 -10.18833 -10.18792 -10.18588
 Alpha  occ. eigenvalues --  -10.18511 -10.18436 -10.18417 -10.18384 -10.18312
 Alpha  occ. eigenvalues --  -10.18274 -10.18256 -10.18194 -10.18166 -10.17992
 Alpha  occ. eigenvalues --  -10.17941 -10.17855 -10.17802 -10.17695 -10.17553
 Alpha  occ. eigenvalues --  -10.17535 -10.17356 -10.16996 -10.16616 -10.15752
 Alpha  occ. eigenvalues --   -0.84469  -0.83971  -0.83473  -0.83180  -0.81927
 Alpha  occ. eigenvalues --   -0.81016  -0.79109  -0.78847  -0.78480  -0.77625
 Alpha  occ. eigenvalues --   -0.76304  -0.75263  -0.74669  -0.72309  -0.71561
 Alpha  occ. eigenvalues --   -0.71184  -0.69137  -0.68587  -0.68019  -0.67605
 Alpha  occ. eigenvalues --   -0.67504  -0.67056  -0.66609  -0.65887  -0.65182
 Alpha  occ. eigenvalues --   -0.62837  -0.61559  -0.59182  -0.58143  -0.57359
 Alpha  occ. eigenvalues --   -0.56461  -0.55331  -0.55005  -0.53846  -0.52694
 Alpha  occ. eigenvalues --   -0.52333  -0.51838  -0.50626  -0.50078  -0.49768
 Alpha  occ. eigenvalues --   -0.48498  -0.47510  -0.46701  -0.46334  -0.46253
 Alpha  occ. eigenvalues --   -0.45714  -0.45239  -0.44981  -0.44072  -0.44016
 Alpha  occ. eigenvalues --   -0.43916  -0.43659  -0.43074  -0.42530  -0.42475
 Alpha  occ. eigenvalues --   -0.42219  -0.42133  -0.41782  -0.41528  -0.41014
 Alpha  occ. eigenvalues --   -0.40656  -0.40403  -0.40203  -0.39770  -0.39378
 Alpha  occ. eigenvalues --   -0.39081  -0.38923  -0.38496  -0.38434  -0.38171
 Alpha  occ. eigenvalues --   -0.38000  -0.37900  -0.37064  -0.36993  -0.36914
 Alpha  occ. eigenvalues --   -0.36330  -0.36000  -0.35921  -0.35657  -0.35621
 Alpha  occ. eigenvalues --   -0.34958  -0.34777  -0.34239  -0.34029  -0.33998
 Alpha  occ. eigenvalues --   -0.33550  -0.33360  -0.32961  -0.32625  -0.32449
 Alpha  occ. eigenvalues --   -0.32331  -0.31850  -0.31592  -0.31529  -0.31418
 Alpha  occ. eigenvalues --   -0.31030  -0.29929  -0.29580  -0.28317  -0.27554
 Alpha  occ. eigenvalues --   -0.26402  -0.26259  -0.25641  -0.23545  -0.22478
 Alpha  occ. eigenvalues --   -0.20551  -0.18220  -0.15138
 Alpha virt. eigenvalues --   -0.09270  -0.05580  -0.02516   0.00706   0.02604
 Alpha virt. eigenvalues --    0.03615   0.06022   0.06158   0.06881   0.07121
 Alpha virt. eigenvalues --    0.07733   0.08283   0.08458   0.08606   0.08994

 Mulliken charges:
               1
     1  C   -0.000045
     2  C    0.005214
     3  C   -0.175216
     4  C   -0.180417
     5  C   -0.189327
     6  C   -0.208693
     7  C    0.056311
     8  C    0.053801
     9  C   -0.189337
    10  C   -0.191293
    11  C    0.038399
    12  C    0.067871
    13  C   -0.295842
    14  C   -0.320594
    15  C   -0.280114
    16  C   -0.314242
    17  C   -0.114810
    18  C   -0.129366
    19  C   -0.345790
    20  C   -0.358642
    21  C   -0.111232
    22  C   -0.114986
    23  C    0.078746
    24  C    0.128781
    25  C   -0.390055
    26  C   -0.344698
    27  C   -0.130180
    28  C   -0.105398
    29  C   -0.033173
    30  C   -0.096021
    31  C   -0.114959
    32  C   -0.098784
    33  C    0.065009
    34  C    0.113205
    35  C   -0.367593
    36  C   -0.370346
    37  C   -0.103054
    38  C   -0.103873
    39  C   -0.067480
    40  C   -0.122301
    41  H    0.077950
    42  H    0.095073
    43  H    0.109396
    44  H    0.080392
    45  H    0.060879
    46  H    0.103797
    47  H    0.073271
    48  H    0.082120
    49  H    0.128380
    50  H    0.085513
    51  H    0.113764
    52  H    0.098116
    53  H    0.112385
    54  H    0.105040
    55  H    0.088280
    56  H    0.099311
    57  H    0.086305
    58  H    0.111416
    59  H    0.096037
    60  H    0.087419
    61  H    0.115293
    62  H    0.101619
    63  H    0.072971
    64  H    0.097551
    65  H    0.085973
    66  H    0.083711
    67  H    0.119280
    68  H    0.083634
    69  H    0.116487
    70  H    0.091374
    71  H    0.116272
    72  H    0.109684
    73  H    0.070833
    74  H    0.083335
    75  H    0.120380
    76  H    0.106197
    77  H    0.132678
    78  H    0.091146
    79  H    0.078396
    80  H    0.109488
    81  H    0.070966
    82  H    0.068052
    83  H    0.091902
    84  H    0.078530
    85  H    0.068554
    86  H    0.079808
    87  H    0.120225
    88  H    0.118105
    89  H    0.126142
    90  H    0.128681
    91  H    0.107840
    92  H    0.116556
    93  H    0.066534
    94  H    0.086460
    95  H    0.065835
    96  H    0.085184
 Sum of Mulliken charges =  -0.00000

 Dipole moment (field-independent basis, Debye):
    X=              0.6352    Y=              0.7763    Z=              0.0582  Tot=              1.0048
 Quadrupole moment (field-independent basis, Debye-Ang):
   XX=           -229.7110   YY=           -233.3351   ZZ=           -253.4283
   XY=              1.7145   XZ=             -4.3818   YZ=              2.4014

 Normal termination of Gaussian 16 at Sat Jul 27 17:38:08 2019.
