 Gaussian 16, Revision A.03,
 Gaussian 16:  ES64L-G16RevA.03 25-Dec-2016

 ---------------------------------
 # td=(NStates=1) B3LYP/6-31G(d,p)
 ---------------------------------

 --
 TD
 --
 Symbolic Z-matrix:
 Charge =  0 Multiplicity = 1

                         Standard orientation:
 ---------------------------------------------------------------------
 Center     Atomic      Atomic             Coordinates (Angstroms)
 Number     Number       Type             X           Y           Z
 ---------------------------------------------------------------------
      1          6           0      -12.252280   -0.556108   -0.563972
      2          6           0       12.034056    0.063596    1.003384
      3          6           0      -13.489206    0.401723   -0.407404
      4          6           0       12.979518   -1.162734    1.442564
      5          6           0      -13.173004    1.869721   -0.612161
      6          6           0       13.493703   -1.944462    0.287889
      7          6           0      -11.114710    0.034673    0.294957
      8          6           0       11.028476   -0.363505   -0.091408
      9          6           0      -12.270438    2.324003    0.517237
     10          6           0       12.350315   -2.538707   -0.558764
     11          6           0      -11.110016    1.348681    0.724846
     12          6           0       11.099505   -1.509174   -0.655169
     13          6           0      -11.786152   -0.843317   -2.037288
     14          6           0      -12.665541   -1.993029   -0.019111
     15          6           0       13.029312    1.194895    0.392974
     16          6           0       11.348378    0.663404    2.184588
     17          6           0       -9.858769   -0.859149    0.429156
     18          6           0        9.969085    0.595940   -0.398831
     19          6           0      -10.074882    1.977569    1.696836
     20          6           0       10.177412   -2.000052   -1.781146
     21          6           0       -8.494891   -0.452615    0.395742
     22          6           0        8.636166    0.298832   -0.324668
     23          6           0       -7.377348   -1.312364    0.455772
     24          6           0        7.527921    1.342943   -0.487867
     25          6           0       -7.694318   -2.716615    0.659842
     26          6           0        7.862531    2.853162   -0.683678
     27          6           0       -6.154058   -0.773590    0.342119
     28          6           0        6.318489    0.848234   -0.313337
     29          6           0       -4.902975   -1.479804    0.303249
     30          6           0        5.036307    1.543043   -0.504504
     31          6           0       -3.735095   -0.803008    0.237668
     32          6           0        3.859420    0.933918   -0.362954
     33          6           0       -2.469931   -1.365781    0.223905
     34          6           0        2.560681    1.595811   -0.489001
     35          6           0       -2.159567   -2.860670    0.390164
     36          6           0        2.548390    3.101072   -0.637336
     37          6           0       -1.349031   -0.604284   -0.086385
     38          6           0        1.348215    0.837629   -0.415490
     39          6           0       -1.121400    0.809274   -0.216918
     40          6           0       -0.043943    1.521321   -0.362475
     41          1           0      -14.131216    0.218538    0.444382
     42          1           0      -14.090765    0.225851   -1.306972
     43          1           0       12.191630   -1.658256    2.078746
     44          1           0       13.640907   -0.647121    2.177148
     45          1           0      -14.007491    2.428761   -0.406651
     46          1           0      -12.603638    2.111491   -1.345536
     47          1           0       14.211454   -2.820889    0.678478
     48          1           0       14.057226   -1.452881   -0.319094
     49          1           0      -12.893331    2.585901    1.353923
     50          1           0      -11.701659    3.353289    0.435995
     51          1           0       11.856827   -3.391821   -0.194148
     52          1           0       12.865365   -2.620140   -1.745307
     53          1           0      -11.490897    0.068618   -2.473466
     54          1           0      -12.689794   -1.462491   -2.635748
     55          1           0      -10.966499   -1.519503   -2.039287
     56          1           0      -12.678304   -1.887889    1.148779
     57          1           0      -12.013807   -2.817025   -0.494089
     58          1           0      -13.636095   -2.302212   -0.245873
     59          1           0       13.462850    0.760716   -0.347215
     60          1           0       13.826712    1.694051    1.111426
     61          1           0       12.247258    2.075854    0.060913
     62          1           0       10.664776   -0.086201    2.569259
     63          1           0       10.775741    1.543284    2.043524
     64          1           0       12.019585    1.131467    2.929055
     65          1           0      -10.065288   -1.886998    0.715812
     66          1           0       10.360235    1.689596   -0.507609
     67          1           0       -9.516654    1.168713    2.268681
     68          1           0      -10.576325    2.646043    2.530253
     69          1           0       -9.492980    2.784541    0.952981
     70          1           0        9.527595   -1.072356   -2.323593
     71          1           0        9.533246   -2.665711   -1.339923
     72          1           0       10.441629   -2.564942   -2.866381
     73          1           0       -8.556621    0.570328    0.288880
     74          1           0        8.528717   -0.701058   -0.048908
     75          1           0       -8.124079   -2.922271    1.566238
     76          1           0       -6.815443   -3.467443    0.456961
     77          1           0       -8.500637   -2.919007   -0.178030
     78          1           0        8.501049    2.871368   -1.683291
     79          1           0        8.713691    3.265843    0.000921
     80          1           0        6.951597    3.537184   -0.630452
     81          1           0       -5.985702    0.317699    0.210601
     82          1           0        6.129308   -0.144396   -0.276829
     83          1           0       -4.838338   -2.525096    0.389709
     84          1           0        5.131420    2.474476   -0.859478
     85          1           0       -3.649938    0.350223    0.210349
     86          1           0        3.727804   -0.127662   -0.185783
     87          1           0       -2.673245   -3.310340    1.283184
     88          1           0       -1.025459   -3.051003    0.654804
     89          1           0       -2.460917   -3.355666   -0.441850
     90          1           0        3.016350    3.531087   -1.486581
     91          1           0        3.001384    3.883158    0.022031
     92          1           0        1.447072    3.391271   -0.834500
     93          1           0       -0.499412   -1.190340   -0.106358
     94          1           0        1.520453   -0.090471   -0.294655
     95          1           0       -1.919509    1.399423   -0.218216
     96          1           0       -0.209803    2.459551   -0.585380
 ---------------------------------------------------------------------

 SCF Done:  E(RB3LYP) =  -1557.51688426     A.U. after   14 cycles

 Excitation energies and oscillator strengths:

 Excited State   1:      Singlet-A      2.4094 eV  514.58 nm  f=2.8693  <S**2>=0.000
     148 ->149         0.70162
 This state for optimization and/or second-order correction.
 Total Energy, E(TD-HF/TD-DFT) =  -1557.42833888
 Copying the excited state density for this state as the 1-particle RhoCI density.

 The electronic state is 1-A.
 Alpha  occ. eigenvalues --  -10.21142 -10.20489 -10.20486 -10.20471 -10.20324
 Alpha  occ. eigenvalues --  -10.20269 -10.19879 -10.19611 -10.19474 -10.19285
 Alpha  occ. eigenvalues --  -10.19112 -10.19069 -10.18860 -10.18798 -10.18790
 Alpha  occ. eigenvalues --  -10.18744 -10.18684 -10.18680 -10.18622 -10.18606
 Alpha  occ. eigenvalues --  -10.18559 -10.18457 -10.18387 -10.18160 -10.18149
 Alpha  occ. eigenvalues --  -10.18050 -10.18016 -10.17984 -10.17982 -10.17940
 Alpha  occ. eigenvalues --  -10.17887 -10.17755 -10.17709 -10.17674 -10.17625
 Alpha  occ. eigenvalues --  -10.17595 -10.17157 -10.16902 -10.16231 -10.15425
 Alpha  occ. eigenvalues --   -0.84914  -0.84355  -0.83885  -0.83034  -0.82568
 Alpha  occ. eigenvalues --   -0.80999  -0.79423  -0.77994  -0.77766  -0.77242
 Alpha  occ. eigenvalues --   -0.76826  -0.75467  -0.74410  -0.71642  -0.71336
 Alpha  occ. eigenvalues --   -0.69477  -0.68956  -0.68443  -0.68228  -0.67707
 Alpha  occ. eigenvalues --   -0.67337  -0.67077  -0.66916  -0.66214  -0.66034
 Alpha  occ. eigenvalues --   -0.62948  -0.62023  -0.60057  -0.59611  -0.57367
 Alpha  occ. eigenvalues --   -0.56950  -0.55994  -0.55282  -0.54848  -0.54375
 Alpha  occ. eigenvalues --   -0.53239  -0.52794  -0.51512  -0.50330  -0.49360
 Alpha  occ. eigenvalues --   -0.48768  -0.47582  -0.47209  -0.46068  -0.46024
 Alpha  occ. eigenvalues --   -0.45303  -0.44861  -0.44478  -0.44324  -0.43919
 Alpha  occ. eigenvalues --   -0.43396  -0.43333  -0.43156  -0.42725  -0.42444
 Alpha  occ. eigenvalues --   -0.42198  -0.41904  -0.41677  -0.41484  -0.40849
 Alpha  occ. eigenvalues --   -0.40237  -0.40048  -0.39751  -0.39577  -0.39179
 Alpha  occ. eigenvalues --   -0.38818  -0.38502  -0.38332  -0.38160  -0.37850
 Alpha  occ. eigenvalues --   -0.37666  -0.36990  -0.36664  -0.36516  -0.36443
 Alpha  occ. eigenvalues --   -0.36363  -0.36074  -0.36015  -0.35393  -0.35242
 Alpha  occ. eigenvalues --   -0.35152  -0.35071  -0.34644  -0.34342  -0.34153
 Alpha  occ. eigenvalues --   -0.33763  -0.33595  -0.33448  -0.32915  -0.32216
 Alpha  occ. eigenvalues --   -0.31981  -0.31905  -0.31623  -0.31571  -0.31331
 Alpha  occ. eigenvalues --   -0.31115  -0.30386  -0.29618  -0.28497  -0.27574
 Alpha  occ. eigenvalues --   -0.27174  -0.26353  -0.25812  -0.24781  -0.23025
 Alpha  occ. eigenvalues --   -0.21480  -0.19070  -0.16834
 Alpha virt. eigenvalues --   -0.07523  -0.04718  -0.01232   0.00698   0.03016
 Alpha virt. eigenvalues --    0.03956   0.06166   0.06454   0.07062   0.07398
 Alpha virt. eigenvalues --    0.07898   0.08299   0.08857   0.09109   0.09377

 Mulliken charges:
               1
     1  C    0.008467
     2  C   -0.040866
     3  C   -0.185830
     4  C   -0.165508
     5  C   -0.167506
     6  C   -0.163592
     7  C    0.061616
     8  C    0.116512
     9  C   -0.230890
    10  C   -0.195993
    11  C    0.049100
    12  C    0.000647
    13  C   -0.291451
    14  C   -0.311778
    15  C   -0.281356
    16  C   -0.298191
    17  C   -0.167458
    18  C   -0.139209
    19  C   -0.347065
    20  C   -0.351917
    21  C   -0.084467
    22  C   -0.081618
    23  C    0.136794
    24  C    0.108983
    25  C   -0.378242
    26  C   -0.370214
    27  C   -0.119860
    28  C   -0.100768
    29  C   -0.081898
    30  C   -0.067576
    31  C   -0.101029
    32  C   -0.111192
    33  C    0.106169
    34  C    0.115676
    35  C   -0.377214
    36  C   -0.390486
    37  C   -0.113215
    38  C   -0.102842
    39  C   -0.055988
    40  C   -0.075215
    41  H    0.096435
    42  H    0.091207
    43  H    0.084720
    44  H    0.090271
    45  H    0.093605
    46  H    0.111406
    47  H    0.069085
    48  H    0.117589
    49  H    0.104275
    50  H    0.067367
    51  H    0.117795
    52  H    0.070179
    53  H    0.106947
    54  H    0.066921
    55  H    0.119122
    56  H    0.087984
    57  H    0.089814
    58  H    0.109862
    59  H    0.115552
    60  H    0.082457
    61  H    0.065309
    62  H    0.098149
    63  H    0.106363
    64  H    0.090578
    65  H    0.083665
    66  H    0.069525
    67  H    0.122572
    68  H    0.095610
    69  H    0.091147
    70  H    0.089485
    71  H    0.127315
    72  H    0.077581
    73  H    0.080878
    74  H    0.088408
    75  H    0.140624
    76  H    0.091888
    77  H    0.107404
    78  H    0.113503
    79  H    0.114899
    80  H    0.115322
    81  H    0.079257
    82  H    0.073900
    83  H    0.078423
    84  H    0.068337
    85  H    0.076518
    86  H    0.070791
    87  H    0.108437
    88  H    0.100005
    89  H    0.139959
    90  H    0.121277
    91  H    0.116336
    92  H    0.092600
    93  H    0.061625
    94  H    0.062384
    95  H    0.057234
    96  H    0.076563
 Sum of Mulliken charges =  -0.00000

 Dipole moment (field-independent basis, Debye):
    X=             -0.5538    Y=              0.1674    Z=              0.1533  Tot=              0.5985
 Quadrupole moment (field-independent basis, Debye-Ang):
   XX=           -223.8533   YY=           -233.0480   ZZ=           -256.0770
   XY=              1.6433   XZ=             -2.2979   YZ=             -1.5130

 Normal termination of Gaussian 16 at Fri Aug  2 00:42:10 2019.
