 Gaussian 16, Revision A.03,
 Gaussian 16:  ES64L-G16RevA.03 25-Dec-2016

 ---------------------------------
 # td=(NStates=1) B3LYP/6-31G(d,p)
 ---------------------------------

 --
 TD
 --
 Symbolic Z-matrix:
 Charge =  0 Multiplicity = 1

                         Standard orientation:
 ---------------------------------------------------------------------
 Center     Atomic      Atomic             Coordinates (Angstroms)
 Number     Number       Type             X           Y           Z
 ---------------------------------------------------------------------
      1          6           0       12.137425    0.468511   -0.783847
      2          6           0      -12.087021    0.003246    0.850660
      3          6           0       13.373633   -0.520935   -0.666009
      4          6           0      -12.982959    1.116787    1.348177
      5          6           0       12.961483   -1.975623   -0.555257
      6          6           0      -13.392803    2.016220    0.206549
      7          6           0       10.964878   -0.033270    0.164940
      8          6           0      -11.027232    0.341933   -0.093648
      9          6           0       12.120155   -2.275497    0.704643
     10          6           0      -12.155318    2.490912   -0.575066
     11          6           0       11.062157   -1.172620    0.915108
     12          6           0      -11.076727    1.568474   -0.767332
     13          6           0       11.591774    0.481791   -2.210117
     14          6           0       12.607469    1.866994   -0.402819
     15          6           0      -13.017736   -1.145234    0.156826
     16          6           0      -11.464797   -0.769531    2.143394
     17          6           0        9.950908    0.879497    0.419434
     18          6           0       -9.890079   -0.620274   -0.314994
     19          6           0       10.026609   -1.643715    2.020921
     20          6           0      -10.026521    2.059468   -1.730050
     21          6           0        8.584042    0.508775    0.420275
     22          6           0       -8.563401   -0.352811   -0.254875
     23          6           0        7.498730    1.431123    0.460999
     24          6           0       -7.514446   -1.441980   -0.452905
     25          6           0        7.678550    2.976924    0.698095
     26          6           0       -7.824569   -2.713785   -0.766788
     27          6           0        6.219270    0.848696    0.414383
     28          6           0       -6.267911   -0.899225   -0.257397
     29          6           0        4.940012    1.483783    0.383873
     30          6           0       -4.967732   -1.653280   -0.429956
     31          6           0        3.766223    0.745964    0.218605
     32          6           0       -3.758575   -0.972204   -0.267398
     33          6           0        2.348218    1.379951    0.215946
     34          6           0       -2.552303   -1.688257   -0.416017
     35          6           0        2.285953    2.869972    0.413050
     36          6           0       -2.532524   -3.225073   -0.650702
     37          6           0        1.284952    0.631637    0.068309
     38          6           0       -1.361975   -0.924771   -0.289878
     39          6           0        1.102680   -0.730342   -0.031156
     40          6           0       -0.020680   -1.429929   -0.209675
     41          1           0       14.023250   -0.292993    0.191676
     42          1           0       13.974519   -0.466681   -1.585700
     43          1           0      -12.363146    1.610249    1.987606
     44          1           0      -13.967218    0.753693    1.699264
     45          1           0       13.969891   -2.443739   -0.583892
     46          1           0       12.440975   -2.291994   -1.437404
     47          1           0      -14.097061    2.835214    0.520464
     48          1           0      -14.035832    1.249821   -0.344287
     49          1           0       12.672891   -2.165005    1.516053
     50          1           0       11.649378   -3.345804    0.679245
     51          1           0      -11.868249    3.402475    0.026955
     52          1           0      -12.340706    3.190457   -1.414224
     53          1           0       11.375562   -0.520625   -2.639162
     54          1           0       12.346963    0.856535   -2.766377
     55          1           0       10.689222    1.064531   -2.450348
     56          1           0       13.028949    1.828215    0.649945
     57          1           0       11.702279    2.430060   -0.412552
     58          1           0       13.369318    2.174676   -1.090208
     59          1           0      -13.451226   -0.656560   -0.554195
     60          1           0      -13.742869   -1.617851    1.004668
     61          1           0      -12.487188   -2.077879   -0.327249
     62          1           0      -10.674827   -0.107921    2.650572
     63          1           0      -10.935083   -1.587297    1.898087
     64          1           0      -12.265456   -1.139037    2.713293
     65          1           0       10.152734    1.915598    0.476612
     66          1           0      -10.294325   -1.610617   -0.198830
     67          1           0        9.372747   -0.939987    2.447026
     68          1           0       10.640803   -1.980478    2.756745
     69          1           0        9.608979   -2.557939    1.769842
     70          1           0       -9.417248    1.242105   -1.805267
     71          1           0       -9.353526    2.962654   -1.518682
     72          1           0      -10.425234    2.312906   -2.857800
     73          1           0        8.336170   -0.656793    0.434568
     74          1           0       -8.176554    0.651654   -0.169133
     75          1           0        8.270758    2.888780    1.684506
     76          1           0        6.681329    3.428894    0.814115
     77          1           0        8.410404    3.201716   -0.054904
     78          1           0       -8.410228   -2.782854   -1.516248
     79          1           0       -8.193814   -3.272755    0.183969
     80          1           0       -6.966623   -3.249670   -1.106447
     81          1           0        6.255339   -0.240768    0.056337
     82          1           0       -6.072608    0.075656   -0.029722
     83          1           0        4.825032    2.669967    0.520864
     84          1           0       -4.719917   -2.856219   -0.660195
     85          1           0        3.823140   -0.320566    0.127741
     86          1           0       -3.683284    0.137328    0.021783
     87          1           0        2.993213    3.054620    1.239087
     88          1           0        1.153155    3.160149    0.530791
     89          1           0        2.582881    3.519188   -0.514618
     90          1           0       -2.729984   -3.472959   -1.881019
     91          1           0       -3.456239   -3.741586   -0.094633
     92          1           0       -1.577762   -3.739219   -0.592688
     93          1           0        0.464948    1.243868    0.186646
     94          1           0       -1.471977    0.015919    0.044367
     95          1           0        2.047809   -1.243935   -0.214884
     96          1           0        0.196656   -2.391000   -0.601966
 ---------------------------------------------------------------------

 SCF Done:  E(RB3LYP) =  -1557.59248116     A.U. after   16 cycles

 Excitation energies and oscillator strengths:

 Excited State   1:      Singlet-A      2.1810 eV  568.47 nm  f=2.8292  <S**2>=0.000
     148 ->149         0.70659
 This state for optimization and/or second-order correction.
 Total Energy, E(TD-HF/TD-DFT) =  -1557.51232961
 Copying the excited state density for this state as the 1-particle RhoCI density.

 The electronic state is 1-A.
 Alpha  occ. eigenvalues --  -10.21438 -10.20593 -10.20412 -10.20170 -10.20004
 Alpha  occ. eigenvalues --  -10.19906 -10.19825 -10.19702 -10.19549 -10.19418
 Alpha  occ. eigenvalues --  -10.19336 -10.19310 -10.19283 -10.19237 -10.19140
 Alpha  occ. eigenvalues --  -10.18896 -10.18864 -10.18707 -10.18589 -10.18567
 Alpha  occ. eigenvalues --  -10.18354 -10.18164 -10.18032 -10.17973 -10.17947
 Alpha  occ. eigenvalues --  -10.17893 -10.17864 -10.17732 -10.17729 -10.17702
 Alpha  occ. eigenvalues --  -10.17689 -10.17682 -10.17489 -10.17073 -10.16756
 Alpha  occ. eigenvalues --  -10.16540 -10.16338 -10.16170 -10.16147 -10.15909
 Alpha  occ. eigenvalues --   -0.85353  -0.84559  -0.83777  -0.83433  -0.81916
 Alpha  occ. eigenvalues --   -0.81322  -0.78604  -0.78395  -0.78040  -0.77524
 Alpha  occ. eigenvalues --   -0.77256  -0.74993  -0.73701  -0.72828  -0.72209
 Alpha  occ. eigenvalues --   -0.70165  -0.68715  -0.68682  -0.68501  -0.67962
 Alpha  occ. eigenvalues --   -0.67768  -0.67748  -0.67287  -0.66614  -0.66457
 Alpha  occ. eigenvalues --   -0.62217  -0.61855  -0.59635  -0.58581  -0.57144
 Alpha  occ. eigenvalues --   -0.56682  -0.56011  -0.55152  -0.54153  -0.53553
 Alpha  occ. eigenvalues --   -0.51826  -0.51205  -0.50466  -0.49904  -0.49260
 Alpha  occ. eigenvalues --   -0.48275  -0.47940  -0.47200  -0.46875  -0.46004
 Alpha  occ. eigenvalues --   -0.45434  -0.45326  -0.44887  -0.44555  -0.44469
 Alpha  occ. eigenvalues --   -0.43973  -0.43785  -0.42942  -0.42406  -0.42212
 Alpha  occ. eigenvalues --   -0.41860  -0.41599  -0.41538  -0.41441  -0.41063
 Alpha  occ. eigenvalues --   -0.40577  -0.40289  -0.40057  -0.39701  -0.39518
 Alpha  occ. eigenvalues --   -0.39277  -0.39175  -0.39104  -0.38820  -0.38680
 Alpha  occ. eigenvalues --   -0.37871  -0.37605  -0.37259  -0.37112  -0.36920
 Alpha  occ. eigenvalues --   -0.36676  -0.36526  -0.36292  -0.35964  -0.35324
 Alpha  occ. eigenvalues --   -0.35220  -0.35023  -0.34625  -0.34229  -0.34145
 Alpha  occ. eigenvalues --   -0.33574  -0.33442  -0.33191  -0.32768  -0.32497
 Alpha  occ. eigenvalues --   -0.32436  -0.32281  -0.31476  -0.31185  -0.30920
 Alpha  occ. eigenvalues --   -0.30643  -0.29888  -0.29678  -0.28777  -0.28566
 Alpha  occ. eigenvalues --   -0.27995  -0.27759  -0.26166  -0.23855  -0.22448
 Alpha  occ. eigenvalues --   -0.20246  -0.18068  -0.16099
 Alpha virt. eigenvalues --   -0.07722  -0.05112  -0.01698   0.00861   0.02545
 Alpha virt. eigenvalues --    0.04341   0.06041   0.06572   0.06790   0.07217
 Alpha virt. eigenvalues --    0.07690   0.08169   0.08232   0.09254   0.09471

 Mulliken charges:
               1
     1  C   -0.019917
     2  C   -0.044216
     3  C   -0.182443
     4  C   -0.156516
     5  C   -0.192177
     6  C   -0.194900
     7  C    0.095055
     8  C    0.083391
     9  C   -0.208271
    10  C   -0.230273
    11  C    0.018937
    12  C    0.090484
    13  C   -0.301204
    14  C   -0.293270
    15  C   -0.297078
    16  C   -0.299100
    17  C   -0.162647
    18  C   -0.156818
    19  C   -0.361248
    20  C   -0.363739
    21  C   -0.099096
    22  C   -0.083702
    23  C    0.087855
    24  C    0.145965
    25  C   -0.356824
    26  C   -0.377875
    27  C   -0.135837
    28  C   -0.128413
    29  C   -0.087117
    30  C   -0.112331
    31  C   -0.109648
    32  C   -0.099404
    33  C    0.099414
    34  C    0.146147
    35  C   -0.368165
    36  C   -0.371368
    37  C   -0.086092
    38  C   -0.122616
    39  C   -0.088237
    40  C   -0.088789
    41  H    0.089133
    42  H    0.085356
    43  H    0.103312
    44  H    0.092999
    45  H    0.081640
    46  H    0.102764
    47  H    0.082452
    48  H    0.082241
    49  H    0.122936
    50  H    0.086288
    51  H    0.097963
    52  H    0.096134
    53  H    0.097078
    54  H    0.102876
    55  H    0.103230
    56  H    0.094316
    57  H    0.100163
    58  H    0.104277
    59  H    0.121176
    60  H    0.073301
    61  H    0.083935
    62  H    0.087359
    63  H    0.105984
    64  H    0.099141
    65  H    0.079339
    66  H    0.082987
    67  H    0.123720
    68  H    0.107586
    69  H    0.116276
    70  H    0.122816
    71  H    0.102080
    72  H    0.076628
    73  H    0.088343
    74  H    0.091864
    75  H    0.120856
    76  H    0.117902
    77  H    0.133712
    78  H    0.133151
    79  H    0.113338
    80  H    0.115862
    81  H    0.074764
    82  H    0.079621
    83  H    0.070995
    84  H    0.070336
    85  H    0.082210
    86  H    0.081652
    87  H    0.124020
    88  H    0.094539
    89  H    0.111452
    90  H    0.085443
    91  H    0.114561
    92  H    0.125932
    93  H    0.053116
    94  H    0.074331
    95  H    0.072005
    96  H    0.074594
 Sum of Mulliken charges =  -0.00000

 Dipole moment (field-independent basis, Debye):
    X=              1.1033    Y=             -0.3830    Z=              0.0682  Tot=              1.1699
 Quadrupole moment (field-independent basis, Debye-Ang):
   XX=           -220.0614   YY=           -232.9591   ZZ=           -255.4568
   XY=              0.0961   XZ=             -2.5910   YZ=              1.9175

 Normal termination of Gaussian 16 at Wed Jul 31 01:08:09 2019.
