 Gaussian 16, Revision A.03,
 Gaussian 16:  ES64L-G16RevA.03 25-Dec-2016

 ---------------------------------
 # td=(NStates=1) B3LYP/6-31G(d,p)
 ---------------------------------

 --
 TD
 --
 Symbolic Z-matrix:
 Charge =  0 Multiplicity = 1

                         Standard orientation:
 ---------------------------------------------------------------------
 Center     Atomic      Atomic             Coordinates (Angstroms)
 Number     Number       Type             X           Y           Z
 ---------------------------------------------------------------------
      1          6           0      -12.194588   -0.600960   -0.676983
      2          6           0       12.146167    0.016658    0.928174
      3          6           0      -13.481373    0.210737   -0.560464
      4          6           0       12.999117   -1.232885    1.305674
      5          6           0      -13.280050    1.747463   -0.612048
      6          6           0       13.585597   -1.976028    0.016406
      7          6           0      -11.059500   -0.045700    0.273581
      8          6           0       11.052090   -0.469247   -0.090266
      9          6           0      -12.448948    2.109297    0.551407
     10          6           0       12.324151   -2.553398   -0.626294
     11          6           0      -11.222549    1.195931    0.851188
     12          6           0       11.034736   -1.593201   -0.741875
     13          6           0      -11.731558   -0.671656   -2.143206
     14          6           0      -12.564647   -2.016912   -0.287395
     15          6           0       12.966676    1.196727    0.370117
     16          6           0       11.497920    0.581183    2.119910
     17          6           0       -9.889217   -0.930873    0.477111
     18          6           0        9.944916    0.455645   -0.254471
     19          6           0      -10.285931    1.849612    1.848036
     20          6           0       10.075618   -2.020331   -1.759142
     21          6           0       -8.596415   -0.539454    0.368600
     22          6           0        8.580192    0.271939   -0.210147
     23          6           0       -7.369822   -1.315682    0.439090
     24          6           0        7.549973    1.218189   -0.398837
     25          6           0       -7.581070   -2.744986    0.913149
     26          6           0        7.942318    2.714560   -0.479554
     27          6           0       -6.152696   -0.687674    0.309722
     28          6           0        6.262225    0.800184   -0.289557
     29          6           0       -4.910809   -1.239711    0.528787
     30          6           0        5.099240    1.616629   -0.469116
     31          6           0       -3.676730   -0.593328    0.211489
     32          6           0        3.804383    1.188068   -0.295249
     33          6           0       -2.464048   -1.211290    0.195625
     34          6           0        2.556216    1.816542   -0.484420
     35          6           0       -2.327552   -2.687457    0.463393
     36          6           0        2.609760    3.282409   -0.751459
     37          6           0       -1.205720   -0.474831   -0.069598
     38          6           0        1.388500    1.108576   -0.323786
     39          6           0       -1.053703    0.898078   -0.445156
     40          6           0        0.130939    1.517036   -0.528888
     41          1           0      -13.808324   -0.081378    0.417255
     42          1           0      -14.141568   -0.081548   -1.270479
     43          1           0       12.267059   -1.911536    1.884562
     44          1           0       13.737935   -0.798391    2.118279
     45          1           0      -14.199925    2.156990   -0.501840
     46          1           0      -12.805414    2.172531   -1.670155
     47          1           0       14.076860   -2.917377    0.395915
     48          1           0       14.055302   -1.175472   -0.670157
     49          1           0      -13.067062    2.332940    1.479870
     50          1           0      -11.952063    3.170902    0.507942
     51          1           0       11.867913   -3.413545   -0.011206
     52          1           0       12.399793   -3.311305   -1.397310
     53          1           0      -11.530419    0.159907   -2.739393
     54          1           0      -12.427163   -1.137242   -2.615604
     55          1           0      -10.870307   -1.264280   -2.236273
     56          1           0      -12.592502   -1.901649    0.894656
     57          1           0      -11.991494   -2.810409   -0.607092
     58          1           0      -13.588372   -2.428042   -0.928741
     59          1           0       13.824405    0.949812   -0.615640
     60          1           0       13.612402    1.384646    1.149622
     61          1           0       12.502186    2.025604    0.041625
     62          1           0       10.706799   -0.028587    2.667405
     63          1           0       10.811083    1.542056    1.939730
     64          1           0       12.152664    0.991717    2.969090
     65          1           0      -10.214654   -2.038430    0.499815
     66          1           0       10.289284    1.511205   -0.461841
     67          1           0       -9.432539    1.220834    2.195299
     68          1           0      -10.947193    2.500556    2.755603
     69          1           0       -9.846866    2.703956    1.452815
     70          1           0        9.503137   -1.132293   -2.102964
     71          1           0        9.311699   -2.809606   -1.250529
     72          1           0       10.348815   -2.469800   -2.774830
     73          1           0       -8.533720    0.547430    0.031892
     74          1           0        8.088732   -0.729964   -0.221235
     75          1           0       -8.163738   -2.767880    2.013800
     76          1           0       -6.705475   -3.250197    1.080297
     77          1           0       -8.088916   -3.264880    0.198001
     78          1           0        8.378542    2.973961   -1.436918
     79          1           0        8.730418    2.991830    0.376005
     80          1           0        7.072020    3.530520   -0.214856
     81          1           0       -6.279090    0.468865    0.110215
     82          1           0        5.992444   -0.201523   -0.239601
     83          1           0       -4.818794   -2.349101    1.011344
     84          1           0        5.130427    2.704193   -0.541660
     85          1           0       -3.981091    0.439230    0.008306
     86          1           0        3.863766    0.016252   -0.176032
     87          1           0       -2.692634   -3.095325    1.418988
     88          1           0       -1.116484   -3.089150    0.329714
     89          1           0       -2.952995   -3.354063   -0.083960
     90          1           0        3.494286    3.484283   -1.479302
     91          1           0        3.070117    3.736559    0.212885
     92          1           0        1.633952    3.736941   -0.755759
     93          1           0       -0.084762   -0.978314    0.098779
     94          1           0        1.540449   -0.119086   -0.320654
     95          1           0       -1.828851    1.664141   -0.409421
     96          1           0       -0.122927    2.653347   -0.567559
 ---------------------------------------------------------------------

 SCF Done:  E(RB3LYP) =  -1557.52883500     A.U. after   17 cycles

 Excitation energies and oscillator strengths:

 Excited State   1:      Singlet-A      1.8778 eV  660.27 nm  f=3.3661  <S**2>=0.000
     148 ->149         0.71779
     148 <-149        -0.16601
 This state for optimization and/or second-order correction.
 Total Energy, E(TD-HF/TD-DFT) =  -1557.45982788
 Copying the excited state density for this state as the 1-particle RhoCI density.

 The electronic state is 1-A.
 Alpha  occ. eigenvalues --  -10.21087 -10.21051 -10.20730 -10.20368 -10.20257
 Alpha  occ. eigenvalues --  -10.20175 -10.20086 -10.20016 -10.19993 -10.19799
 Alpha  occ. eigenvalues --  -10.19648 -10.19575 -10.19528 -10.19487 -10.19441
 Alpha  occ. eigenvalues --  -10.19373 -10.19138 -10.19051 -10.19042 -10.19028
 Alpha  occ. eigenvalues --  -10.19023 -10.18960 -10.18952 -10.18944 -10.18866
 Alpha  occ. eigenvalues --  -10.18845 -10.18827 -10.18760 -10.18722 -10.18714
 Alpha  occ. eigenvalues --  -10.18566 -10.18560 -10.18479 -10.18424 -10.18258
 Alpha  occ. eigenvalues --  -10.18052 -10.18012 -10.17907 -10.16348 -10.14002
 Alpha  occ. eigenvalues --   -0.85384  -0.84646  -0.84202  -0.83129  -0.82574
 Alpha  occ. eigenvalues --   -0.81334  -0.79698  -0.79140  -0.78420  -0.77487
 Alpha  occ. eigenvalues --   -0.77095  -0.75241  -0.74448  -0.72022  -0.71514
 Alpha  occ. eigenvalues --   -0.70088  -0.69175  -0.68531  -0.68285  -0.67983
 Alpha  occ. eigenvalues --   -0.67524  -0.67305  -0.66713  -0.66275  -0.66043
 Alpha  occ. eigenvalues --   -0.63404  -0.62183  -0.59992  -0.59198  -0.57876
 Alpha  occ. eigenvalues --   -0.56405  -0.55896  -0.55360  -0.53315  -0.52831
 Alpha  occ. eigenvalues --   -0.52213  -0.51687  -0.49744  -0.49622  -0.48960
 Alpha  occ. eigenvalues --   -0.48059  -0.47773  -0.47339  -0.46816  -0.45881
 Alpha  occ. eigenvalues --   -0.45503  -0.45152  -0.45032  -0.44442  -0.44249
 Alpha  occ. eigenvalues --   -0.43780  -0.43304  -0.42651  -0.42369  -0.41788
 Alpha  occ. eigenvalues --   -0.41687  -0.41372  -0.41327  -0.41006  -0.40641
 Alpha  occ. eigenvalues --   -0.40337  -0.39975  -0.39613  -0.39511  -0.39453
 Alpha  occ. eigenvalues --   -0.39093  -0.38929  -0.38804  -0.38144  -0.38012
 Alpha  occ. eigenvalues --   -0.37446  -0.36996  -0.36801  -0.36703  -0.36202
 Alpha  occ. eigenvalues --   -0.35958  -0.35447  -0.35371  -0.35244  -0.35197
 Alpha  occ. eigenvalues --   -0.34616  -0.34321  -0.33971  -0.33810  -0.33653
 Alpha  occ. eigenvalues --   -0.33454  -0.33217  -0.33038  -0.32623  -0.32263
 Alpha  occ. eigenvalues --   -0.32245  -0.32089  -0.31648  -0.31593  -0.30868
 Alpha  occ. eigenvalues --   -0.30838  -0.30495  -0.30308  -0.29381  -0.28736
 Alpha  occ. eigenvalues --   -0.28185  -0.27372  -0.26387  -0.24650  -0.23155
 Alpha  occ. eigenvalues --   -0.21315  -0.19028  -0.15615
 Alpha virt. eigenvalues --   -0.09349  -0.05344  -0.01628   0.00595   0.03169
 Alpha virt. eigenvalues --    0.04091   0.05384   0.06165   0.06358   0.06822
 Alpha virt. eigenvalues --    0.07044   0.07517   0.07954   0.08219   0.08498

 Mulliken charges:
               1
     1  C   -0.004023
     2  C    0.001031
     3  C   -0.159136
     4  C   -0.171503
     5  C   -0.168777
     6  C   -0.178089
     7  C    0.036958
     8  C    0.092284
     9  C   -0.224396
    10  C   -0.233030
    11  C    0.087211
    12  C    0.101389
    13  C   -0.296974
    14  C   -0.294888
    15  C   -0.267799
    16  C   -0.305376
    17  C   -0.120596
    18  C   -0.180829
    19  C   -0.363092
    20  C   -0.376254
    21  C   -0.113559
    22  C   -0.083561
    23  C    0.106383
    24  C    0.147575
    25  C   -0.352316
    26  C   -0.371733
    27  C   -0.115238
    28  C   -0.130128
    29  C   -0.092688
    30  C   -0.073522
    31  C   -0.102206
    32  C   -0.115108
    33  C    0.122016
    34  C    0.143292
    35  C   -0.374604
    36  C   -0.385850
    37  C   -0.136661
    38  C   -0.105584
    39  C   -0.061896
    40  C   -0.086415
    41  H    0.095445
    42  H    0.088758
    43  H    0.095403
    44  H    0.066191
    45  H    0.102601
    46  H    0.071697
    47  H    0.105014
    48  H    0.111832
    49  H    0.099812
    50  H    0.080210
    51  H    0.085377
    52  H    0.094546
    53  H    0.098672
    54  H    0.102329
    55  H    0.099654
    56  H    0.094554
    57  H    0.114607
    58  H    0.056193
    59  H    0.034684
    60  H    0.116089
    61  H    0.119768
    62  H    0.103504
    63  H    0.087089
    64  H    0.091941
    65  H    0.081761
    66  H    0.080955
    67  H    0.118292
    68  H    0.059597
    69  H    0.130206
    70  H    0.122276
    71  H    0.090632
    72  H    0.106991
    73  H    0.080007
    74  H    0.074082
    75  H    0.094395
    76  H    0.108551
    77  H    0.131195
    78  H    0.129164
    79  H    0.102864
    80  H    0.091066
    81  H    0.075405
    82  H    0.077891
    83  H    0.067443
    84  H    0.062698
    85  H    0.086581
    86  H    0.049979
    87  H    0.117088
    88  H    0.079646
    89  H    0.128295
    90  H    0.124835
    91  H    0.114895
    92  H    0.119261
    93  H    0.074600
    94  H    0.065063
    95  H    0.083600
    96  H    0.062408
 Sum of Mulliken charges =  -0.00000

 Dipole moment (field-independent basis, Debye):
    X=              0.9456    Y=              0.1810    Z=             -0.1253  Tot=              0.9709
 Quadrupole moment (field-independent basis, Debye-Ang):
   XX=           -221.8383   YY=           -232.2718   ZZ=           -256.5624
   XY=             -0.4659   XZ=              4.4907   YZ=             -0.1090

 Normal termination of Gaussian 16 at Tue Jul 23 13:36:05 2019.
