 Gaussian 16, Revision A.03,
 Gaussian 16:  ES64L-G16RevA.03 25-Dec-2016

 ---------------------------------
 # td=(NStates=1) B3LYP/6-31G(d,p)
 ---------------------------------

 --
 TD
 --
 Symbolic Z-matrix:
 Charge =  0 Multiplicity = 1

                         Standard orientation:
 ---------------------------------------------------------------------
 Center     Atomic      Atomic             Coordinates (Angstroms)
 Number     Number       Type             X           Y           Z
 ---------------------------------------------------------------------
      1          6           0      -12.098919   -0.501081   -0.781891
      2          6           0       11.960285    0.000360    0.882097
      3          6           0      -13.430709    0.238779   -0.611149
      4          6           0       12.892715   -1.310556    1.253921
      5          6           0      -13.106661    1.736542   -0.514314
      6          6           0       13.305189   -2.055459    0.063219
      7          6           0      -11.007883   -0.034998    0.214646
      8          6           0       10.903038   -0.401341   -0.127792
      9          6           0      -12.291331    2.062455    0.740513
     10          6           0       12.014072   -2.655583   -0.508975
     11          6           0      -11.072544    1.146590    0.938669
     12          6           0       10.932054   -1.645924   -0.790439
     13          6           0      -11.521386   -0.338546   -2.146601
     14          6           0      -12.412531   -2.071695   -0.472704
     15          6           0       12.863102    0.953334    0.099543
     16          6           0       11.515854    0.639803    2.106262
     17          6           0       -9.841298   -0.873300    0.308712
     18          6           0        9.893823    0.549107   -0.382800
     19          6           0      -10.117625    1.735884    1.928689
     20          6           0        9.868546   -2.099864   -1.732096
     21          6           0       -8.575582   -0.529353    0.306601
     22          6           0        8.586855    0.430687   -0.373091
     23          6           0       -7.355028   -1.289575    0.418805
     24          6           0        7.569196    1.472361   -0.397934
     25          6           0       -7.559039   -2.775593    0.605513
     26          6           0        8.031841    2.835732   -0.756870
     27          6           0       -6.075246   -0.802624    0.212631
     28          6           0        6.262459    0.974077   -0.188667
     29          6           0       -4.821436   -1.460433    0.364395
     30          6           0        5.052316    1.797112   -0.354103
     31          6           0       -3.764262   -0.735778    0.016921
     32          6           0        3.788133    1.218394   -0.128861
     33          6           0       -2.349398   -1.256852    0.279381
     34          6           0        2.599712    1.905038   -0.295053
     35          6           0       -2.312220   -2.705839    0.784357
     36          6           0        2.466492    3.363312   -0.630951
     37          6           0       -1.171050   -0.573292    0.156707
     38          6           0        1.436282    1.136306   -0.112824
     39          6           0       -1.044022    0.822469   -0.138738
     40          6           0        0.008172    1.532879   -0.184512
     41          1           0      -13.972627    0.027209    0.244846
     42          1           0      -14.256135    0.136288   -1.381090
     43          1           0       12.417752   -2.088031    2.024475
     44          1           0       13.732226   -0.849545    1.775223
     45          1           0      -13.991685    2.224528   -0.607756
     46          1           0      -12.507708    1.834352   -1.433561
     47          1           0       13.955862   -2.992770    0.198353
     48          1           0       13.878529   -1.469474   -0.689393
     49          1           0      -13.156941    2.113207    1.751856
     50          1           0      -12.068432    3.168293    0.830503
     51          1           0       11.722623   -3.506507    0.110734
     52          1           0       12.315156   -3.241834   -1.387572
     53          1           0      -11.221165    0.707745   -2.472314
     54          1           0      -12.578968   -0.419510   -2.730906
     55          1           0      -10.783031   -1.134873   -2.480926
     56          1           0      -12.842722   -1.999232    0.561121
     57          1           0      -11.479325   -2.784576   -0.645344
     58          1           0      -13.062208   -2.413193   -1.339207
     59          1           0       13.364573    0.491274   -0.727831
     60          1           0       13.713050    1.297327    0.757889
     61          1           0       12.291919    1.862337   -0.027076
     62          1           0       10.799629   -0.071889    2.707755
     63          1           0       10.767539    1.558351    2.083384
     64          1           0       12.339201    0.859862    2.895097
     65          1           0      -10.065967   -1.905780    0.580565
     66          1           0       10.309603    1.380685   -0.379329
     67          1           0       -9.554943    0.921147    2.331054
     68          1           0      -10.759347    2.190623    2.698352
     69          1           0       -9.201495    2.425303    1.598232
     70          1           0        9.185271   -1.487303   -2.235547
     71          1           0        9.058676   -2.625356   -1.349202
     72          1           0       10.431976   -2.719304   -2.623226
     73          1           0       -8.137512    0.465582    0.007018
     74          1           0        8.169110   -0.672857   -0.089727
     75          1           0       -8.080929   -2.990970    1.529198
     76          1           0       -6.746172   -3.459755    0.674152
     77          1           0       -8.171692   -3.337980   -0.295629
     78          1           0        8.463435    2.965504   -1.668042
     79          1           0        8.674664    3.193950    0.046829
     80          1           0        7.127766    3.644807   -0.854986
     81          1           0       -6.072691    0.395254   -0.059956
     82          1           0        6.144176    0.001089    0.251503
     83          1           0       -4.738901   -2.501285    0.681463
     84          1           0        5.314791    2.876105   -0.637873
     85          1           0       -3.997380    0.360674   -0.276111
     86          1           0        3.504061    0.238387    0.014899
     87          1           0       -2.976618   -2.928232    1.682701
     88          1           0       -1.264164   -3.145502    0.706871
     89          1           0       -2.969070   -3.481070    0.111913
     90          1           0        3.185677    3.531707   -1.446456
     91          1           0        2.845028    4.118293    0.025973
     92          1           0        1.591511    3.916926   -0.947833
     93          1           0       -0.070675   -1.141939    0.561254
     94          1           0        1.395203    0.022975    0.012527
     95          1           0       -2.164150    1.293780   -0.437000
     96          1           0        0.061855    2.543995   -0.539136
 ---------------------------------------------------------------------

 SCF Done:  E(RB3LYP) =  -1557.55205137     A.U. after   15 cycles

 Excitation energies and oscillator strengths:

 Excited State   1:      Singlet-A      2.2689 eV  546.44 nm  f=2.5898  <S**2>=0.000
     148 ->149         0.69390
     148 ->150        -0.12344
 This state for optimization and/or second-order correction.
 Total Energy, E(TD-HF/TD-DFT) =  -1557.46866996
 Copying the excited state density for this state as the 1-particle RhoCI density.

 The electronic state is 1-A.
 Alpha  occ. eigenvalues --  -10.21413 -10.20979 -10.20503 -10.20474 -10.20464
 Alpha  occ. eigenvalues --  -10.20421 -10.20391 -10.20287 -10.20262 -10.20220
 Alpha  occ. eigenvalues --  -10.20106 -10.20013 -10.19606 -10.19469 -10.19359
 Alpha  occ. eigenvalues --  -10.19314 -10.19272 -10.19235 -10.19230 -10.19128
 Alpha  occ. eigenvalues --  -10.19102 -10.18869 -10.18812 -10.18806 -10.18641
 Alpha  occ. eigenvalues --  -10.18590 -10.18507 -10.18429 -10.18148 -10.18125
 Alpha  occ. eigenvalues --  -10.18109 -10.18032 -10.17972 -10.17819 -10.17605
 Alpha  occ. eigenvalues --  -10.17207 -10.17162 -10.17060 -10.16623 -10.15705
 Alpha  occ. eigenvalues --   -0.85580  -0.85054  -0.83828  -0.83330  -0.82217
 Alpha  occ. eigenvalues --   -0.81591  -0.79918  -0.78795  -0.78129  -0.77846
 Alpha  occ. eigenvalues --   -0.77189  -0.75558  -0.74435  -0.72800  -0.72360
 Alpha  occ. eigenvalues --   -0.70318  -0.69400  -0.68336  -0.68053  -0.67911
 Alpha  occ. eigenvalues --   -0.67286  -0.67068  -0.66934  -0.66013  -0.65827
 Alpha  occ. eigenvalues --   -0.62971  -0.61982  -0.59582  -0.58625  -0.56830
 Alpha  occ. eigenvalues --   -0.56409  -0.55752  -0.55346  -0.54228  -0.53932
 Alpha  occ. eigenvalues --   -0.53002  -0.52741  -0.50214  -0.50194  -0.49801
 Alpha  occ. eigenvalues --   -0.48684  -0.48607  -0.47563  -0.46447  -0.46122
 Alpha  occ. eigenvalues --   -0.45920  -0.45471  -0.45112  -0.44552  -0.43932
 Alpha  occ. eigenvalues --   -0.43836  -0.43636  -0.43004  -0.42621  -0.42029
 Alpha  occ. eigenvalues --   -0.41649  -0.41149  -0.40732  -0.40630  -0.40521
 Alpha  occ. eigenvalues --   -0.40475  -0.40348  -0.40087  -0.39863  -0.39503
 Alpha  occ. eigenvalues --   -0.38810  -0.38673  -0.38486  -0.38010  -0.37769
 Alpha  occ. eigenvalues --   -0.37439  -0.37184  -0.37001  -0.36920  -0.36872
 Alpha  occ. eigenvalues --   -0.36233  -0.36007  -0.35738  -0.35430  -0.35265
 Alpha  occ. eigenvalues --   -0.35128  -0.34793  -0.34538  -0.34133  -0.33832
 Alpha  occ. eigenvalues --   -0.33412  -0.33202  -0.32709  -0.32345  -0.32074
 Alpha  occ. eigenvalues --   -0.31966  -0.31850  -0.31699  -0.31697  -0.31227
 Alpha  occ. eigenvalues --   -0.30900  -0.29675  -0.29347  -0.29096  -0.28913
 Alpha  occ. eigenvalues --   -0.28085  -0.27969  -0.26320  -0.24160  -0.22492
 Alpha  occ. eigenvalues --   -0.20897  -0.19023  -0.16664
 Alpha virt. eigenvalues --   -0.07932  -0.05446  -0.01631   0.00348   0.02201
 Alpha virt. eigenvalues --    0.03672   0.05217   0.06354   0.07013   0.07139
 Alpha virt. eigenvalues --    0.07573   0.07810   0.08122   0.08433   0.08586

 Mulliken charges:
               1
     1  C   -0.008086
     2  C   -0.015785
     3  C   -0.180245
     4  C   -0.151162
     5  C   -0.183290
     6  C   -0.188126
     7  C    0.065035
     8  C    0.065158
     9  C   -0.195882
    10  C   -0.225851
    11  C    0.085931
    12  C    0.079767
    13  C   -0.286878
    14  C   -0.304835
    15  C   -0.293802
    16  C   -0.304709
    17  C   -0.151939
    18  C   -0.074276
    19  C   -0.362269
    20  C   -0.364636
    21  C   -0.065476
    22  C   -0.089971
    23  C    0.120272
    24  C    0.110211
    25  C   -0.379137
    26  C   -0.372302
    27  C   -0.151272
    28  C   -0.115997
    29  C   -0.024953
    30  C   -0.113779
    31  C   -0.104962
    32  C   -0.088087
    33  C    0.112171
    34  C    0.154574
    35  C   -0.377474
    36  C   -0.403736
    37  C   -0.125824
    38  C   -0.161257
    39  C   -0.069145
    40  C   -0.069259
    41  H    0.099734
    42  H    0.081712
    43  H    0.075343
    44  H    0.081858
    45  H    0.088691
    46  H    0.094624
    47  H    0.078685
    48  H    0.096465
    49  H    0.029978
    50  H    0.102614
    51  H    0.107018
    52  H    0.086810
    53  H    0.110197
    54  H    0.072671
    55  H    0.109595
    56  H    0.112845
    57  H    0.087136
    58  H    0.097299
    59  H    0.112933
    60  H    0.082351
    61  H    0.107012
    62  H    0.090746
    63  H    0.087697
    64  H    0.097369
    65  H    0.094720
    66  H    0.046112
    67  H    0.121446
    68  H    0.109400
    69  H    0.100408
    70  H    0.121230
    71  H    0.122915
    72  H    0.068802
    73  H    0.063011
    74  H    0.057530
    75  H    0.118398
    76  H    0.104646
    77  H    0.088898
    78  H    0.143266
    79  H    0.130686
    80  H    0.077380
    81  H    0.059427
    82  H    0.086387
    83  H    0.090227
    84  H    0.086633
    85  H    0.088164
    86  H    0.086321
    87  H    0.124271
    88  H    0.111069
    89  H    0.087296
    90  H    0.115386
    91  H    0.125570
    92  H    0.124536
    93  H    0.061120
    94  H    0.065659
    95  H    0.066455
    96  H    0.072535
 Sum of Mulliken charges =  -0.00000

 Dipole moment (field-independent basis, Debye):
    X=              0.5034    Y=              0.2394    Z=             -0.0326  Tot=              0.5584
 Quadrupole moment (field-independent basis, Debye-Ang):
   XX=           -227.2091   YY=           -234.1600   ZZ=           -256.7932
   XY=              6.2826   XZ=              2.0322   YZ=             -4.5435

 Normal termination of Gaussian 16 at Mon Jul 29 07:34:40 2019.
