 Gaussian 16, Revision A.03,
 Gaussian 16:  ES64L-G16RevA.03 25-Dec-2016

 ---------------------------------
 # td=(NStates=1) B3LYP/6-31G(d,p)
 ---------------------------------

 --
 TD
 --
 Symbolic Z-matrix:
 Charge =  0 Multiplicity = 1

                         Standard orientation:
 ---------------------------------------------------------------------
 Center     Atomic      Atomic             Coordinates (Angstroms)
 Number     Number       Type             X           Y           Z
 ---------------------------------------------------------------------
      1          6           0       12.106935    0.595497   -0.735727
      2          6           0      -12.079508   -0.031144    0.765474
      3          6           0       13.406227   -0.284606   -0.684205
      4          6           0      -12.965405    0.999546    1.335663
      5          6           0       13.175059   -1.769331   -0.535567
      6          6           0      -13.394339    2.029879    0.309995
      7          6           0       11.074306    0.121119    0.293770
      8          6           0      -11.084320    0.486512   -0.161766
      9          6           0       12.387875   -2.040454    0.656939
     10          6           0      -12.160674    2.685373   -0.320445
     11          6           0       11.195062   -1.189143    0.870386
     12          6           0      -11.031251    1.687238   -0.674077
     13          6           0       11.497862    0.649440   -2.196548
     14          6           0       12.542184    2.065487   -0.441745
     15          6           0      -12.968498   -1.091844   -0.056089
     16          6           0      -11.482307   -0.890269    1.977425
     17          6           0        9.806766    0.952442    0.539421
     18          6           0       -9.846253   -0.489511   -0.304793
     19          6           0       10.303968   -1.559746    2.011012
     20          6           0       -9.871326    2.324233   -1.551722
     21          6           0        8.662787    0.418226    0.316852
     22          6           0       -8.537500   -0.281770   -0.434886
     23          6           0        7.381409    1.147714    0.469667
     24          6           0       -7.500175   -1.179045   -0.558517
     25          6           0        7.606425    2.685997    0.702620
     26          6           0       -7.836924   -2.647539   -0.683048
     27          6           0        6.152970    0.659880    0.236991
     28          6           0       -6.177812   -0.788348   -0.485024
     29          6           0        4.872485    1.328401    0.328739
     30          6           0       -5.056113   -1.670076   -0.413900
     31          6           0        3.658973    0.563204    0.222905
     32          6           0       -3.792976   -0.983591   -0.324466
     33          6           0        2.343840    1.133344    0.297130
     34          6           0       -2.585308   -1.761296   -0.406230
     35          6           0        2.156259    2.588945    0.608414
     36          6           0       -2.719442   -3.314315   -0.583573
     37          6           0        1.203304    0.324835    0.178985
     38          6           0       -1.351717   -1.102253   -0.152391
     39          6           0        1.036536   -1.032084   -0.214313
     40          6           0       -0.013020   -1.693682   -0.292862
     41          1           0       14.237962    0.160578   -0.012667
     42          1           0       14.040861   -0.207984   -1.773749
     43          1           0      -12.355808    1.615876    2.233535
     44          1           0      -13.892454    0.549825    1.975658
     45          1           0       14.103593   -2.458118   -0.723658
     46          1           0       12.585724   -2.165881   -1.475203
     47          1           0      -13.947976    2.712682    0.689862
     48          1           0      -14.090089    1.598877   -0.413356
     49          1           0       13.063029   -2.044911    1.561340
     50          1           0       11.979181   -3.066217    0.771456
     51          1           0      -11.683115    3.507206    0.138260
     52          1           0      -12.336294    3.204626   -1.236269
     53          1           0       11.156173   -0.462616   -2.353754
     54          1           0       12.230099    0.912653   -2.957964
     55          1           0       10.702090    1.438631   -2.433996
     56          1           0       13.029674    2.220388    0.620990
     57          1           0       11.760631    2.838739   -0.534130
     58          1           0       13.323691    2.465362   -0.990656
     59          1           0      -13.753060   -0.801310   -0.837550
     60          1           0      -13.673918   -1.667332    0.585064
     61          1           0      -12.227716   -1.961369   -0.300282
     62          1           0      -10.800416   -0.238985    2.435019
     63          1           0      -10.911940   -1.785868    1.817624
     64          1           0      -12.351405   -1.115175    2.695306
     65          1           0       10.004807    1.934955    0.631188
     66          1           0      -10.239025   -1.615466   -0.297765
     67          1           0        9.490735   -0.802489    2.562587
     68          1           0       11.019009   -1.804742    2.764436
     69          1           0        9.571249   -2.473072    1.675314
     70          1           0       -9.322793    1.605449   -1.991500
     71          1           0       -9.130744    2.748060   -0.857181
     72          1           0      -10.443593    3.013850   -2.270106
     73          1           0        8.369363   -0.516582   -0.067046
     74          1           0       -8.376905    0.854991   -0.387730
     75          1           0        8.385394    2.715295    1.395907
     76          1           0        6.622716    3.092815    1.217291
     77          1           0        7.946964    3.209605   -0.173647
     78          1           0       -8.775548   -2.926744   -1.372995
     79          1           0       -8.243239   -3.040182    0.252830
     80          1           0       -6.826014   -3.218223   -0.921984
     81          1           0        6.056093   -0.277854   -0.158582
     82          1           0       -5.978357    0.348261   -0.482419
     83          1           0        4.790005    2.319522    0.494352
     84          1           0       -5.021917   -2.700626   -0.385282
     85          1           0        3.701951   -0.545667   -0.103002
     86          1           0       -3.565790    0.008187   -0.310422
     87          1           0        2.624856    2.765418    1.560265
     88          1           0        1.139897    2.835114    0.598967
     89          1           0        2.705747    2.951218   -0.247958
     90          1           0       -3.153548   -3.358268   -1.608878
     91          1           0       -3.501140   -3.603490    0.398958
     92          1           0       -1.776569   -3.710607   -0.505431
     93          1           0        0.388823    1.120924    0.530745
     94          1           0       -1.497184    0.108566   -0.000098
     95          1           0        2.204288   -1.395564   -0.393149
     96          1           0       -0.056251   -2.775908   -0.491511
 ---------------------------------------------------------------------

 SCF Done:  E(RB3LYP) =  -1557.53599111     A.U. after   16 cycles

 Excitation energies and oscillator strengths:

 Excited State   1:      Singlet-A      2.2169 eV  559.27 nm  f=2.8277  <S**2>=0.000
     148 ->149         0.70520
 This state for optimization and/or second-order correction.
 Total Energy, E(TD-HF/TD-DFT) =  -1557.45452212
 Copying the excited state density for this state as the 1-particle RhoCI density.

 The electronic state is 1-A.
 Alpha  occ. eigenvalues --  -10.21143 -10.20457 -10.20216 -10.20181 -10.20041
 Alpha  occ. eigenvalues --  -10.20014 -10.20004 -10.19865 -10.19670 -10.19480
 Alpha  occ. eigenvalues --  -10.19450 -10.19427 -10.19399 -10.19396 -10.19280
 Alpha  occ. eigenvalues --  -10.19251 -10.19201 -10.19186 -10.19176 -10.19132
 Alpha  occ. eigenvalues --  -10.19083 -10.19007 -10.18713 -10.18538 -10.18534
 Alpha  occ. eigenvalues --  -10.18475 -10.18414 -10.18165 -10.18042 -10.17898
 Alpha  occ. eigenvalues --  -10.17861 -10.17800 -10.17783 -10.17734 -10.17653
 Alpha  occ. eigenvalues --  -10.17589 -10.17522 -10.17513 -10.16999 -10.16787
 Alpha  occ. eigenvalues --   -0.85310  -0.84631  -0.83806  -0.82995  -0.82429
 Alpha  occ. eigenvalues --   -0.81454  -0.79768  -0.78418  -0.77772  -0.77740
 Alpha  occ. eigenvalues --   -0.76925  -0.74848  -0.74530  -0.71937  -0.71103
 Alpha  occ. eigenvalues --   -0.69796  -0.68709  -0.68330  -0.67916  -0.67398
 Alpha  occ. eigenvalues --   -0.67366  -0.66674  -0.66561  -0.66430  -0.66061
 Alpha  occ. eigenvalues --   -0.63152  -0.62208  -0.60678  -0.59058  -0.57469
 Alpha  occ. eigenvalues --   -0.57053  -0.55910  -0.55447  -0.55008  -0.53408
 Alpha  occ. eigenvalues --   -0.52345  -0.50759  -0.49926  -0.49458  -0.48521
 Alpha  occ. eigenvalues --   -0.48029  -0.47576  -0.47240  -0.46824  -0.46640
 Alpha  occ. eigenvalues --   -0.45393  -0.44905  -0.44624  -0.43940  -0.43830
 Alpha  occ. eigenvalues --   -0.43559  -0.43269  -0.43080  -0.42702  -0.42341
 Alpha  occ. eigenvalues --   -0.42164  -0.41751  -0.41652  -0.41503  -0.41055
 Alpha  occ. eigenvalues --   -0.40278  -0.40174  -0.39715  -0.39520  -0.39325
 Alpha  occ. eigenvalues --   -0.39278  -0.38946  -0.38427  -0.37974  -0.37935
 Alpha  occ. eigenvalues --   -0.37394  -0.37269  -0.37135  -0.36963  -0.36651
 Alpha  occ. eigenvalues --   -0.36442  -0.36218  -0.35673  -0.35644  -0.35344
 Alpha  occ. eigenvalues --   -0.35302  -0.34855  -0.34840  -0.34736  -0.34097
 Alpha  occ. eigenvalues --   -0.33240  -0.33167  -0.32938  -0.32424  -0.32272
 Alpha  occ. eigenvalues --   -0.32184  -0.31599  -0.30757  -0.30665  -0.30449
 Alpha  occ. eigenvalues --   -0.30070  -0.29612  -0.29446  -0.29062  -0.28704
 Alpha  occ. eigenvalues --   -0.28159  -0.28001  -0.26132  -0.24185  -0.22533
 Alpha  occ. eigenvalues --   -0.21136  -0.18783  -0.16360
 Alpha virt. eigenvalues --   -0.07998  -0.05215  -0.00922   0.00652   0.02814
 Alpha virt. eigenvalues --    0.04295   0.05670   0.06199   0.06728   0.07111
 Alpha virt. eigenvalues --    0.07261   0.08361   0.08571   0.08761   0.09093

 Mulliken charges:
               1
     1  C    0.017393
     2  C   -0.002943
     3  C   -0.165144
     4  C   -0.165306
     5  C   -0.184261
     6  C   -0.171473
     7  C    0.046721
     8  C    0.129546
     9  C   -0.205298
    10  C   -0.228685
    11  C    0.056992
    12  C    0.014719
    13  C   -0.291210
    14  C   -0.320018
    15  C   -0.300260
    16  C   -0.302784
    17  C   -0.151643
    18  C   -0.138612
    19  C   -0.337979
    20  C   -0.362686
    21  C   -0.002890
    22  C   -0.094017
    23  C    0.067990
    24  C    0.137535
    25  C   -0.371094
    26  C   -0.375905
    27  C   -0.113398
    28  C   -0.118327
    29  C   -0.088531
    30  C   -0.098492
    31  C   -0.103772
    32  C   -0.079669
    33  C    0.051074
    34  C    0.074032
    35  C   -0.354702
    36  C   -0.344388
    37  C   -0.087904
    38  C   -0.124395
    39  C   -0.058632
    40  C   -0.097976
    41  H    0.093792
    42  H    0.053249
    43  H    0.054133
    44  H    0.068053
    45  H    0.084968
    46  H    0.086586
    47  H    0.101085
    48  H    0.099298
    49  H    0.102228
    50  H    0.097114
    51  H    0.111649
    52  H    0.091872
    53  H    0.089770
    54  H    0.104391
    55  H    0.096729
    56  H    0.076725
    57  H    0.093646
    58  H    0.111918
    59  H    0.096354
    60  H    0.088102
    61  H    0.089006
    62  H    0.113136
    63  H    0.103120
    64  H    0.089354
    65  H    0.090277
    66  H    0.049778
    67  H    0.101510
    68  H    0.113736
    69  H    0.084022
    70  H    0.139660
    71  H    0.123660
    72  H    0.097269
    73  H    0.080811
    74  H    0.057205
    75  H    0.123348
    76  H    0.086258
    77  H    0.127022
    78  H    0.104231
    79  H    0.124921
    80  H    0.092751
    81  H    0.067028
    82  H    0.078213
    83  H    0.079590
    84  H    0.095949
    85  H    0.074706
    86  H    0.073463
    87  H    0.129144
    88  H    0.109670
    89  H    0.131328
    90  H    0.133754
    91  H    0.096786
    92  H    0.112377
    93  H    0.051646
    94  H    0.068422
    95  H    0.065042
    96  H    0.086539
 Sum of Mulliken charges =  -0.00000

 Dipole moment (field-independent basis, Debye):
    X=              0.8924    Y=              0.6760    Z=             -0.0997  Tot=              1.1239
 Quadrupole moment (field-independent basis, Debye-Ang):
   XX=           -220.2518   YY=           -235.3154   ZZ=           -256.7051
   XY=             -6.1328   XZ=             -3.8367   YZ=              0.0668

 Normal termination of Gaussian 16 at Thu Aug  1 02:19:14 2019.
