 Gaussian 16, Revision A.03,
 Gaussian 16:  ES64L-G16RevA.03 25-Dec-2016

 ---------------------------------
 # td=(NStates=1) B3LYP/6-31G(d,p)
 ---------------------------------

 --
 TD
 --
 Symbolic Z-matrix:
 Charge =  0 Multiplicity = 1

                         Standard orientation:
 ---------------------------------------------------------------------
 Center     Atomic      Atomic             Coordinates (Angstroms)
 Number     Number       Type             X           Y           Z
 ---------------------------------------------------------------------
      1          6           0      -12.154117   -0.521565   -0.706138
      2          6           0       12.151750    0.049473    0.802671
      3          6           0      -13.508819    0.255551   -0.650740
      4          6           0       13.041068   -1.167450    1.324035
      5          6           0      -13.173957    1.770132   -0.439238
      6          6           0       13.408190   -2.117125    0.142666
      7          6           0      -11.046015   -0.036787    0.274416
      8          6           0       10.984338   -0.422427   -0.040059
      9          6           0      -12.432071    1.960944    0.817335
     10          6           0       12.082386   -2.614556   -0.453695
     11          6           0      -11.259057    1.050190    1.041539
     12          6           0       11.037507   -1.700804   -0.633072
     13          6           0      -11.712445   -0.417726   -2.196186
     14          6           0      -12.514904   -1.941536   -0.427270
     15          6           0       13.080797    1.104784    0.018460
     16          6           0       11.593010    0.650918    2.136458
     17          6           0       -9.834197   -0.913424    0.338890
     18          6           0        9.930738    0.494780   -0.158103
     19          6           0      -10.294952    1.578833    2.134457
     20          6           0       10.039759   -2.020502   -1.721215
     21          6           0       -8.591277   -0.425970    0.419803
     22          6           0        8.639426    0.290756   -0.159149
     23          6           0       -7.469167   -1.262797    0.413205
     24          6           0        7.493462    1.218275   -0.304250
     25          6           0       -7.600815   -2.712299    0.632081
     26          6           0        7.953713    2.685546   -0.704705
     27          6           0       -6.187212   -0.712175    0.328128
     28          6           0        6.203513    0.859974   -0.256542
     29          6           0       -4.857034   -1.352744    0.260908
     30          6           0        5.074484    1.680728   -0.343748
     31          6           0       -3.683868   -0.610320    0.207116
     32          6           0        3.762511    1.252173   -0.101789
     33          6           0       -2.322114   -1.285752    0.116195
     34          6           0        2.537827    1.995272   -0.444403
     35          6           0       -2.205796   -2.708325    0.363028
     36          6           0        2.716098    3.394279   -0.858582
     37          6           0       -1.190875   -0.539174   -0.020316
     38          6           0        1.428198    1.179541   -0.236287
     39          6           0       -1.134970    0.820947   -0.429800
     40          6           0        0.043515    1.580029   -0.421119
     41          1           0      -14.390392   -0.049007    0.001537
     42          1           0      -13.994391    0.174997   -1.595124
     43          1           0       12.409386   -1.855874    2.042205
     44          1           0       13.936560   -0.800619    1.962116
     45          1           0      -14.131134    2.381901   -0.506459
     46          1           0      -12.772106    1.833402   -1.215877
     47          1           0       13.735524   -3.029238    0.878240
     48          1           0       14.154001   -1.592527   -0.429029
     49          1           0      -13.184275    1.983386    1.664554
     50          1           0      -12.328243    2.986435    0.777896
     51          1           0       11.938307   -3.667540    0.164237
     52          1           0       12.322242   -3.072246   -1.484756
     53          1           0      -11.399020    0.683485   -2.535360
     54          1           0      -12.575027   -0.723282   -2.700681
     55          1           0      -10.672522   -1.084660   -2.257487
     56          1           0      -12.794915   -2.200829    0.673241
     57          1           0      -11.710006   -2.676959   -0.699379
     58          1           0      -13.467239   -2.278572   -0.814066
     59          1           0       13.663147    0.556919   -0.855141
     60          1           0       13.863622    1.629380    0.619219
     61          1           0       12.595007    2.138718   -0.374223
     62          1           0       10.812573    0.109025    2.655912
     63          1           0       11.127924    1.607874    2.027174
     64          1           0       12.417403    0.723724    2.863773
     65          1           0      -10.050234   -2.093380    0.008420
     66          1           0       10.159864    1.452620   -0.394202
     67          1           0       -9.578651    0.776797    2.656593
     68          1           0      -10.604934    1.920118    3.094527
     69          1           0       -9.802878    2.327322    1.694223
     70          1           0        9.556804   -0.970964   -2.212843
     71          1           0        9.244791   -2.540846   -1.537508
     72          1           0       10.432327   -2.662242   -2.552112
     73          1           0       -8.645545    0.760345    0.354373
     74          1           0        8.146935   -0.791113   -0.072378
     75          1           0       -8.208066   -3.114316    1.422034
     76          1           0       -6.771967   -3.252253    0.784860
     77          1           0       -8.316447   -3.032810   -0.302307
     78          1           0        8.456750    2.783661   -1.702175
     79          1           0        8.506853    3.101804    0.203221
     80          1           0        6.997011    3.183518   -0.643368
     81          1           0       -6.250288    0.361882    0.168964
     82          1           0        6.128547   -0.185151   -0.116050
     83          1           0       -5.028935   -2.411141    0.484748
     84          1           0        5.278281    2.827828   -0.443581
     85          1           0       -3.489962    0.332687    0.075384
     86          1           0        3.686917    0.162698    0.112545
     87          1           0       -2.736181   -3.092550    1.406621
     88          1           0       -1.132526   -3.067821    0.296257
     89          1           0       -2.790757   -3.133511   -0.204889
     90          1           0        2.992563    3.430417   -1.923176
     91          1           0        3.281331    3.980605   -0.039289
     92          1           0        1.821970    3.896810   -0.686743
     93          1           0       -0.263160   -1.082705    0.127725
     94          1           0        1.429107    0.112824   -0.054678
     95          1           0       -2.026093    1.224215   -0.712999
     96          1           0       -0.151620    2.678768   -0.544614
 ---------------------------------------------------------------------

 SCF Done:  E(RB3LYP) =  -1557.48560061     A.U. after   15 cycles

 Excitation energies and oscillator strengths:

 Excited State   1:      Singlet-A      2.1465 eV  577.61 nm  f=3.0337  <S**2>=0.000
     148 ->149         0.70729
 This state for optimization and/or second-order correction.
 Total Energy, E(TD-HF/TD-DFT) =  -1557.40671739
 Copying the excited state density for this state as the 1-particle RhoCI density.

 The electronic state is 1-A.
 Alpha  occ. eigenvalues --  -10.20869 -10.20491 -10.20341 -10.20084 -10.19932
 Alpha  occ. eigenvalues --  -10.19870 -10.19651 -10.19630 -10.19614 -10.19555
 Alpha  occ. eigenvalues --  -10.19457 -10.19452 -10.19411 -10.19361 -10.19223
 Alpha  occ. eigenvalues --  -10.19112 -10.19103 -10.19038 -10.19006 -10.18998
 Alpha  occ. eigenvalues --  -10.18994 -10.18938 -10.18824 -10.18726 -10.18682
 Alpha  occ. eigenvalues --  -10.18675 -10.18430 -10.18400 -10.18245 -10.18213
 Alpha  occ. eigenvalues --  -10.17951 -10.17668 -10.17450 -10.17410 -10.17345
 Alpha  occ. eigenvalues --  -10.17224 -10.17153 -10.16695 -10.16127 -10.15288
 Alpha  occ. eigenvalues --   -0.85332  -0.84931  -0.83705  -0.83164  -0.82694
 Alpha  occ. eigenvalues --   -0.81622  -0.78845  -0.78808  -0.78253  -0.77611
 Alpha  occ. eigenvalues --   -0.77281  -0.75338  -0.74284  -0.72617  -0.71902
 Alpha  occ. eigenvalues --   -0.71526  -0.69220  -0.68695  -0.68248  -0.67750
 Alpha  occ. eigenvalues --   -0.67673  -0.67004  -0.66873  -0.66550  -0.65900
 Alpha  occ. eigenvalues --   -0.63178  -0.62339  -0.60052  -0.59651  -0.57237
 Alpha  occ. eigenvalues --   -0.56670  -0.56265  -0.55691  -0.54180  -0.53110
 Alpha  occ. eigenvalues --   -0.52264  -0.51718  -0.50726  -0.50132  -0.49737
 Alpha  occ. eigenvalues --   -0.48421  -0.48133  -0.47523  -0.46987  -0.46613
 Alpha  occ. eigenvalues --   -0.46121  -0.45468  -0.44935  -0.44886  -0.44316
 Alpha  occ. eigenvalues --   -0.44073  -0.43592  -0.43308  -0.42593  -0.42209
 Alpha  occ. eigenvalues --   -0.42042  -0.41473  -0.41269  -0.40999  -0.40823
 Alpha  occ. eigenvalues --   -0.40596  -0.40255  -0.39951  -0.39801  -0.39725
 Alpha  occ. eigenvalues --   -0.39472  -0.39104  -0.38852  -0.38516  -0.38409
 Alpha  occ. eigenvalues --   -0.37973  -0.37764  -0.37249  -0.37177  -0.36576
 Alpha  occ. eigenvalues --   -0.36191  -0.35835  -0.35233  -0.34966  -0.34889
 Alpha  occ. eigenvalues --   -0.34570  -0.34197  -0.33989  -0.33953  -0.33837
 Alpha  occ. eigenvalues --   -0.33470  -0.33153  -0.33080  -0.32681  -0.32550
 Alpha  occ. eigenvalues --   -0.32249  -0.31607  -0.31280  -0.30874  -0.30404
 Alpha  occ. eigenvalues --   -0.30302  -0.29741  -0.29663  -0.28958  -0.28292
 Alpha  occ. eigenvalues --   -0.27970  -0.27313  -0.26695  -0.24263  -0.22655
 Alpha  occ. eigenvalues --   -0.20764  -0.18806  -0.16429
 Alpha virt. eigenvalues --   -0.08240  -0.05475  -0.02472   0.00319   0.02095
 Alpha virt. eigenvalues --    0.04449   0.05763   0.06287   0.06865   0.07461
 Alpha virt. eigenvalues --    0.08154   0.08466   0.08942   0.09093   0.09232

 Mulliken charges:
               1
     1  C   -0.021877
     2  C    0.006430
     3  C   -0.206307
     4  C   -0.178386
     5  C   -0.156006
     6  C   -0.186770
     7  C    0.087483
     8  C    0.081083
     9  C   -0.214306
    10  C   -0.237439
    11  C    0.045319
    12  C    0.126893
    13  C   -0.272411
    14  C   -0.297788
    15  C   -0.307966
    16  C   -0.309629
    17  C   -0.115505
    18  C   -0.133101
    19  C   -0.373685
    20  C   -0.362639
    21  C   -0.091475
    22  C   -0.068250
    23  C    0.123343
    24  C    0.083776
    25  C   -0.360047
    26  C   -0.370048
    27  C   -0.136210
    28  C   -0.088493
    29  C   -0.095285
    30  C   -0.104206
    31  C   -0.049112
    32  C   -0.115451
    33  C    0.090231
    34  C    0.110397
    35  C   -0.348536
    36  C   -0.375727
    37  C   -0.117390
    38  C   -0.099490
    39  C   -0.088014
    40  C   -0.121065
    41  H    0.076154
    42  H    0.085142
    43  H    0.080100
    44  H    0.080474
    45  H    0.066744
    46  H    0.098368
    47  H    0.074325
    48  H    0.108183
    49  H    0.094380
    50  H    0.110464
    51  H    0.084449
    52  H    0.094291
    53  H    0.089602
    54  H    0.114301
    55  H    0.078166
    56  H    0.093226
    57  H    0.086582
    58  H    0.102527
    59  H    0.091283
    60  H    0.103488
    61  H    0.083334
    62  H    0.108799
    63  H    0.095329
    64  H    0.089348
    65  H    0.063253
    66  H    0.087611
    67  H    0.097546
    68  H    0.110472
    69  H    0.131976
    70  H    0.086285
    71  H    0.131018
    72  H    0.087201
    73  H    0.094300
    74  H    0.050532
    75  H    0.127296
    76  H    0.110132
    77  H    0.090206
    78  H    0.124225
    79  H    0.111113
    80  H    0.099773
    81  H    0.066076
    82  H    0.070565
    83  H    0.084197
    84  H    0.080956
    85  H    0.063136
    86  H    0.077515
    87  H    0.079252
    88  H    0.097942
    89  H    0.137044
    90  H    0.142311
    91  H    0.120947
    92  H    0.121622
    93  H    0.072881
    94  H    0.085697
    95  H    0.087771
    96  H    0.067752
 Sum of Mulliken charges =  -0.00000

 Dipole moment (field-independent basis, Debye):
    X=             -1.3844    Y=              0.6014    Z=             -0.2579  Tot=              1.5312
 Quadrupole moment (field-independent basis, Debye-Ang):
   XX=           -230.7851   YY=           -233.0524   ZZ=           -255.0134
   XY=              0.7193   XZ=             -0.2358   YZ=             -2.3828

 Normal termination of Gaussian 16 at Sat Jul 27 22:17:45 2019.
