 Gaussian 16, Revision A.03,
 Gaussian 16:  ES64L-G16RevA.03 25-Dec-2016

 ---------------------------------
 # td=(NStates=1) B3LYP/6-31G(d,p)
 ---------------------------------

 --
 TD
 --
 Symbolic Z-matrix:
 Charge =  0 Multiplicity = 1

                         Standard orientation:
 ---------------------------------------------------------------------
 Center     Atomic      Atomic             Coordinates (Angstroms)
 Number     Number       Type             X           Y           Z
 ---------------------------------------------------------------------
      1          6           0      -12.087960   -0.570710   -0.656599
      2          6           0       12.036076   -0.007237    0.788883
      3          6           0      -13.398380    0.264339   -0.656542
      4          6           0       12.988149   -1.276272    1.138446
      5          6           0      -12.964103    1.810457   -0.754889
      6          6           0       13.404854   -2.047829   -0.190449
      7          6           0      -10.972940    0.005132    0.192149
      8          6           0       10.908099   -0.480722   -0.116642
      9          6           0      -12.280600    2.269887    0.410495
     10          6           0       12.092566   -2.664065   -0.703000
     11          6           0      -11.110282    1.192680    0.842945
     12          6           0       10.918526   -1.610567   -0.783958
     13          6           0      -11.522682   -0.789183   -2.174870
     14          6           0      -12.494130   -2.083887   -0.159096
     15          6           0       12.924117    1.092570    0.213005
     16          6           0       11.561628    0.519671    2.161103
     17          6           0       -9.875411   -0.963276    0.507340
     18          6           0        9.885108    0.598905   -0.156560
     19          6           0      -10.180195    1.778361    1.699050
     20          6           0        9.869780   -2.074288   -1.798966
     21          6           0       -8.603273   -0.548044    0.418693
     22          6           0        8.558764    0.475136   -0.052373
     23          6           0       -7.410701   -1.284513    0.548733
     24          6           0        7.457163    1.310636   -0.236720
     25          6           0       -7.573797   -2.764624    0.707970
     26          6           0        7.876016    2.710635   -0.569652
     27          6           0       -6.150573   -0.737062    0.391874
     28          6           0        6.159850    0.935797   -0.241060
     29          6           0       -4.840405   -1.312609    0.612514
     30          6           0        4.959866    1.768118   -0.354707
     31          6           0       -3.675797   -0.677321    0.273977
     32          6           0        3.798327    1.119364   -0.329525
     33          6           0       -2.299248   -1.258923    0.320312
     34          6           0        2.512622    1.889009   -0.553632
     35          6           0       -2.131372   -2.790002    0.638396
     36          6           0        2.502108    3.428286   -0.477983
     37          6           0       -1.198936   -0.456064    0.079506
     38          6           0        1.319240    1.185701   -0.320934
     39          6           0       -1.071277    0.920327   -0.242835
     40          6           0       -0.022321    1.672066   -0.343281
     41          1           0      -14.090284   -0.010946    0.202517
     42          1           0      -13.934173    0.003628   -1.532532
     43          1           0       12.458621   -2.017052    1.893652
     44          1           0       13.967930   -0.892058    1.714228
     45          1           0      -14.002039    2.302980   -1.014571
     46          1           0      -12.525222    2.042403   -1.853612
     47          1           0       14.128922   -2.837480    0.114389
     48          1           0       13.803949   -1.459452   -0.860065
     49          1           0      -12.982852    2.372661    1.335706
     50          1           0      -11.679178    3.165172    0.151378
     51          1           0       11.873193   -3.521360   -0.181158
     52          1           0       12.324032   -2.966614   -1.677012
     53          1           0      -11.280992    0.006039   -2.622695
     54          1           0      -12.276429   -1.247187   -2.756492
     55          1           0      -10.709251   -1.516342   -2.017349
     56          1           0      -12.984256   -2.067311    0.873655
     57          1           0      -11.721868   -2.751061   -0.296332
     58          1           0      -13.373242   -2.503455   -0.913714
     59          1           0       13.620911    0.458732   -0.471744
     60          1           0       13.537206    1.685995    0.991246
     61          1           0       12.108072    1.707986   -0.291591
     62          1           0       11.187527   -0.289225    2.988012
     63          1           0       10.718145    1.314174    2.104343
     64          1           0       12.439880    0.813494    2.678388
     65          1           0       -9.994723   -2.167419    0.177938
     66          1           0       10.144453    1.612974   -0.172337
     67          1           0       -9.498686    0.909034    2.399122
     68          1           0      -10.840426    2.291169    2.640508
     69          1           0       -9.543874    2.661930    1.193652
     70          1           0        9.157271   -1.263488   -2.066332
     71          1           0        9.213422   -2.732467   -1.297072
     72          1           0       10.293296   -2.687861   -2.673897
     73          1           0       -8.648243    0.520174    0.299259
     74          1           0        8.414312   -0.519615   -0.242118
     75          1           0       -8.341424   -2.935492    1.482477
     76          1           0       -6.622854   -3.313070    0.805639
     77          1           0       -8.043959   -3.187684   -0.067434
     78          1           0        8.357219    2.625981   -1.698927
     79          1           0        8.564739    3.066848    0.139309
     80          1           0        7.217284    3.634685   -0.373734
     81          1           0       -6.263650    0.395562    0.366415
     82          1           0        6.058448   -0.064219    0.156335
     83          1           0       -5.080881   -2.485740    0.925329
     84          1           0        5.133996    2.853836   -0.564018
     85          1           0       -3.635295    0.336285    0.112543
     86          1           0        3.692032    0.092530   -0.095732
     87          1           0       -2.519418   -2.980400    1.742998
     88          1           0       -1.215962   -3.185000    0.664048
     89          1           0       -2.754244   -3.363141   -0.144697
     90          1           0        3.010321    3.756616   -1.311115
     91          1           0        2.974586    3.899990    0.453221
     92          1           0        1.443310    3.829143   -0.458521
     93          1           0       -0.241910   -1.030297    0.185149
     94          1           0        1.690148    0.148645   -0.348285
     95          1           0       -1.774242    1.558702   -0.492812
     96          1           0       -0.164508    2.628802   -0.722259
 ---------------------------------------------------------------------

 SCF Done:  E(RB3LYP) =  -1557.52524950     A.U. after   14 cycles

 Excitation energies and oscillator strengths:

 Excited State   1:      Singlet-A      2.3691 eV  523.33 nm  f=2.7318  <S**2>=0.000
     148 ->149         0.70537
 This state for optimization and/or second-order correction.
 Total Energy, E(TD-HF/TD-DFT) =  -1557.43818542
 Copying the excited state density for this state as the 1-particle RhoCI density.

 The electronic state is 1-A.
 Alpha  occ. eigenvalues --  -10.21188 -10.21059 -10.21023 -10.20305 -10.20187
 Alpha  occ. eigenvalues --  -10.19751 -10.19696 -10.19637 -10.19522 -10.19479
 Alpha  occ. eigenvalues --  -10.19424 -10.19393 -10.19363 -10.19343 -10.19329
 Alpha  occ. eigenvalues --  -10.19227 -10.19188 -10.19057 -10.18905 -10.18889
 Alpha  occ. eigenvalues --  -10.18855 -10.18814 -10.18568 -10.18560 -10.18492
 Alpha  occ. eigenvalues --  -10.18467 -10.18402 -10.18188 -10.18113 -10.17978
 Alpha  occ. eigenvalues --  -10.17955 -10.17872 -10.17869 -10.17636 -10.17269
 Alpha  occ. eigenvalues --  -10.17256 -10.17132 -10.17103 -10.16378 -10.15464
 Alpha  occ. eigenvalues --   -0.84933  -0.84675  -0.83817  -0.83034  -0.82704
 Alpha  occ. eigenvalues --   -0.81166  -0.79747  -0.78086  -0.77675  -0.77557
 Alpha  occ. eigenvalues --   -0.77073  -0.75453  -0.74691  -0.72431  -0.72266
 Alpha  occ. eigenvalues --   -0.69667  -0.69058  -0.68447  -0.68310  -0.68282
 Alpha  occ. eigenvalues --   -0.67479  -0.66810  -0.66537  -0.66238  -0.65838
 Alpha  occ. eigenvalues --   -0.62861  -0.62128  -0.59678  -0.58229  -0.57859
 Alpha  occ. eigenvalues --   -0.56434  -0.55741  -0.55138  -0.54147  -0.53289
 Alpha  occ. eigenvalues --   -0.52469  -0.51614  -0.50850  -0.50328  -0.48859
 Alpha  occ. eigenvalues --   -0.48517  -0.47536  -0.47376  -0.46335  -0.46325
 Alpha  occ. eigenvalues --   -0.45378  -0.44821  -0.44536  -0.44178  -0.44090
 Alpha  occ. eigenvalues --   -0.43808  -0.43030  -0.42867  -0.42080  -0.41881
 Alpha  occ. eigenvalues --   -0.41837  -0.41673  -0.41301  -0.41127  -0.41057
 Alpha  occ. eigenvalues --   -0.40668  -0.40339  -0.40034  -0.39791  -0.39527
 Alpha  occ. eigenvalues --   -0.39392  -0.39154  -0.38797  -0.38577  -0.38447
 Alpha  occ. eigenvalues --   -0.38431  -0.38332  -0.37305  -0.37265  -0.36521
 Alpha  occ. eigenvalues --   -0.36026  -0.35861  -0.35737  -0.35026  -0.34742
 Alpha  occ. eigenvalues --   -0.34481  -0.34324  -0.34113  -0.33779  -0.33376
 Alpha  occ. eigenvalues --   -0.33182  -0.33168  -0.32528  -0.32399  -0.32215
 Alpha  occ. eigenvalues --   -0.31840  -0.31808  -0.31723  -0.31142  -0.30825
 Alpha  occ. eigenvalues --   -0.30371  -0.30321  -0.29636  -0.28997  -0.28469
 Alpha  occ. eigenvalues --   -0.27585  -0.26664  -0.26348  -0.24805  -0.23387
 Alpha  occ. eigenvalues --   -0.21576  -0.19150  -0.17237
 Alpha virt. eigenvalues --   -0.07911  -0.05245  -0.02092   0.00758   0.02924
 Alpha virt. eigenvalues --    0.03970   0.05681   0.06719   0.07160   0.07286
 Alpha virt. eigenvalues --    0.07843   0.08022   0.08318   0.08535   0.08679

 Mulliken charges:
               1
     1  C   -0.029491
     2  C   -0.017764
     3  C   -0.171965
     4  C   -0.179915
     5  C   -0.195561
     6  C   -0.192621
     7  C    0.108152
     8  C    0.114929
     9  C   -0.181322
    10  C   -0.218266
    11  C    0.068080
    12  C    0.038226
    13  C   -0.294816
    14  C   -0.293506
    15  C   -0.277182
    16  C   -0.282420
    17  C   -0.139935
    18  C   -0.146014
    19  C   -0.359702
    20  C   -0.373775
    21  C   -0.088205
    22  C   -0.096561
    23  C    0.129099
    24  C    0.127607
    25  C   -0.387914
    26  C   -0.374078
    27  C   -0.121659
    28  C   -0.133857
    29  C   -0.079829
    30  C   -0.070264
    31  C   -0.103709
    32  C   -0.092662
    33  C    0.097512
    34  C    0.053621
    35  C   -0.353164
    36  C   -0.362975
    37  C   -0.137175
    38  C   -0.091982
    39  C   -0.005029
    40  C   -0.139710
    41  H    0.086203
    42  H    0.094635
    43  H    0.077867
    44  H    0.057589
    45  H    0.072811
    46  H    0.082445
    47  H    0.085885
    48  H    0.111702
    49  H    0.103879
    50  H    0.105918
    51  H    0.117096
    52  H    0.099820
    53  H    0.109564
    54  H    0.097534
    55  H    0.094931
    56  H    0.099469
    57  H    0.107324
    58  H    0.060935
    59  H    0.090717
    60  H    0.099703
    61  H    0.099978
    62  H    0.065932
    63  H    0.090789
    64  H    0.103538
    65  H    0.057124
    66  H    0.077437
    67  H    0.088705
    68  H    0.069629
    69  H    0.105593
    70  H    0.116224
    71  H    0.129225
    72  H    0.100745
    73  H    0.093571
    74  H    0.059642
    75  H    0.120236
    76  H    0.098035
    77  H    0.136374
    78  H    0.102580
    79  H    0.123996
    80  H    0.085936
    81  H    0.067722
    82  H    0.072737
    83  H    0.074687
    84  H    0.094378
    85  H    0.091444
    86  H    0.090871
    87  H    0.104188
    88  H    0.120184
    89  H    0.113277
    90  H    0.126205
    91  H    0.113775
    92  H    0.101368
    93  H    0.078678
    94  H    0.073456
    95  H    0.062847
    96  H    0.088669
 Sum of Mulliken charges =  -0.00000

 Dipole moment (field-independent basis, Debye):
    X=             -0.3500    Y=             -0.2107    Z=             -0.8300  Tot=              0.9251
 Quadrupole moment (field-independent basis, Debye-Ang):
   XX=           -236.7675   YY=           -233.1669   ZZ=           -256.0602
   XY=             -7.1847   XZ=              2.2887   YZ=             -0.4874

 Normal termination of Gaussian 16 at Fri Aug  2 00:38:37 2019.
