 Gaussian 16, Revision A.03,
 Gaussian 16:  ES64L-G16RevA.03 25-Dec-2016

 ---------------------------------
 # td=(NStates=1) B3LYP/6-31G(d,p)
 ---------------------------------

 --
 TD
 --
 Symbolic Z-matrix:
 Charge =  0 Multiplicity = 1

                         Standard orientation:
 ---------------------------------------------------------------------
 Center     Atomic      Atomic             Coordinates (Angstroms)
 Number     Number       Type             X           Y           Z
 ---------------------------------------------------------------------
      1          6           0       12.221806    0.570985   -0.750059
      2          6           0      -12.220259   -0.069319    0.794219
      3          6           0       13.508833   -0.306232   -0.586721
      4          6           0      -13.154754    1.168415    1.178213
      5          6           0       13.143738   -1.811976   -0.701474
      6          6           0      -13.404727    2.104996   -0.010446
      7          6           0       10.957858    0.025511    0.204028
      8          6           0      -11.015305    0.380495   -0.111445
      9          6           0       12.327960   -2.133193    0.517626
     10          6           0      -12.051903    2.654340   -0.623265
     11          6           0       11.133293   -1.241601    0.768849
     12          6           0      -11.048918    1.629448   -0.796676
     13          6           0       11.653882    0.496954   -2.119626
     14          6           0       12.607743    1.939652   -0.338596
     15          6           0      -13.061113   -0.963831   -0.007086
     16          6           0      -11.647083   -0.786083    2.133504
     17          6           0        9.872405    0.849511    0.462073
     18          6           0       -9.963389   -0.561464   -0.325917
     19          6           0       10.131489   -1.730616    1.808390
     20          6           0       -9.857669    2.164516   -1.684755
     21          6           0        8.617060    0.485156    0.302532
     22          6           0       -8.683418   -0.372037   -0.189449
     23          6           0        7.417788    1.358752    0.463974
     24          6           0       -7.500743   -1.364027   -0.218046
     25          6           0        7.601292    2.767574    0.591153
     26          6           0       -7.861951   -2.766553   -0.708429
     27          6           0        6.191966    0.716002    0.262950
     28          6           0       -6.271938   -0.890363   -0.192462
     29          6           0        4.891379    1.308458    0.330775
     30          6           0       -5.081318   -1.661355   -0.386771
     31          6           0        3.662391    0.739098    0.275185
     32          6           0       -3.786762   -1.080760   -0.261345
     33          6           0        2.421554    1.348292    0.423786
     34          6           0       -2.494412   -1.853703   -0.365000
     35          6           0        2.312732    2.827417    0.599618
     36          6           0       -2.562123   -3.307171   -0.608240
     37          6           0        1.207515    0.625824    0.315671
     38          6           0       -1.319821   -1.113169   -0.058413
     39          6           0        1.128561   -0.796017    0.033523
     40          6           0       -0.027359   -1.557492   -0.161554
     41          1           0       14.120360   -0.164390    0.278359
     42          1           0       14.245805    0.220992   -1.327525
     43          1           0      -12.509184    1.852271    1.980325
     44          1           0      -13.979413    0.881306    1.702909
     45          1           0       14.196505   -2.296969   -0.963693
     46          1           0       12.731041   -2.126214   -1.808459
     47          1           0      -14.007262    2.818283    0.363090
     48          1           0      -13.756099    1.431106   -0.712585
     49          1           0       12.646237   -1.896073    1.591853
     50          1           0       11.963242   -3.286881    0.510911
     51          1           0      -11.691801    3.434827    0.047856
     52          1           0      -12.326056    2.965812   -1.665519
     53          1           0       11.474243   -0.632617   -2.417078
     54          1           0       12.397253    0.908160   -2.939986
     55          1           0       10.645183    1.045532   -1.935377
     56          1           0       13.043335    2.116808    0.605348
     57          1           0       11.722811    2.861686   -0.308208
     58          1           0       13.247817    2.297164   -1.047182
     59          1           0      -13.359541   -0.606373   -1.096299
     60          1           0      -13.997039   -1.440053    0.660966
     61          1           0      -12.447835   -1.869151   -0.269291
     62          1           0      -10.898896   -0.215023    2.596781
     63          1           0      -11.235650   -1.710761    1.770474
     64          1           0      -12.462340   -0.952319    2.792792
     65          1           0       10.122505    1.842299    0.767493
     66          1           0      -10.385105   -1.691508   -0.320420
     67          1           0        9.688649   -0.907784    2.319469
     68          1           0       10.751770   -2.106270    2.568183
     69          1           0        9.623818   -2.498199    1.520774
     70          1           0       -9.156893    1.157333   -1.830829
     71          1           0       -9.375781    3.068900   -1.320327
     72          1           0      -10.354887    2.341732   -2.619790
     73          1           0        8.305694   -0.747887    0.090782
     74          1           0       -8.333160    0.570277   -0.097461
     75          1           0        8.407240    3.298667    1.301393
     76          1           0        6.616908    3.058902    0.965851
     77          1           0        7.873327    3.332964   -0.493462
     78          1           0       -8.348164   -2.704539   -1.839488
     79          1           0       -8.703112   -3.289974   -0.072861
     80          1           0       -7.219386   -3.475442   -0.801448
     81          1           0        6.205882   -0.523974    0.233718
     82          1           0       -5.979193    0.187264    0.360015
     83          1           0        4.909533    2.355243    0.557715
     84          1           0       -5.056850   -2.878626   -0.721260
     85          1           0        3.718264   -0.252109   -0.184937
     86          1           0       -3.461376   -0.035118   -0.080667
     87          1           0        2.967980    3.246123    1.498223
     88          1           0        1.210404    3.130507    0.659395
     89          1           0        2.981786    3.467509   -0.168810
     90          1           0       -2.549371   -3.485113   -1.720784
     91          1           0       -3.396181   -3.870341   -0.244828
     92          1           0       -1.579785   -3.967387   -0.301812
     93          1           0        0.321647    1.106437    0.385722
     94          1           0       -1.407249    0.086443   -0.030305
     95          1           0        1.926854   -1.563616   -0.036806
     96          1           0       -0.066156   -2.656444   -0.314669
 ---------------------------------------------------------------------

 SCF Done:  E(RB3LYP) =  -1557.48578377     A.U. after   15 cycles

 Excitation energies and oscillator strengths:

 Excited State   1:      Singlet-A      2.0463 eV  605.89 nm  f=3.0639  <S**2>=0.000
     148 ->149         0.70707
     148 <-149        -0.12077
 This state for optimization and/or second-order correction.
 Total Energy, E(TD-HF/TD-DFT) =  -1557.41058326
 Copying the excited state density for this state as the 1-particle RhoCI density.

 The electronic state is 1-A.
 Alpha  occ. eigenvalues --  -10.21197 -10.21047 -10.20995 -10.20896 -10.20575
 Alpha  occ. eigenvalues --  -10.20518 -10.20469 -10.20432 -10.20301 -10.20296
 Alpha  occ. eigenvalues --  -10.20170 -10.20125 -10.19950 -10.19896 -10.19829
 Alpha  occ. eigenvalues --  -10.19603 -10.19546 -10.19458 -10.19338 -10.19207
 Alpha  occ. eigenvalues --  -10.19165 -10.19013 -10.18935 -10.18778 -10.18701
 Alpha  occ. eigenvalues --  -10.18663 -10.18601 -10.18521 -10.18479 -10.18131
 Alpha  occ. eigenvalues --  -10.18106 -10.17929 -10.17718 -10.17695 -10.17570
 Alpha  occ. eigenvalues --  -10.17315 -10.17243 -10.16534 -10.16073 -10.15522
 Alpha  occ. eigenvalues --   -0.84844  -0.84283  -0.83635  -0.82700  -0.82134
 Alpha  occ. eigenvalues --   -0.81432  -0.79353  -0.78728  -0.78149  -0.78012
 Alpha  occ. eigenvalues --   -0.77212  -0.75036  -0.73764  -0.73204  -0.71959
 Alpha  occ. eigenvalues --   -0.70023  -0.68478  -0.68425  -0.68026  -0.67825
 Alpha  occ. eigenvalues --   -0.67704  -0.66973  -0.66299  -0.66156  -0.65379
 Alpha  occ. eigenvalues --   -0.62603  -0.61662  -0.60001  -0.59594  -0.56473
 Alpha  occ. eigenvalues --   -0.56147  -0.54746  -0.54294  -0.53220  -0.52641
 Alpha  occ. eigenvalues --   -0.51931  -0.51417  -0.50519  -0.49653  -0.48639
 Alpha  occ. eigenvalues --   -0.48059  -0.47526  -0.46944  -0.46822  -0.45965
 Alpha  occ. eigenvalues --   -0.45807  -0.45506  -0.45392  -0.44984  -0.44267
 Alpha  occ. eigenvalues --   -0.44133  -0.43432  -0.42767  -0.42291  -0.42009
 Alpha  occ. eigenvalues --   -0.41900  -0.41477  -0.41002  -0.40713  -0.40462
 Alpha  occ. eigenvalues --   -0.40112  -0.40053  -0.39585  -0.39300  -0.39232
 Alpha  occ. eigenvalues --   -0.39045  -0.38735  -0.38547  -0.38518  -0.38160
 Alpha  occ. eigenvalues --   -0.37825  -0.37505  -0.37111  -0.36485  -0.36323
 Alpha  occ. eigenvalues --   -0.36216  -0.36154  -0.36018  -0.35904  -0.35710
 Alpha  occ. eigenvalues --   -0.34659  -0.34560  -0.34422  -0.33546  -0.33479
 Alpha  occ. eigenvalues --   -0.33201  -0.33080  -0.32867  -0.32826  -0.32090
 Alpha  occ. eigenvalues --   -0.32046  -0.31645  -0.31376  -0.31313  -0.31074
 Alpha  occ. eigenvalues --   -0.30021  -0.29824  -0.29374  -0.28163  -0.27983
 Alpha  occ. eigenvalues --   -0.27622  -0.27305  -0.26413  -0.23988  -0.22123
 Alpha  occ. eigenvalues --   -0.20345  -0.18873  -0.16125
 Alpha virt. eigenvalues --   -0.08670  -0.05012  -0.01760   0.00582   0.02089
 Alpha virt. eigenvalues --    0.03713   0.05929   0.05936   0.06393   0.06872
 Alpha virt. eigenvalues --    0.07174   0.07367   0.07650   0.07817   0.07979

 Mulliken charges:
               1
     1  C    0.016908
     2  C   -0.015704
     3  C   -0.182183
     4  C   -0.156496
     5  C   -0.181133
     6  C   -0.183675
     7  C    0.057496
     8  C    0.072476
     9  C   -0.194898
    10  C   -0.209666
    11  C    0.012393
    12  C    0.029943
    13  C   -0.264441
    14  C   -0.292627
    15  C   -0.274023
    16  C   -0.305409
    17  C   -0.157288
    18  C   -0.134646
    19  C   -0.341472
    20  C   -0.350249
    21  C   -0.059149
    22  C   -0.078320
    23  C    0.128657
    24  C    0.106587
    25  C   -0.364588
    26  C   -0.343385
    27  C   -0.112721
    28  C   -0.115150
    29  C   -0.090629
    30  C   -0.099237
    31  C   -0.107148
    32  C   -0.100031
    33  C    0.159375
    34  C    0.121520
    35  C   -0.380649
    36  C   -0.390272
    37  C   -0.128931
    38  C   -0.107414
    39  C   -0.072654
    40  C   -0.110185
    41  H    0.104560
    42  H    0.068417
    43  H    0.039568
    44  H    0.093243
    45  H    0.081552
    46  H    0.090233
    47  H    0.093802
    48  H    0.104623
    49  H    0.122005
    50  H    0.083756
    51  H    0.110628
    52  H    0.094573
    53  H    0.090871
    54  H    0.072823
    55  H    0.104936
    56  H    0.111826
    57  H    0.043088
    58  H    0.107579
    59  H    0.099832
    60  H    0.066725
    61  H    0.090391
    62  H    0.119435
    63  H    0.099681
    64  H    0.102221
    65  H    0.088594
    66  H    0.063501
    67  H    0.126846
    68  H    0.090902
    69  H    0.123995
    70  H    0.094466
    71  H    0.116953
    72  H    0.109873
    73  H    0.057027
    74  H    0.085955
    75  H    0.106896
    76  H    0.114532
    77  H    0.103006
    78  H    0.092958
    79  H    0.096861
    80  H    0.116165
    81  H    0.065593
    82  H    0.078314
    83  H    0.063846
    84  H    0.074079
    85  H    0.082379
    86  H    0.081402
    87  H    0.103567
    88  H    0.107441
    89  H    0.106359
    90  H    0.129113
    91  H    0.128486
    92  H    0.092922
    93  H    0.077491
    94  H    0.060591
    95  H    0.087711
    96  H    0.074828
 Sum of Mulliken charges =  -0.00000

 Dipole moment (field-independent basis, Debye):
    X=              1.3322    Y=             -0.2847    Z=              0.5153  Tot=              1.4565
 Quadrupole moment (field-independent basis, Debye-Ang):
   XX=           -216.5507   YY=           -232.9801   ZZ=           -256.5816
   XY=              0.7384   XZ=              5.4223   YZ=              4.8395

 Normal termination of Gaussian 16 at Wed Jul 31 03:18:05 2019.
