 Gaussian 16, Revision A.03,
 Gaussian 16:  ES64L-G16RevA.03 25-Dec-2016

 ---------------------------------
 # td=(NStates=1) B3LYP/6-31G(d,p)
 ---------------------------------

 --
 TD
 --
 Symbolic Z-matrix:
 Charge =  0 Multiplicity = 1

                         Standard orientation:
 ---------------------------------------------------------------------
 Center     Atomic      Atomic             Coordinates (Angstroms)
 Number     Number       Type             X           Y           Z
 ---------------------------------------------------------------------
      1          6           0       12.187471    0.513165   -0.556547
      2          6           0      -12.141920   -0.034041    0.717301
      3          6           0       13.459063   -0.329274   -0.536777
      4          6           0      -13.109242    1.063735    1.101015
      5          6           0       13.177854   -1.827988   -0.601546
      6          6           0      -13.446327    2.030978    0.060325
      7          6           0       11.042991   -0.039856    0.320608
      8          6           0      -10.954173    0.351544   -0.037837
      9          6           0       12.267561   -2.234431    0.591661
     10          6           0      -12.116148    2.587912   -0.511242
     11          6           0       11.042429   -1.239493    0.794180
     12          6           0      -10.972408    1.645448   -0.736977
     13          6           0       11.607098    0.650491   -2.009727
     14          6           0       12.611993    1.957510   -0.186946
     15          6           0      -12.937403   -1.130053   -0.028573
     16          6           0      -11.694579   -0.673386    2.131322
     17          6           0        9.893401    0.886897    0.321622
     18          6           0       -9.919259   -0.519632   -0.159641
     19          6           0       10.006775   -1.998247    1.663171
     20          6           0       -9.814692    2.204830   -1.577924
     21          6           0        8.626549    0.486298    0.309851
     22          6           0       -8.567725   -0.323968   -0.101244
     23          6           0        7.412436    1.360261    0.393962
     24          6           0       -7.447985   -1.294883   -0.320696
     25          6           0        7.552435    2.920828    0.639630
     26          6           0       -7.954588   -2.770424   -0.670027
     27          6           0        6.208030    0.741641    0.266863
     28          6           0       -6.188476   -0.983325   -0.175065
     29          6           0        4.865915    1.413611    0.414995
     30          6           0       -5.065349   -1.786972   -0.358955
     31          6           0        3.706064    0.720549    0.221820
     32          6           0       -3.758498   -1.094934   -0.392651
     33          6           0        2.368523    1.318284    0.221009
     34          6           0       -2.520143   -1.791095   -0.521601
     35          6           0        2.361162    2.781976    0.419523
     36          6           0       -2.639011   -3.191707   -0.757572
     37          6           0        1.276956    0.534721    0.108556
     38          6           0       -1.331317   -1.034710   -0.204836
     39          6           0        1.202602   -0.825032   -0.157123
     40          6           0       -0.030331   -1.563262   -0.191518
     41          1           0       14.067892    0.058930    0.291683
     42          1           0       14.082706    0.108416   -1.436923
     43          1           0      -12.665227    1.616070    2.010981
     44          1           0      -14.053019    0.518231    1.569674
     45          1           0       14.045728   -2.071074   -0.631571
     46          1           0       12.870911   -2.104844   -1.592982
     47          1           0      -14.094878    2.838546    0.527973
     48          1           0      -13.869078    1.635613   -0.808687
     49          1           0       12.583855   -2.244362    1.667303
     50          1           0       11.809426   -3.180841    0.509685
     51          1           0      -11.713719    3.098798    0.243217
     52          1           0      -12.223724    3.292149   -1.352858
     53          1           0       11.243283   -0.313909   -2.406725
     54          1           0       12.356747    1.071372   -2.621515
     55          1           0       10.799512    1.135295   -2.071747
     56          1           0       12.546021    2.370707    0.986480
     57          1           0       11.851990    2.719804   -0.706462
     58          1           0       13.791952    1.990199   -0.457609
     59          1           0      -13.301155   -0.737212   -0.926837
     60          1           0      -13.843554   -1.313066    0.659153
     61          1           0      -12.471530   -1.970473   -0.204870
     62          1           0      -11.098261    0.290701    2.506345
     63          1           0      -10.875605   -1.398413    2.134662
     64          1           0      -12.412469   -0.810402    2.874386
     65          1           0       10.065033    2.034994    0.653452
     66          1           0      -10.113346   -1.474385   -0.422962
     67          1           0        9.569506   -1.380915    2.291942
     68          1           0       10.523070   -2.822148    2.181442
     69          1           0        9.068025   -2.559665    1.051416
     70          1           0       -9.104189    1.312703   -1.798851
     71          1           0       -9.258676    3.100270   -1.145806
     72          1           0      -10.049151    2.313922   -2.756824
     73          1           0        8.193096   -0.543156   -0.070337
     74          1           0       -8.316602    0.684986    0.247537
     75          1           0        8.095870    3.047469    1.605158
     76          1           0        6.614716    3.465520    0.647348
     77          1           0        8.300236    3.325299   -0.100562
     78          1           0       -8.891026   -2.747507   -1.412023
     79          1           0       -8.129788   -3.323498    0.384636
     80          1           0       -7.033496   -3.292231   -1.210572
     81          1           0        6.124610   -0.348602    0.254213
     82          1           0       -6.024946    0.107008    0.265216
     83          1           0        4.660604    2.475096    0.461488
     84          1           0       -5.087641   -2.855412   -0.434528
     85          1           0        3.928272   -0.339189    0.050173
     86          1           0       -3.638335   -0.002956   -0.116359
     87          1           0        3.007694    3.348788    1.233589
     88          1           0        1.346252    3.273749    0.504427
     89          1           0        2.648689    3.440251   -0.336510
     90          1           0       -3.196291   -3.428015   -1.607513
     91          1           0       -3.441696   -3.731998    0.000829
     92          1           0       -1.675872   -3.822010   -0.679741
     93          1           0        0.247776    1.138747    0.145670
     94          1           0       -1.597898    0.010737    0.198456
     95          1           0        2.147145   -1.323093   -0.148687
     96          1           0       -0.015854   -2.588784   -0.112795
 ---------------------------------------------------------------------

 SCF Done:  E(RB3LYP) =  -1557.52303694     A.U. after   16 cycles

 Excitation energies and oscillator strengths:

 Excited State   1:      Singlet-A      2.0251 eV  612.24 nm  f=2.7392  <S**2>=0.000
     146 ->149        -0.11490
     148 ->149         0.70279
     148 <-149        -0.13212
 This state for optimization and/or second-order correction.
 Total Energy, E(TD-HF/TD-DFT) =  -1557.44861647
 Copying the excited state density for this state as the 1-particle RhoCI density.

 The electronic state is 1-A.
 Alpha  occ. eigenvalues --  -10.21334 -10.20567 -10.20383 -10.20327 -10.20214
 Alpha  occ. eigenvalues --  -10.20141 -10.20071 -10.19774 -10.19683 -10.19662
 Alpha  occ. eigenvalues --  -10.19618 -10.19543 -10.19321 -10.19309 -10.19296
 Alpha  occ. eigenvalues --  -10.19253 -10.19209 -10.19194 -10.19183 -10.19179
 Alpha  occ. eigenvalues --  -10.19178 -10.18915 -10.18765 -10.18741 -10.18526
 Alpha  occ. eigenvalues --  -10.18523 -10.18484 -10.18452 -10.18385 -10.18331
 Alpha  occ. eigenvalues --  -10.18294 -10.18109 -10.17832 -10.17479 -10.17214
 Alpha  occ. eigenvalues --  -10.17080 -10.16725 -10.16380 -10.15712 -10.14756
 Alpha  occ. eigenvalues --   -0.85802  -0.84786  -0.83759  -0.83081  -0.81670
 Alpha  occ. eigenvalues --   -0.81079  -0.79209  -0.78490  -0.78074  -0.77868
 Alpha  occ. eigenvalues --   -0.77307  -0.74904  -0.73956  -0.72260  -0.71646
 Alpha  occ. eigenvalues --   -0.70870  -0.68564  -0.68514  -0.68194  -0.67903
 Alpha  occ. eigenvalues --   -0.67669  -0.67123  -0.66462  -0.65966  -0.65744
 Alpha  occ. eigenvalues --   -0.63257  -0.61994  -0.60942  -0.59535  -0.57335
 Alpha  occ. eigenvalues --   -0.56424  -0.55913  -0.55204  -0.54452  -0.52935
 Alpha  occ. eigenvalues --   -0.52206  -0.51575  -0.50524  -0.49916  -0.48938
 Alpha  occ. eigenvalues --   -0.48507  -0.47735  -0.47539  -0.46676  -0.46112
 Alpha  occ. eigenvalues --   -0.45339  -0.44991  -0.44508  -0.44228  -0.44111
 Alpha  occ. eigenvalues --   -0.43535  -0.43283  -0.42805  -0.42255  -0.41754
 Alpha  occ. eigenvalues --   -0.41413  -0.41314  -0.40914  -0.40827  -0.40612
 Alpha  occ. eigenvalues --   -0.40355  -0.40329  -0.39982  -0.39893  -0.39610
 Alpha  occ. eigenvalues --   -0.39310  -0.39025  -0.38678  -0.38357  -0.38188
 Alpha  occ. eigenvalues --   -0.37766  -0.37563  -0.37246  -0.36917  -0.36637
 Alpha  occ. eigenvalues --   -0.36540  -0.36437  -0.36217  -0.35823  -0.35694
 Alpha  occ. eigenvalues --   -0.35009  -0.34780  -0.34611  -0.34443  -0.34314
 Alpha  occ. eigenvalues --   -0.32982  -0.32836  -0.32710  -0.32403  -0.32339
 Alpha  occ. eigenvalues --   -0.32280  -0.32242  -0.31640  -0.31088  -0.30922
 Alpha  occ. eigenvalues --   -0.30436  -0.30248  -0.29580  -0.29280  -0.28718
 Alpha  occ. eigenvalues --   -0.27702  -0.27547  -0.26269  -0.24157  -0.22586
 Alpha  occ. eigenvalues --   -0.20565  -0.18909  -0.16040
 Alpha virt. eigenvalues --   -0.08831  -0.04475  -0.02256   0.00153   0.02473
 Alpha virt. eigenvalues --    0.04067   0.05908   0.06421   0.06713   0.07206
 Alpha virt. eigenvalues --    0.07587   0.08005   0.08207   0.08266   0.09098

 Mulliken charges:
               1
     1  C    0.014763
     2  C   -0.027886
     3  C   -0.217994
     4  C   -0.161940
     5  C   -0.154532
     6  C   -0.182572
     7  C    0.115263
     8  C    0.094192
     9  C   -0.233780
    10  C   -0.228432
    11  C    0.020235
    12  C    0.051881
    13  C   -0.289713
    14  C   -0.292440
    15  C   -0.276285
    16  C   -0.313832
    17  C   -0.161768
    18  C   -0.115146
    19  C   -0.340099
    20  C   -0.371621
    21  C   -0.080162
    22  C   -0.111757
    23  C    0.122628
    24  C    0.104117
    25  C   -0.374307
    26  C   -0.359246
    27  C   -0.156211
    28  C   -0.094802
    29  C   -0.072773
    30  C   -0.105086
    31  C   -0.116584
    32  C   -0.136268
    33  C    0.152294
    34  C    0.168380
    35  C   -0.414425
    36  C   -0.397091
    37  C   -0.112081
    38  C   -0.115949
    39  C   -0.080499
    40  C   -0.107589
    41  H    0.098503
    42  H    0.067505
    43  H    0.080406
    44  H    0.069833
    45  H    0.098843
    46  H    0.105041
    47  H    0.088930
    48  H    0.110844
    49  H    0.110809
    50  H    0.111030
    51  H    0.132403
    52  H    0.093613
    53  H    0.087201
    54  H    0.096933
    55  H    0.117315
    56  H    0.071317
    57  H    0.088333
    58  H    0.082083
    59  H    0.100904
    60  H    0.079417
    61  H    0.109507
    62  H    0.073342
    63  H    0.107315
    64  H    0.108991
    65  H    0.076955
    66  H    0.070364
    67  H    0.134048
    68  H    0.096743
    69  H    0.076588
    70  H    0.119556
    71  H    0.116602
    72  H    0.087029
    73  H    0.079762
    74  H    0.069326
    75  H    0.122077
    76  H    0.117271
    77  H    0.115503
    78  H    0.108379
    79  H    0.113993
    80  H    0.092795
    81  H    0.081268
    82  H    0.072942
    83  H    0.071262
    84  H    0.087783
    85  H    0.072334
    86  H    0.078132
    87  H    0.106934
    88  H    0.099399
    89  H    0.140689
    90  H    0.140616
    91  H    0.097780
    92  H    0.100755
    93  H    0.064749
    94  H    0.084332
    95  H    0.085524
    96  H    0.087207
 Sum of Mulliken charges =  -0.00000

 Dipole moment (field-independent basis, Debye):
    X=             -0.0590    Y=             -0.0677    Z=              0.1327  Tot=              0.1603
 Quadrupole moment (field-independent basis, Debye-Ang):
   XX=           -225.9367   YY=           -232.4865   ZZ=           -255.8319
   XY=             -6.4775   XZ=              0.5303   YZ=              2.2592

 Normal termination of Gaussian 16 at Sat Jul 27 03:39:10 2019.
