 Gaussian 16, Revision A.03,
 Gaussian 16:  ES64L-G16RevA.03 25-Dec-2016

 ---------------------------------
 # td=(NStates=1) B3LYP/6-31G(d,p)
 ---------------------------------

 --
 TD
 --
 Symbolic Z-matrix:
 Charge =  0 Multiplicity = 1

                         Standard orientation:
 ---------------------------------------------------------------------
 Center     Atomic      Atomic             Coordinates (Angstroms)
 Number     Number       Type             X           Y           Z
 ---------------------------------------------------------------------
      1          6           0       12.083020   -0.602722    0.781056
      2          6           0      -12.124508    0.036375   -0.828031
      3          6           0       13.497382    0.046119    0.657671
      4          6           0      -13.016084   -1.198545   -1.212280
      5          6           0       13.343384    1.594240    0.627318
      6          6           0      -13.441358   -2.109223   -0.002309
      7          6           0       10.980875   -0.009492   -0.077214
      8          6           0      -10.935745   -0.413175    0.036063
      9          6           0       12.468691    2.029584   -0.563728
     10          6           0      -12.189547   -2.649037    0.642218
     11          6           0       11.248735    1.160570   -0.711245
     12          6           0      -10.965574   -1.649915    0.776076
     13          6           0       11.512572   -0.582305    2.314103
     14          6           0       12.348901   -2.039132    0.418910
     15          6           0      -13.052343    1.080107   -0.215762
     16          6           0      -11.570264    0.574257   -2.133079
     17          6           0        9.794044   -0.764689   -0.248259
     18          6           0       -9.891788    0.532974    0.355205
     19          6           0       10.222545    1.873648   -1.616265
     20          6           0       -9.948319   -2.107609    1.852376
     21          6           0        8.526637   -0.469100   -0.219588
     22          6           0       -8.599809    0.368493    0.351300
     23          6           0        7.394565   -1.212510   -0.561062
     24          6           0       -7.519811    1.317429    0.537092
     25          6           0        7.563503   -2.704371   -0.780171
     26          6           0       -7.928692    2.663690    0.843972
     27          6           0        6.163848   -0.701780   -0.355070
     28          6           0       -6.271482    0.930758    0.410526
     29          6           0        4.912112   -1.349572   -0.457502
     30          6           0       -5.020265    1.643902    0.398094
     31          6           0        3.730702   -0.634955   -0.423608
     32          6           0       -3.794557    1.291930    0.301686
     33          6           0        2.439011   -1.202478   -0.605378
     34          6           0       -2.550030    1.846797    0.195718
     35          6           0        2.289847   -2.689157   -0.828615
     36          6           0       -2.585704    3.231830    0.352848
     37          6           0        1.292108   -0.499907   -0.403760
     38          6           0       -1.354445    1.094198    0.220429
     39          6           0        1.049679    0.905264   -0.148483
     40          6           0        0.017972    1.659389    0.213320
     41          1           0       14.009671   -0.312975   -0.308067
     42          1           0       14.635358   -0.092319    1.359812
     43          1           0      -12.394077   -1.862413   -1.747161
     44          1           0      -13.964994   -0.779843   -1.683265
     45          1           0       14.360832    2.230763    0.778423
     46          1           0       12.851538    1.912748    1.640994
     47          1           0      -14.021673   -2.956828   -0.285021
     48          1           0      -13.965670   -1.515169    0.775234
     49          1           0       13.188475    2.189655   -1.465516
     50          1           0       12.089843    3.130950   -0.343281
     51          1           0      -11.678173   -3.355825   -0.022161
     52          1           0      -12.352992   -3.090565    1.657144
     53          1           0       11.410213    0.459728    2.536401
     54          1           0       12.418041   -0.977734    3.052466
     55          1           0       10.831466   -1.292504    2.204256
     56          1           0       12.698283   -2.098718   -0.581150
     57          1           0       11.288675   -2.729121    0.375429
     58          1           0       13.165863   -2.519094    0.789539
     59          1           0      -13.338434    0.879838    0.945115
     60          1           0      -14.029383    1.251137   -0.921259
     61          1           0      -12.385174    2.064393    0.074458
     62          1           0      -10.745598   -0.037446   -2.527639
     63          1           0      -10.934679    1.450708   -1.874158
     64          1           0      -12.408262    0.591721   -2.780924
     65          1           0       10.078198   -1.812334   -0.409399
     66          1           0      -10.187454    1.589546    0.635781
     67          1           0        9.419269    1.221744   -1.799763
     68          1           0       10.682278    2.246022   -2.634541
     69          1           0        9.801491    2.676168   -1.108400
     70          1           0       -9.620189   -1.185696    2.412698
     71          1           0       -9.174818   -2.724220    1.693069
     72          1           0      -10.466934   -2.589220    2.783739
     73          1           0        8.326348    0.590008   -0.211608
     74          1           0       -8.454131   -0.582770    0.028466
     75          1           0        8.111470   -2.994304   -1.819468
     76          1           0        6.687914   -3.323281   -0.862304
     77          1           0        8.217784   -3.298317   -0.097928
     78          1           0       -8.793994    2.884861    1.501662
     79          1           0       -8.443679    3.108071   -0.087385
     80          1           0       -7.181708    3.484397    0.889045
     81          1           0        6.051076    0.432921    0.104882
     82          1           0       -6.091047   -0.141068    0.075994
     83          1           0        4.718578   -2.351963   -0.620707
     84          1           0       -5.083413    2.772888    0.590812
     85          1           0        3.801555    0.377125   -0.169415
     86          1           0       -3.811920    0.126517    0.187426
     87          1           0        2.739988   -2.905847   -1.774512
     88          1           0        1.265754   -2.871496   -1.038708
     89          1           0        2.937963   -3.352727   -0.102006
     90          1           0       -3.072184    3.643286    1.344903
     91          1           0       -3.286411    3.709247   -0.408468
     92          1           0       -1.739100    3.864831    0.123122
     93          1           0        0.301216   -1.073135   -0.398272
     94          1           0       -1.402813    0.097981   -0.157938
     95          1           0        2.032126    1.406057   -0.002608
     96          1           0        0.188795    2.682336    0.314714
 ---------------------------------------------------------------------

 SCF Done:  E(RB3LYP) =  -1557.55435115     A.U. after   15 cycles

 Excitation energies and oscillator strengths:

 Excited State   1:      Singlet-A      2.3077 eV  537.26 nm  f=2.9188  <S**2>=0.000
     148 ->149         0.70536
 This state for optimization and/or second-order correction.
 Total Energy, E(TD-HF/TD-DFT) =  -1557.46954438
 Copying the excited state density for this state as the 1-particle RhoCI density.

 The electronic state is 1-A.
 Alpha  occ. eigenvalues --  -10.20961 -10.20735 -10.20734 -10.20541 -10.20261
 Alpha  occ. eigenvalues --  -10.20252 -10.19931 -10.19890 -10.19889 -10.19643
 Alpha  occ. eigenvalues --  -10.19614 -10.19551 -10.19548 -10.19468 -10.19403
 Alpha  occ. eigenvalues --  -10.19374 -10.19334 -10.18955 -10.18880 -10.18852
 Alpha  occ. eigenvalues --  -10.18767 -10.18747 -10.18629 -10.18605 -10.18561
 Alpha  occ. eigenvalues --  -10.18446 -10.18350 -10.18192 -10.18111 -10.18085
 Alpha  occ. eigenvalues --  -10.17934 -10.17811 -10.17699 -10.17581 -10.17555
 Alpha  occ. eigenvalues --  -10.17298 -10.17199 -10.17097 -10.16666 -10.16555
 Alpha  occ. eigenvalues --   -0.85685  -0.85122  -0.84592  -0.84169  -0.83140
 Alpha  occ. eigenvalues --   -0.82728  -0.79884  -0.78432  -0.78155  -0.77982
 Alpha  occ. eigenvalues --   -0.77740  -0.75667  -0.75018  -0.72818  -0.72235
 Alpha  occ. eigenvalues --   -0.70426  -0.69158  -0.68975  -0.68448  -0.68041
 Alpha  occ. eigenvalues --   -0.67919  -0.67213  -0.67134  -0.66061  -0.65990
 Alpha  occ. eigenvalues --   -0.63676  -0.62349  -0.60363  -0.59351  -0.56931
 Alpha  occ. eigenvalues --   -0.56643  -0.55761  -0.55448  -0.54841  -0.53689
 Alpha  occ. eigenvalues --   -0.53171  -0.51811  -0.51496  -0.50741  -0.49568
 Alpha  occ. eigenvalues --   -0.49283  -0.48222  -0.47628  -0.47105  -0.46185
 Alpha  occ. eigenvalues --   -0.46078  -0.45359  -0.45107  -0.44734  -0.44474
 Alpha  occ. eigenvalues --   -0.44171  -0.43307  -0.43030  -0.42994  -0.42751
 Alpha  occ. eigenvalues --   -0.41892  -0.41484  -0.41393  -0.41105  -0.40852
 Alpha  occ. eigenvalues --   -0.40484  -0.40312  -0.40129  -0.39787  -0.39533
 Alpha  occ. eigenvalues --   -0.39325  -0.39068  -0.38891  -0.38607  -0.38286
 Alpha  occ. eigenvalues --   -0.37972  -0.37589  -0.37558  -0.36892  -0.36838
 Alpha  occ. eigenvalues --   -0.36646  -0.36344  -0.36324  -0.36086  -0.35530
 Alpha  occ. eigenvalues --   -0.34982  -0.34929  -0.34003  -0.33623  -0.33400
 Alpha  occ. eigenvalues --   -0.33398  -0.32919  -0.32904  -0.32296  -0.32232
 Alpha  occ. eigenvalues --   -0.31996  -0.31320  -0.31304  -0.30952  -0.30337
 Alpha  occ. eigenvalues --   -0.30216  -0.29923  -0.29484  -0.29268  -0.28751
 Alpha  occ. eigenvalues --   -0.28367  -0.27281  -0.26715  -0.24858  -0.23201
 Alpha  occ. eigenvalues --   -0.21353  -0.19354  -0.17253
 Alpha virt. eigenvalues --   -0.08309  -0.05212  -0.01762   0.00090   0.02087
 Alpha virt. eigenvalues --    0.03508   0.05124   0.06394   0.06461   0.07297
 Alpha virt. eigenvalues --    0.07768   0.07935   0.08543   0.09070   0.09125

 Mulliken charges:
               1
     1  C   -0.034665
     2  C   -0.000305
     3  C   -0.157108
     4  C   -0.176637
     5  C   -0.188105
     6  C   -0.179820
     7  C    0.105011
     8  C    0.040632
     9  C   -0.203993
    10  C   -0.217461
    11  C    0.058150
    12  C    0.037417
    13  C   -0.267949
    14  C   -0.303135
    15  C   -0.271435
    16  C   -0.283973
    17  C   -0.123127
    18  C   -0.134808
    19  C   -0.363455
    20  C   -0.371068
    21  C   -0.100939
    22  C   -0.074939
    23  C    0.146818
    24  C    0.208312
    25  C   -0.384502
    26  C   -0.418747
    27  C   -0.128604
    28  C   -0.155651
    29  C   -0.056351
    30  C   -0.066432
    31  C   -0.097310
    32  C   -0.089018
    33  C    0.124176
    34  C    0.169583
    35  C   -0.380976
    36  C   -0.407500
    37  C   -0.133676
    38  C   -0.134148
    39  C   -0.078731
    40  C   -0.079930
    41  H    0.086692
    42  H    0.051763
    43  H    0.100417
    44  H    0.076711
    45  H    0.063877
    46  H    0.084076
    47  H    0.098259
    48  H    0.095692
    49  H    0.101873
    50  H    0.087898
    51  H    0.111310
    52  H    0.095609
    53  H    0.112560
    54  H    0.067897
    55  H    0.121133
    56  H    0.105782
    57  H    0.056028
    58  H    0.112873
    59  H    0.088467
    60  H    0.089152
    61  H    0.076037
    62  H    0.101803
    63  H    0.100611
    64  H    0.100247
    65  H    0.080269
    66  H    0.058131
    67  H    0.116368
    68  H    0.090510
    69  H    0.124454
    70  H    0.122695
    71  H    0.135491
    72  H    0.084791
    73  H    0.070099
    74  H    0.064171
    75  H    0.087947
    76  H    0.114490
    77  H    0.122603
    78  H    0.126384
    79  H    0.109810
    80  H    0.115421
    81  H    0.071300
    82  H    0.068472
    83  H    0.072315
    84  H    0.044949
    85  H    0.075120
    86  H    0.035666
    87  H    0.127063
    88  H    0.115968
    89  H    0.113543
    90  H    0.111353
    91  H    0.112879
    92  H    0.106132
    93  H    0.067798
    94  H    0.087015
    95  H    0.064824
    96  H    0.089598
 Sum of Mulliken charges =  -0.00000

 Dipole moment (field-independent basis, Debye):
    X=             -0.6332    Y=             -0.2217    Z=             -0.5927  Tot=              0.8952
 Quadrupole moment (field-independent basis, Debye-Ang):
   XX=           -225.8146   YY=           -233.7700   ZZ=           -257.4069
   XY=              2.7236   XZ=             -5.8928   YZ=              2.8797

 Normal termination of Gaussian 16 at Wed Jul 31 22:00:46 2019.
