 Gaussian 16, Revision A.03,
 Gaussian 16:  ES64L-G16RevA.03 25-Dec-2016

 ---------------------------------
 # td=(NStates=1) B3LYP/6-31G(d,p)
 ---------------------------------

 --
 TD
 --
 Symbolic Z-matrix:
 Charge =  0 Multiplicity = 1

                         Standard orientation:
 ---------------------------------------------------------------------
 Center     Atomic      Atomic             Coordinates (Angstroms)
 Number     Number       Type             X           Y           Z
 ---------------------------------------------------------------------
      1          6           0       12.156608   -0.564788    0.708300
      2          6           0      -12.117968    0.076736   -0.738226
      3          6           0       13.486302    0.317854    0.742294
      4          6           0      -13.014700   -1.096732   -1.216206
      5          6           0       13.173922    1.791780    0.796365
      6          6           0      -13.476353   -2.004844   -0.125666
      7          6           0       11.017862    0.052455   -0.106742
      8          6           0      -10.975612   -0.478892    0.173333
      9          6           0       12.217802    2.173001   -0.337895
     10          6           0      -12.281115   -2.545352    0.688799
     11          6           0       11.142739    1.228075   -0.700467
     12          6           0      -11.114815   -1.659953    0.855862
     13          6           0       11.552390   -0.791915    2.190747
     14          6           0       12.613876   -1.962350    0.145174
     15          6           0      -12.962343    1.168948   -0.117981
     16          6           0      -11.425394    0.734661   -2.028424
     17          6           0        9.865744   -0.855653   -0.409386
     18          6           0       -9.965107    0.474929    0.336443
     19          6           0       10.147210    1.842120   -1.594026
     20          6           0      -10.131119   -2.039391    1.824972
     21          6           0        8.557742   -0.532368   -0.298192
     22          6           0       -8.535127    0.243150    0.352054
     23          6           0        7.425693   -1.365044   -0.587559
     24          6           0       -7.463231    1.272097    0.317727
     25          6           0        7.577187   -2.778697   -0.965952
     26          6           0       -7.900342    2.781753    0.597446
     27          6           0        6.144117   -0.838149   -0.424212
     28          6           0       -6.166178    0.849470    0.294712
     29          6           0        4.870345   -1.391143   -0.554445
     30          6           0       -4.998344    1.657052    0.302977
     31          6           0        3.701799   -0.697174   -0.270555
     32          6           0       -3.744547    1.145545    0.403315
     33          6           0        2.362489   -1.334055   -0.327198
     34          6           0       -2.491608    1.849129    0.363241
     35          6           0        2.255384   -2.788563   -0.573378
     36          6           0       -2.477068    3.351418    0.403267
     37          6           0        1.208486   -0.534019   -0.339926
     38          6           0       -1.320302    1.058018    0.183853
     39          6           0        1.095458    0.825084   -0.040102
     40          6           0        0.039483    1.623969   -0.058815
     41          1           0       14.048977    0.098430   -0.093030
     42          1           0       14.092394    0.097977    1.617009
     43          1           0      -12.285928   -1.839439   -1.843664
     44          1           0      -13.957264   -0.568511   -1.857754
     45          1           0       14.071443    2.466999    0.741864
     46          1           0       12.777208    2.008640    1.664539
     47          1           0      -13.994634   -2.945608   -0.647950
     48          1           0      -14.045923   -1.405474    0.520101
     49          1           0       12.944040    2.504500   -1.132887
     50          1           0       11.685406    3.268760   -0.002967
     51          1           0      -11.946369   -3.442941    0.167806
     52          1           0      -12.611459   -2.875142    1.608962
     53          1           0       11.054603    0.192576    2.459929
     54          1           0       12.474013   -1.016140    2.869670
     55          1           0       10.757625   -1.495491    2.555350
     56          1           0       13.083290   -1.891664   -0.852391
     57          1           0       11.856572   -2.757035    0.213823
     58          1           0       13.579532   -2.505210    0.575555
     59          1           0      -13.364417    0.953408    0.843590
     60          1           0      -13.715456    1.322874   -0.974244
     61          1           0      -12.352789    2.009701    0.137267
     62          1           0      -10.860419   -0.046329   -2.748861
     63          1           0      -10.658468    1.431827   -1.572423
     64          1           0      -12.149043    1.183291   -2.682119
     65          1           0        9.997285   -1.895748   -0.360363
     66          1           0      -10.192793    1.494438    0.357511
     67          1           0        9.473819    1.124429   -2.112404
     68          1           0       10.670239    2.370068   -2.478813
     69          1           0        9.594437    2.780481   -1.191915
     70          1           0       -9.468253   -1.425945    2.200930
     71          1           0       -9.635736   -3.078316    1.520062
     72          1           0      -10.603155   -2.518777    2.661168
     73          1           0        8.381647    0.702967   -0.278633
     74          1           0       -8.090655   -0.801623    0.268219
     75          1           0        8.266418   -2.865760   -1.773786
     76          1           0        6.702504   -3.407606   -0.924391
     77          1           0        8.129089   -3.397157   -0.098193
     78          1           0       -8.175320    2.682762    1.641110
     79          1           0       -8.752909    2.814356    0.073318
     80          1           0       -7.182890    3.388490    0.452487
     81          1           0        6.222697    0.175041   -0.228471
     82          1           0       -5.939319   -0.178298    0.361201
     83          1           0        4.695880   -2.516801   -0.733255
     84          1           0       -5.086599    2.811055    0.406240
     85          1           0        3.683336    0.333547   -0.054422
     86          1           0       -3.584265    0.100306    0.097561
     87          1           0        2.820965   -3.305061   -1.498902
     88          1           0        1.176172   -3.012599   -0.848805
     89          1           0        2.575117   -3.353301    0.377921
     90          1           0       -3.087911    3.881406    1.221775
     91          1           0       -2.917558    3.967846   -0.521884
     92          1           0       -1.614106    3.870716    0.584051
     93          1           0        0.198242   -1.117866   -0.415411
     94          1           0       -1.471803   -0.126351    0.163898
     95          1           0        2.014291    1.372942    0.215880
     96          1           0        0.410031    2.831392    0.155978
 ---------------------------------------------------------------------

 SCF Done:  E(RB3LYP) =  -1557.60441528     A.U. after   15 cycles

 Excitation energies and oscillator strengths:

 Excited State   1:      Singlet-A      2.0328 eV  609.93 nm  f=2.7019  <S**2>=0.000
     148 ->149         0.70491
 This state for optimization and/or second-order correction.
 Total Energy, E(TD-HF/TD-DFT) =  -1557.52971278
 Copying the excited state density for this state as the 1-particle RhoCI density.

 The electronic state is 1-A.
 Alpha  occ. eigenvalues --  -10.21448 -10.21012 -10.20713 -10.20664 -10.20634
 Alpha  occ. eigenvalues --  -10.20146 -10.20043 -10.19918 -10.19727 -10.19727
 Alpha  occ. eigenvalues --  -10.19703 -10.19620 -10.19612 -10.19511 -10.19266
 Alpha  occ. eigenvalues --  -10.19045 -10.18990 -10.18853 -10.18787 -10.18739
 Alpha  occ. eigenvalues --  -10.18721 -10.18548 -10.18505 -10.18498 -10.18349
 Alpha  occ. eigenvalues --  -10.18345 -10.18344 -10.18328 -10.18220 -10.18026
 Alpha  occ. eigenvalues --  -10.18008 -10.17948 -10.17854 -10.17800 -10.17609
 Alpha  occ. eigenvalues --  -10.17424 -10.17339 -10.16695 -10.16451 -10.16404
 Alpha  occ. eigenvalues --   -0.85420  -0.85083  -0.83435  -0.82700  -0.82114
 Alpha  occ. eigenvalues --   -0.80699  -0.79359  -0.79017  -0.78038  -0.77721
 Alpha  occ. eigenvalues --   -0.77266  -0.75403  -0.74552  -0.72565  -0.72238
 Alpha  occ. eigenvalues --   -0.69738  -0.69290  -0.68564  -0.68039  -0.67800
 Alpha  occ. eigenvalues --   -0.67714  -0.66836  -0.66772  -0.66424  -0.66016
 Alpha  occ. eigenvalues --   -0.62894  -0.62210  -0.59597  -0.58859  -0.57284
 Alpha  occ. eigenvalues --   -0.56774  -0.55737  -0.54830  -0.53282  -0.52897
 Alpha  occ. eigenvalues --   -0.52101  -0.51712  -0.50366  -0.50041  -0.49397
 Alpha  occ. eigenvalues --   -0.49026  -0.48024  -0.47455  -0.46899  -0.46568
 Alpha  occ. eigenvalues --   -0.46041  -0.45501  -0.45234  -0.44658  -0.43936
 Alpha  occ. eigenvalues --   -0.43774  -0.42979  -0.42484  -0.42340  -0.42143
 Alpha  occ. eigenvalues --   -0.41894  -0.41668  -0.41143  -0.40918  -0.40801
 Alpha  occ. eigenvalues --   -0.40502  -0.40191  -0.39935  -0.39531  -0.39340
 Alpha  occ. eigenvalues --   -0.39132  -0.39047  -0.38854  -0.38356  -0.38215
 Alpha  occ. eigenvalues --   -0.38027  -0.37343  -0.37244  -0.36621  -0.36543
 Alpha  occ. eigenvalues --   -0.36366  -0.35931  -0.35728  -0.35133  -0.34907
 Alpha  occ. eigenvalues --   -0.34773  -0.34575  -0.34209  -0.34062  -0.34001
 Alpha  occ. eigenvalues --   -0.33598  -0.33518  -0.33385  -0.33099  -0.32442
 Alpha  occ. eigenvalues --   -0.31853  -0.31763  -0.31703  -0.31093  -0.30977
 Alpha  occ. eigenvalues --   -0.30827  -0.30259  -0.29707  -0.28953  -0.28829
 Alpha  occ. eigenvalues --   -0.28690  -0.28122  -0.26388  -0.24405  -0.22938
 Alpha  occ. eigenvalues --   -0.20873  -0.18372  -0.16066
 Alpha virt. eigenvalues --   -0.08328  -0.05500  -0.02264   0.00399   0.02376
 Alpha virt. eigenvalues --    0.03919   0.05164   0.05881   0.06192   0.06780
 Alpha virt. eigenvalues --    0.07715   0.08039   0.08385   0.08711   0.09063

 Mulliken charges:
               1
     1  C   -0.007981
     2  C   -0.037386
     3  C   -0.178323
     4  C   -0.145139
     5  C   -0.188667
     6  C   -0.176333
     7  C    0.086673
     8  C    0.106143
     9  C   -0.221804
    10  C   -0.236564
    11  C    0.115207
    12  C    0.102748
    13  C   -0.309836
    14  C   -0.311798
    15  C   -0.278433
    16  C   -0.281124
    17  C   -0.139756
    18  C   -0.183772
    19  C   -0.378190
    20  C   -0.360675
    21  C   -0.104539
    22  C   -0.106026
    23  C    0.136263
    24  C    0.056698
    25  C   -0.382194
    26  C   -0.339741
    27  C   -0.108086
    28  C   -0.107400
    29  C   -0.081519
    30  C   -0.077212
    31  C   -0.087554
    32  C   -0.129404
    33  C    0.109322
    34  C    0.149180
    35  C   -0.378584
    36  C   -0.378539
    37  C   -0.115267
    38  C   -0.150817
    39  C   -0.049005
    40  C   -0.106750
    41  H    0.102723
    42  H    0.095138
    43  H    0.066728
    44  H    0.049643
    45  H    0.077885
    46  H    0.114665
    47  H    0.081361
    48  H    0.104506
    49  H    0.100218
    50  H    0.057718
    51  H    0.108056
    52  H    0.109364
    53  H    0.097053
    54  H    0.084024
    55  H    0.109376
    56  H    0.101905
    57  H    0.104333
    58  H    0.077964
    59  H    0.104368
    60  H    0.094840
    61  H    0.100387
    62  H    0.081752
    63  H    0.094336
    64  H    0.097028
    65  H    0.078231
    66  H    0.086853
    67  H    0.121085
    68  H    0.091553
    69  H    0.105389
    70  H    0.127354
    71  H    0.083102
    72  H    0.102455
    73  H    0.069804
    74  H    0.080137
    75  H    0.131175
    76  H    0.118471
    77  H    0.088486
    78  H    0.131278
    79  H    0.125350
    80  H    0.111914
    81  H    0.069774
    82  H    0.074157
    83  H    0.078049
    84  H    0.071339
    85  H    0.078696
    86  H    0.073028
    87  H    0.104973
    88  H    0.105674
    89  H    0.119569
    90  H    0.102730
    91  H    0.101113
    92  H    0.120325
    93  H    0.067010
    94  H    0.089153
    95  H    0.080410
    96  H    0.072174
 Sum of Mulliken charges =  -0.00000

 Dipole moment (field-independent basis, Debye):
    X=             -0.0525    Y=             -0.4449    Z=              0.9490  Tot=              1.0494
 Quadrupole moment (field-independent basis, Debye-Ang):
   XX=           -218.1684   YY=           -232.0459   ZZ=           -256.6968
   XY=              1.8313   XZ=             -8.6182   YZ=              1.5918

 Normal termination of Gaussian 16 at Mon Jul 29 05:31:01 2019.
