 Gaussian 16, Revision A.03,
 Gaussian 16:  ES64L-G16RevA.03 25-Dec-2016

 ---------------------------------
 # td=(NStates=1) B3LYP/6-31G(d,p)
 ---------------------------------

 --
 TD
 --
 Symbolic Z-matrix:
 Charge =  0 Multiplicity = 1

                         Standard orientation:
 ---------------------------------------------------------------------
 Center     Atomic      Atomic             Coordinates (Angstroms)
 Number     Number       Type             X           Y           Z
 ---------------------------------------------------------------------
      1          6           0       12.055806    0.341389   -0.804034
      2          6           0      -12.032564   -0.132923    1.015143
      3          6           0       13.421422   -0.414040   -0.515530
      4          6           0      -13.110751    0.982919    1.278176
      5          6           0       13.158657   -1.867536   -0.396975
      6          6           0      -13.407353    1.886307    0.129521
      7          6           0       11.006378   -0.033784    0.241701
      8          6           0      -11.049243    0.352100   -0.012126
      9          6           0       12.305719   -2.240758    0.789743
     10          6           0      -12.241601    2.571930   -0.509286
     11          6           0       11.150776   -1.231580    1.062286
     12          6           0      -11.121901    1.557912   -0.727206
     13          6           0       11.519719    0.176884   -2.195890
     14          6           0       12.502233    1.860223   -0.488593
     15          6           0      -12.975193   -1.312394    0.402098
     16          6           0      -11.377861   -0.595722    2.321331
     17          6           0        9.875967    0.822198    0.351602
     18          6           0       -9.888751   -0.641030   -0.301780
     19          6           0       10.236640   -1.553800    2.159151
     20          6           0      -10.186449    1.998100   -1.833050
     21          6           0        8.615293    0.554024    0.297354
     22          6           0       -8.628711   -0.393102   -0.286486
     23          6           0        7.409924    1.382874    0.316285
     24          6           0       -7.512064   -1.319924   -0.512592
     25          6           0        7.664203    2.828779    0.553243
     26          6           0       -7.833518   -2.752899   -0.792584
     27          6           0        6.124422    0.817037    0.230831
     28          6           0       -6.199212   -0.874377   -0.426621
     29          6           0        4.878878    1.514329    0.314680
     30          6           0       -4.971704   -1.627511   -0.420619
     31          6           0        3.700304    0.862578    0.161543
     32          6           0       -3.749124   -1.029805   -0.278041
     33          6           0        2.424654    1.466255    0.276399
     34          6           0       -2.537972   -1.707241   -0.428679
     35          6           0        2.375303    2.961070    0.542549
     36          6           0       -2.442238   -3.082462   -0.924753
     37          6           0        1.205317    0.698541    0.129939
     38          6           0       -1.389949   -0.951196   -0.236563
     39          6           0        1.143702   -0.619862   -0.175890
     40          6           0        0.084836   -1.402102   -0.444086
     41          1           0       13.835149    0.041857    0.564348
     42          1           0       14.082929   -0.206456   -1.385788
     43          1           0      -12.849652    1.603804    2.304645
     44          1           0      -13.864469    0.437695    1.716671
     45          1           0       14.035146   -2.465674   -0.465819
     46          1           0       12.515559   -2.128507   -1.275550
     47          1           0      -14.228815    2.753902    0.250222
     48          1           0      -13.869419    1.180603   -0.653005
     49          1           0       12.809635   -2.300320    1.808402
     50          1           0       11.648502   -3.186555    0.765722
     51          1           0      -12.080366    3.561779    0.076914
     52          1           0      -12.393983    3.163824   -1.409393
     53          1           0       11.396034   -0.886867   -2.681680
     54          1           0       12.147204    0.763668   -2.907367
     55          1           0       10.678525    0.720573   -2.436762
     56          1           0       12.525687    1.983933    0.533274
     57          1           0       11.736128    2.507288   -0.650106
     58          1           0       13.469680    2.163641   -1.159666
     59          1           0      -13.718880   -0.956405   -0.329507
     60          1           0      -13.538029   -1.672722    1.300142
     61          1           0      -12.270358   -2.131987    0.158552
     62          1           0      -10.754984    0.184319    2.796850
     63          1           0      -10.548640   -1.568906    2.153344
     64          1           0      -12.361913   -0.826375    2.986411
     65          1           0       10.257948    1.831460    0.852561
     66          1           0      -10.177166   -1.661771   -0.479258
     67          1           0        9.614048   -0.876065    2.655107
     68          1           0       10.923046   -1.977645    2.998062
     69          1           0        9.393293   -2.314286    1.887851
     70          1           0       -9.378791    1.388913   -1.885971
     71          1           0       -9.942680    3.012389   -1.553318
     72          1           0      -10.745266    2.271844   -2.681549
     73          1           0        8.315890   -0.380352   -0.160088
     74          1           0       -8.400796    0.574845   -0.279669
     75          1           0        8.313669    2.957030    1.536123
     76          1           0        6.799702    3.141083    1.019702
     77          1           0        8.007774    3.424464   -0.202952
     78          1           0       -8.461941   -2.952139   -1.791362
     79          1           0       -8.463082   -3.007827    0.178780
     80          1           0       -6.970331   -3.493139   -0.860582
     81          1           0        6.032721   -0.228655    0.087819
     82          1           0       -6.101166    0.181754   -0.073520
     83          1           0        4.825451    2.394530    0.287740
     84          1           0       -4.982350   -2.677728   -0.584293
     85          1           0        3.945070   -0.306399   -0.160664
     86          1           0       -3.590853    0.186940   -0.175542
     87          1           0        2.842842    3.138333    1.284834
     88          1           0        1.344931    3.405309    0.623168
     89          1           0        3.219436    3.379662   -0.192035
     90          1           0       -2.873484   -3.236630   -1.922557
     91          1           0       -3.231590   -3.733990   -0.195966
     92          1           0       -1.449315   -3.786148   -0.650625
     93          1           0        0.348916    1.280310    0.095979
     94          1           0       -1.452699   -0.042308    0.096002
     95          1           0        2.166726   -1.180931   -0.429562
     96          1           0        0.245407   -2.557385   -0.558229
 ---------------------------------------------------------------------

 SCF Done:  E(RB3LYP) =  -1557.47916831     A.U. after   15 cycles

 Excitation energies and oscillator strengths:

 Excited State   1:      Singlet-A      2.1908 eV  565.93 nm  f=2.8401  <S**2>=0.000
     148 ->149         0.70400
     148 <-149        -0.10576
 This state for optimization and/or second-order correction.
 Total Energy, E(TD-HF/TD-DFT) =  -1557.39865706
 Copying the excited state density for this state as the 1-particle RhoCI density.

 The electronic state is 1-A.
 Alpha  occ. eigenvalues --  -10.21008 -10.20987 -10.20473 -10.20356 -10.20237
 Alpha  occ. eigenvalues --  -10.20204 -10.20049 -10.19987 -10.19811 -10.19767
 Alpha  occ. eigenvalues --  -10.19758 -10.19664 -10.19644 -10.19479 -10.19411
 Alpha  occ. eigenvalues --  -10.19284 -10.19143 -10.18999 -10.18967 -10.18848
 Alpha  occ. eigenvalues --  -10.18813 -10.18719 -10.18652 -10.18532 -10.18344
 Alpha  occ. eigenvalues --  -10.18309 -10.18283 -10.18271 -10.18262 -10.18199
 Alpha  occ. eigenvalues --  -10.18107 -10.17712 -10.17537 -10.17503 -10.17321
 Alpha  occ. eigenvalues --  -10.17259 -10.17004 -10.16974 -10.16577 -10.16287
 Alpha  occ. eigenvalues --   -0.84586  -0.84505  -0.84116  -0.83476  -0.82131
 Alpha  occ. eigenvalues --   -0.81776  -0.79700  -0.78451  -0.77955  -0.77774
 Alpha  occ. eigenvalues --   -0.77211  -0.75532  -0.74745  -0.73000  -0.72473
 Alpha  occ. eigenvalues --   -0.70342  -0.69013  -0.68749  -0.68483  -0.67818
 Alpha  occ. eigenvalues --   -0.67235  -0.66899  -0.66833  -0.66713  -0.66343
 Alpha  occ. eigenvalues --   -0.62967  -0.61530  -0.60076  -0.58774  -0.56819
 Alpha  occ. eigenvalues --   -0.56727  -0.55906  -0.55509  -0.55052  -0.53354
 Alpha  occ. eigenvalues --   -0.52518  -0.52157  -0.50844  -0.50335  -0.48939
 Alpha  occ. eigenvalues --   -0.48070  -0.47696  -0.46824  -0.46451  -0.46203
 Alpha  occ. eigenvalues --   -0.45912  -0.45118  -0.44798  -0.44669  -0.44427
 Alpha  occ. eigenvalues --   -0.44239  -0.43674  -0.42866  -0.42452  -0.42205
 Alpha  occ. eigenvalues --   -0.42056  -0.42016  -0.41726  -0.41227  -0.40938
 Alpha  occ. eigenvalues --   -0.40740  -0.40406  -0.40394  -0.40056  -0.39620
 Alpha  occ. eigenvalues --   -0.39159  -0.38995  -0.38662  -0.38469  -0.38199
 Alpha  occ. eigenvalues --   -0.37649  -0.37467  -0.37212  -0.36772  -0.36534
 Alpha  occ. eigenvalues --   -0.36293  -0.35761  -0.35523  -0.35218  -0.34983
 Alpha  occ. eigenvalues --   -0.34916  -0.34771  -0.34375  -0.34014  -0.33935
 Alpha  occ. eigenvalues --   -0.33815  -0.33551  -0.33483  -0.33264  -0.33075
 Alpha  occ. eigenvalues --   -0.32513  -0.31736  -0.31564  -0.31107  -0.30892
 Alpha  occ. eigenvalues --   -0.30617  -0.30005  -0.29039  -0.28515  -0.28490
 Alpha  occ. eigenvalues --   -0.28126  -0.27963  -0.26023  -0.23478  -0.21600
 Alpha  occ. eigenvalues --   -0.20434  -0.19120  -0.16486
 Alpha virt. eigenvalues --   -0.08333  -0.04917  -0.01282   0.00662   0.01854
 Alpha virt. eigenvalues --    0.03235   0.05626   0.06368   0.06821   0.07321
 Alpha virt. eigenvalues --    0.07669   0.07892   0.07963   0.08490   0.08902

 Mulliken charges:
               1
     1  C    0.002066
     2  C   -0.020890
     3  C   -0.145683
     4  C   -0.149931
     5  C   -0.184846
     6  C   -0.179857
     7  C    0.029409
     8  C    0.062400
     9  C   -0.208760
    10  C   -0.208151
    11  C    0.065622
    12  C    0.063585
    13  C   -0.305832
    14  C   -0.311251
    15  C   -0.304685
    16  C   -0.271674
    17  C   -0.113969
    18  C   -0.154031
    19  C   -0.356343
    20  C   -0.358303
    21  C   -0.082489
    22  C   -0.050315
    23  C    0.084032
    24  C    0.116816
    25  C   -0.371255
    26  C   -0.367761
    27  C   -0.126234
    28  C   -0.133038
    29  C    0.000612
    30  C   -0.094898
    31  C   -0.100161
    32  C   -0.098806
    33  C    0.062575
    34  C    0.173390
    35  C   -0.353585
    36  C   -0.374279
    37  C   -0.107604
    38  C   -0.118168
    39  C   -0.047871
    40  C   -0.117916
    41  H    0.068830
    42  H    0.088288
    43  H    0.048611
    44  H    0.100438
    45  H    0.094155
    46  H    0.099168
    47  H    0.068181
    48  H    0.085867
    49  H    0.092555
    50  H    0.102574
    51  H    0.088562
    52  H    0.096260
    53  H    0.092472
    54  H    0.085992
    55  H    0.120034
    56  H    0.112935
    57  H    0.103876
    58  H    0.081385
    59  H    0.114502
    60  H    0.094397
    61  H    0.102986
    62  H    0.119311
    63  H    0.070928
    64  H    0.077740
    65  H    0.068222
    66  H    0.077807
    67  H    0.129294
    68  H    0.085164
    69  H    0.097920
    70  H    0.115516
    71  H    0.111196
    72  H    0.119987
    73  H    0.071416
    74  H    0.068157
    75  H    0.095281
    76  H    0.115018
    77  H    0.134104
    78  H    0.104876
    79  H    0.106835
    80  H    0.105901
    81  H    0.071718
    82  H    0.071897
    83  H    0.020973
    84  H    0.079188
    85  H    0.069320
    86  H    0.071465
    87  H    0.146436
    88  H    0.109998
    89  H    0.100781
    90  H    0.137003
    91  H    0.076730
    92  H    0.100109
    93  H    0.077953
    94  H    0.062100
    95  H    0.071947
    96  H    0.073719
 Sum of Mulliken charges =  -0.00000

 Dipole moment (field-independent basis, Debye):
    X=             -0.0444    Y=              0.8326    Z=             -0.3111  Tot=              0.8900
 Quadrupole moment (field-independent basis, Debye-Ang):
   XX=           -234.9202   YY=           -234.6068   ZZ=           -253.5949
   XY=             -1.3545   XZ=              2.2618   YZ=              2.1032

 Normal termination of Gaussian 16 at Thu Aug  1 22:38:31 2019.
