 Gaussian 16, Revision A.03,
 Gaussian 16:  ES64L-G16RevA.03 25-Dec-2016

 ---------------------------------
 # td=(NStates=1) B3LYP/6-31G(d,p)
 ---------------------------------

 --
 TD
 --
 Symbolic Z-matrix:
 Charge =  0 Multiplicity = 1

                         Standard orientation:
 ---------------------------------------------------------------------
 Center     Atomic      Atomic             Coordinates (Angstroms)
 Number     Number       Type             X           Y           Z
 ---------------------------------------------------------------------
      1          6           0       12.209501    0.544951   -0.634345
      2          6           0      -12.244517   -0.070241    0.828780
      3          6           0       13.567446   -0.227943   -0.428713
      4          6           0      -13.105054    1.087066    1.212907
      5          6           0       13.316757   -1.702734   -0.492748
      6          6           0      -13.397037    2.044677    0.041996
      7          6           0       11.058271   -0.060318    0.263091
      8          6           0      -11.020329    0.458793    0.026195
      9          6           0       12.466412   -2.059607    0.710124
     10          6           0      -12.179498    2.617945   -0.490585
     11          6           0       11.199528   -1.233806    0.874658
     12          6           0      -11.075012    1.632602   -0.687173
     13          6           0       11.724205    0.565776   -2.156287
     14          6           0       12.487544    2.180562   -0.328940
     15          6           0      -12.974363   -1.005556    0.093760
     16          6           0      -11.730372   -0.743871    2.193233
     17          6           0        9.857787    0.764002    0.451494
     18          6           0       -9.968596   -0.478382   -0.142200
     19          6           0       10.172492   -1.749931    1.927115
     20          6           0       -9.977600    2.208062   -1.571493
     21          6           0        8.569179    0.282869    0.369807
     22          6           0       -8.554953   -0.350327   -0.172284
     23          6           0        7.456494    1.235058    0.417357
     24          6           0       -7.548081   -1.260531   -0.321959
     25          6           0        7.650969    2.816394    0.591051
     26          6           0       -7.960285   -2.750421   -0.507776
     27          6           0        6.225566    0.736978    0.288168
     28          6           0       -6.242849   -0.768609   -0.239818
     29          6           0        4.903732    1.318825    0.406332
     30          6           0       -5.105872   -1.538570   -0.498444
     31          6           0        3.715509    0.713807    0.289708
     32          6           0       -3.878451   -1.144144   -0.405500
     33          6           0        2.383115    1.249700    0.240384
     34          6           0       -2.544528   -1.838725   -0.566044
     35          6           0        2.182329    2.648213    0.513642
     36          6           0       -2.604463   -3.328833   -0.816126
     37          6           0        1.335804    0.459964    0.022484
     38          6           0       -1.331183   -1.158713   -0.462505
     39          6           0        1.150879   -0.965212   -0.367443
     40          6           0        0.050626   -1.634482   -0.567142
     41          1           0       14.153190    0.130390    0.631628
     42          1           0       14.160137    0.148492   -1.251585
     43          1           0      -12.441860    1.780503    1.880025
     44          1           0      -13.896879    0.647214    1.969561
     45          1           0       14.159185   -2.134039   -0.673581
     46          1           0       12.949201   -1.807793   -1.508327
     47          1           0      -14.122135    2.805371    0.464546
     48          1           0      -13.993728    1.527231   -0.905541
     49          1           0       13.185519   -1.987099    1.495669
     50          1           0       11.972361   -3.129380    0.911372
     51          1           0      -11.700886    3.518613    0.106379
     52          1           0      -12.305881    2.994682   -1.371345
     53          1           0       11.646850   -0.391962   -2.776307
     54          1           0       12.329577    1.049709   -2.782871
     55          1           0       10.747937    1.091380   -2.153005
     56          1           0       12.700613    2.345870    0.656502
     57          1           0       11.581784    2.964251   -0.486202
     58          1           0       13.427033    2.552644   -1.020487
     59          1           0      -13.625587   -0.635070   -0.773596
     60          1           0      -13.632803   -1.609443    0.879243
     61          1           0      -12.493221   -1.931898   -0.336015
     62          1           0      -11.358769    0.082181    2.727181
     63          1           0      -10.968951   -1.408013    1.955354
     64          1           0      -12.712206   -1.114064    2.672414
     65          1           0       10.130338    1.796526    0.882697
     66          1           0      -10.254772   -1.436325   -0.196490
     67          1           0        9.237001   -1.005995    2.326783
     68          1           0       10.666729   -1.954921    2.784473
     69          1           0        9.654299   -2.621433    1.421497
     70          1           0       -9.259452    1.335082   -1.882922
     71          1           0       -9.358439    2.847237   -0.897194
     72          1           0      -10.260124    2.727891   -2.462170
     73          1           0        8.343837   -0.673777    0.104674
     74          1           0       -8.330970    0.580121    0.170587
     75          1           0        8.152270    2.959617    1.686613
     76          1           0        6.768651    3.374529    0.490346
     77          1           0        8.415143    3.067592   -0.141900
     78          1           0       -8.259602   -2.919095   -1.600758
     79          1           0       -8.558024   -3.122128    0.279198
     80          1           0       -7.235287   -3.652208   -0.153263
     81          1           0        6.203304   -0.360873    0.491220
     82          1           0       -6.162241    0.347404   -0.165854
     83          1           0        4.956594    2.428391    0.420587
     84          1           0       -5.254943   -2.447875   -0.795261
     85          1           0        3.740458   -0.314976    0.157802
     86          1           0       -3.925153    0.038192    0.128026
     87          1           0        2.857802    2.899163    1.383254
     88          1           0        1.115033    2.869157    0.571280
     89          1           0        2.488669    3.443660   -0.270545
     90          1           0       -3.240681   -3.574194   -1.772996
     91          1           0       -2.849686   -3.771820    0.195143
     92          1           0       -1.638290   -3.646943   -1.196040
     93          1           0        0.245468    0.880384   -0.034337
     94          1           0       -1.691608   -0.171816   -0.339460
     95          1           0        2.009706   -1.582838   -0.654384
     96          1           0        0.086879   -2.799226   -0.670194
 ---------------------------------------------------------------------

 SCF Done:  E(RB3LYP) =  -1557.53130062     A.U. after   15 cycles

 Excitation energies and oscillator strengths:

 Excited State   1:      Singlet-A      2.3898 eV  518.81 nm  f=2.7807  <S**2>=0.000
     148 ->149         0.69676
 This state for optimization and/or second-order correction.
 Total Energy, E(TD-HF/TD-DFT) =  -1557.44347811
 Copying the excited state density for this state as the 1-particle RhoCI density.

 The electronic state is 1-A.
 Alpha  occ. eigenvalues --  -10.21708 -10.20688 -10.19976 -10.19906 -10.19898
 Alpha  occ. eigenvalues --  -10.19766 -10.19680 -10.19532 -10.19513 -10.19436
 Alpha  occ. eigenvalues --  -10.19369 -10.19301 -10.19274 -10.19183 -10.19134
 Alpha  occ. eigenvalues --  -10.19117 -10.19026 -10.19023 -10.18927 -10.18820
 Alpha  occ. eigenvalues --  -10.18790 -10.18749 -10.18747 -10.18736 -10.18421
 Alpha  occ. eigenvalues --  -10.18364 -10.18201 -10.18201 -10.18157 -10.17984
 Alpha  occ. eigenvalues --  -10.17836 -10.17737 -10.17614 -10.17350 -10.17252
 Alpha  occ. eigenvalues --  -10.17163 -10.16847 -10.16845 -10.16705 -10.16398
 Alpha  occ. eigenvalues --   -0.86195  -0.84491  -0.83787  -0.83453  -0.81942
 Alpha  occ. eigenvalues --   -0.81384  -0.80078  -0.79436  -0.78171  -0.77284
 Alpha  occ. eigenvalues --   -0.76627  -0.75744  -0.74962  -0.71874  -0.71714
 Alpha  occ. eigenvalues --   -0.69332  -0.68820  -0.68437  -0.68192  -0.67717
 Alpha  occ. eigenvalues --   -0.67569  -0.67332  -0.67201  -0.66799  -0.66419
 Alpha  occ. eigenvalues --   -0.62931  -0.62460  -0.60256  -0.59197  -0.57640
 Alpha  occ. eigenvalues --   -0.56964  -0.55603  -0.54980  -0.54074  -0.53477
 Alpha  occ. eigenvalues --   -0.52476  -0.52108  -0.50576  -0.49863  -0.48893
 Alpha  occ. eigenvalues --   -0.48436  -0.47978  -0.47680  -0.46854  -0.46102
 Alpha  occ. eigenvalues --   -0.45765  -0.45624  -0.44766  -0.44136  -0.43953
 Alpha  occ. eigenvalues --   -0.43564  -0.43289  -0.42899  -0.42763  -0.42322
 Alpha  occ. eigenvalues --   -0.42122  -0.41971  -0.41506  -0.41159  -0.40822
 Alpha  occ. eigenvalues --   -0.40281  -0.40249  -0.40212  -0.39880  -0.39555
 Alpha  occ. eigenvalues --   -0.39367  -0.39260  -0.38484  -0.38197  -0.38137
 Alpha  occ. eigenvalues --   -0.37829  -0.37273  -0.37072  -0.36710  -0.36330
 Alpha  occ. eigenvalues --   -0.36071  -0.35895  -0.35297  -0.35093  -0.34939
 Alpha  occ. eigenvalues --   -0.34863  -0.34663  -0.34150  -0.34058  -0.33823
 Alpha  occ. eigenvalues --   -0.33181  -0.33099  -0.32943  -0.32753  -0.32457
 Alpha  occ. eigenvalues --   -0.32413  -0.31373  -0.30949  -0.30920  -0.30802
 Alpha  occ. eigenvalues --   -0.30173  -0.30057  -0.29624  -0.28989  -0.28978
 Alpha  occ. eigenvalues --   -0.28454  -0.27855  -0.26078  -0.24431  -0.23217
 Alpha  occ. eigenvalues --   -0.21268  -0.18522  -0.16777
 Alpha virt. eigenvalues --   -0.07448  -0.05175  -0.01890   0.01186   0.03070
 Alpha virt. eigenvalues --    0.04308   0.06007   0.07045   0.07304   0.07498
 Alpha virt. eigenvalues --    0.08065   0.08519   0.08812   0.08927   0.09036

 Mulliken charges:
               1
     1  C    0.003636
     2  C   -0.010004
     3  C   -0.178224
     4  C   -0.165017
     5  C   -0.170751
     6  C   -0.183457
     7  C    0.071215
     8  C    0.084087
     9  C   -0.206418
    10  C   -0.172267
    11  C    0.049462
    12  C    0.041449
    13  C   -0.304198
    14  C   -0.313363
    15  C   -0.267941
    16  C   -0.293786
    17  C   -0.140894
    18  C   -0.147479
    19  C   -0.350859
    20  C   -0.369349
    21  C   -0.081835
    22  C   -0.113820
    23  C    0.116261
    24  C    0.132067
    25  C   -0.360025
    26  C   -0.373812
    27  C   -0.144424
    28  C   -0.144664
    29  C   -0.085020
    30  C   -0.016014
    31  C   -0.100460
    32  C   -0.104649
    33  C    0.190050
    34  C    0.050532
    35  C   -0.386856
    36  C   -0.367683
    37  C   -0.167022
    38  C   -0.076961
    39  C   -0.051626
    40  C   -0.123963
    41  H    0.054166
    42  H    0.091792
    43  H    0.079518
    44  H    0.072980
    45  H    0.097968
    46  H    0.098943
    47  H    0.089457
    48  H    0.069128
    49  H    0.117201
    50  H    0.073494
    51  H    0.086230
    52  H    0.109084
    53  H    0.082912
    54  H    0.109613
    55  H    0.109218
    56  H    0.117900
    57  H    0.079864
    58  H    0.079353
    59  H    0.094658
    60  H    0.067324
    61  H    0.097455
    62  H    0.109123
    63  H    0.110672
    64  H    0.086444
    65  H    0.093021
    66  H    0.073244
    67  H    0.093819
    68  H    0.122573
    69  H    0.109337
    70  H    0.109604
    71  H    0.118265
    72  H    0.110736
    73  H    0.093778
    74  H    0.075993
    75  H    0.099250
    76  H    0.119529
    77  H    0.125276
    78  H    0.127009
    79  H    0.131329
    80  H    0.081265
    81  H    0.063133
    82  H    0.081550
    83  H    0.062482
    84  H    0.065792
    85  H    0.069323
    86  H    0.031508
    87  H    0.112711
    88  H    0.113492
    89  H    0.105558
    90  H    0.106151
    91  H    0.128440
    92  H    0.112475
    93  H    0.074207
    94  H    0.076514
    95  H    0.079071
    96  H    0.083153
 Sum of Mulliken charges =  -0.00000

 Dipole moment (field-independent basis, Debye):
    X=              0.6728    Y=             -0.1695    Z=             -0.0855  Tot=              0.6990
 Quadrupole moment (field-independent basis, Debye-Ang):
   XX=           -209.6977   YY=           -234.4175   ZZ=           -252.4181
   XY=             -2.6172   XZ=              2.1191   YZ=              1.1459

 Normal termination of Gaussian 16 at Tue Jul 30 16:30:30 2019.
