 Gaussian 16, Revision A.03,
 Gaussian 16:  ES64L-G16RevA.03 25-Dec-2016

 ---------------------------------
 # td=(NStates=1) B3LYP/6-31G(d,p)
 ---------------------------------

 --
 TD
 --
 Symbolic Z-matrix:
 Charge =  0 Multiplicity = 1

                         Standard orientation:
 ---------------------------------------------------------------------
 Center     Atomic      Atomic             Coordinates (Angstroms)
 Number     Number       Type             X           Y           Z
 ---------------------------------------------------------------------
      1          6           0       12.034176    0.533007   -0.714567
      2          6           0      -12.046610   -0.078915    0.935842
      3          6           0       13.344394   -0.280556   -0.482355
      4          6           0      -13.071829    1.056091    1.247900
      5          6           0       13.218512   -1.836682   -0.416808
      6          6           0      -13.324387    1.971622    0.101986
      7          6           0       10.930247    0.026955    0.331032
      8          6           0      -10.939175    0.413416    0.053023
      9          6           0       12.378803   -2.057244    0.789676
     10          6           0      -12.011122    2.656058   -0.466873
     11          6           0       11.147113   -1.145967    1.030184
     12          6           0      -10.900538    1.757531   -0.570764
     13          6           0       11.494063    0.286984   -2.076388
     14          6           0       12.445045    2.082665   -0.476691
     15          6           0      -12.931260   -1.134419    0.117068
     16          6           0      -11.456079   -0.664129    2.180761
     17          6           0        9.810271    0.783369    0.448716
     18          6           0       -9.908273   -0.520652   -0.287204
     19          6           0       10.120758   -1.558563    2.039686
     20          6           0       -9.847672    2.206128   -1.608255
     21          6           0        8.579596    0.437177    0.293564
     22          6           0       -8.559634   -0.359044   -0.040878
     23          6           0        7.424969    1.299099    0.347778
     24          6           0       -7.489966   -1.235149   -0.339105
     25          6           0        7.651793    2.718469    0.705564
     26          6           0       -7.893238   -2.698769   -0.706695
     27          6           0        6.148847    0.787369    0.180835
     28          6           0       -6.181863   -0.875071   -0.198171
     29          6           0        4.860846    1.292665    0.280472
     30          6           0       -5.024563   -1.808138   -0.461180
     31          6           0        3.654614    0.697338    0.089571
     32          6           0       -3.801848   -1.174149   -0.389530
     33          6           0        2.411767    1.311402    0.082878
     34          6           0       -2.578284   -1.835715   -0.460482
     35          6           0        2.355218    2.844003    0.522618
     36          6           0       -2.691770   -3.312494   -0.690555
     37          6           0        1.231389    0.608558   -0.104860
     38          6           0       -1.358093   -1.078988   -0.301779
     39          6           0        1.112451   -0.774034   -0.401369
     40          6           0       -0.085377   -1.517377   -0.500025
     41          1           0       14.162598   -0.026112    0.341037
     42          1           0       13.736917    0.003455   -1.605629
     43          1           0      -12.680983    1.806108    2.018968
     44          1           0      -14.013232    0.403302    1.594103
     45          1           0       14.237675   -2.191914   -0.338197
     46          1           0       12.561905   -2.078078   -1.220101
     47          1           0      -14.182281    2.748300    0.572811
     48          1           0      -13.713371    1.444285   -0.986295
     49          1           0       13.030294   -2.083777    1.631080
     50          1           0       11.762306   -3.143458    0.777651
     51          1           0      -11.570214    3.279053    0.400022
     52          1           0      -12.238488    3.324474   -1.383118
     53          1           0       11.273473   -0.712511   -2.149541
     54          1           0       12.224862    0.484016   -2.898659
     55          1           0       10.491687    0.671285   -2.267750
     56          1           0       12.716778    2.326661    0.627625
     57          1           0       11.568251    2.539862   -0.742125
     58          1           0       13.227590    2.307451   -1.236720
     59          1           0      -13.290405   -0.693552   -0.846195
     60          1           0      -13.797921   -1.604512    0.752395
     61          1           0      -12.305271   -1.905643    0.007388
     62          1           0      -10.877184    0.128625    2.720542
     63          1           0      -10.702026   -1.546752    1.791581
     64          1           0      -12.412339   -1.071344    2.679812
     65          1           0       10.074800    1.731286    0.461288
     66          1           0      -10.339367   -1.478231   -0.410801
     67          1           0        9.241256   -0.954375    2.222826
     68          1           0       10.702471   -1.628395    3.016178
     69          1           0        9.641198   -2.586455    1.842179
     70          1           0       -9.474156    1.188799   -2.139570
     71          1           0       -8.832069    2.623553   -1.154818
     72          1           0      -10.317378    2.709105   -2.556765
     73          1           0        8.352820   -0.826808    0.257798
     74          1           0       -8.104502    0.610733    0.190408
     75          1           0        8.179398    2.790276    1.625984
     76          1           0        6.507207    3.262931    0.623049
     77          1           0        8.181057    3.242021   -0.299835
     78          1           0       -8.474833   -2.570392   -1.601741
     79          1           0       -8.260843   -3.064079    0.262616
     80          1           0       -7.096380   -3.195450   -0.937065
     81          1           0        6.056227   -0.189636    0.050400
     82          1           0       -5.904141    0.177043   -0.159834
     83          1           0        4.852217    2.396012    0.665413
     84          1           0       -5.176259   -2.737652   -0.659428
     85          1           0        3.781559   -0.424751   -0.122150
     86          1           0       -3.633070   -0.236607   -0.105494
     87          1           0        2.547031    3.030389    1.669856
     88          1           0        1.286772    3.195371    0.352777
     89          1           0        3.146364    3.338593    0.000323
     90          1           0       -3.102052   -3.591418   -1.768640
     91          1           0       -3.699418   -3.577321    0.029468
     92          1           0       -1.690596   -3.929721   -0.386540
     93          1           0        0.352415    1.332153   -0.124594
     94          1           0       -1.451719   -0.042810   -0.177490
     95          1           0        1.940986   -1.319990   -0.558289
     96          1           0       -0.017380   -2.626507   -0.855899
 ---------------------------------------------------------------------

 SCF Done:  E(RB3LYP) =  -1557.49561911     A.U. after   17 cycles

 Excitation energies and oscillator strengths:

 Excited State   1:      Singlet-A      1.8799 eV  659.51 nm  f=3.1639  <S**2>=0.000
     148 ->149         0.70659
     148 <-149        -0.14346
 This state for optimization and/or second-order correction.
 Total Energy, E(TD-HF/TD-DFT) =  -1557.42653241
 Copying the excited state density for this state as the 1-particle RhoCI density.

 The electronic state is 1-A.
 Alpha  occ. eigenvalues --  -10.21264 -10.21220 -10.20793 -10.20585 -10.20420
 Alpha  occ. eigenvalues --  -10.20400 -10.20074 -10.20051 -10.19726 -10.19640
 Alpha  occ. eigenvalues --  -10.19637 -10.19577 -10.19533 -10.19420 -10.19418
 Alpha  occ. eigenvalues --  -10.19331 -10.19282 -10.19265 -10.19254 -10.19013
 Alpha  occ. eigenvalues --  -10.18988 -10.18906 -10.18832 -10.18797 -10.18605
 Alpha  occ. eigenvalues --  -10.18558 -10.18345 -10.18338 -10.18211 -10.18139
 Alpha  occ. eigenvalues --  -10.18083 -10.17971 -10.17674 -10.17640 -10.17547
 Alpha  occ. eigenvalues --  -10.17301 -10.17100 -10.16752 -10.16642 -10.15949
 Alpha  occ. eigenvalues --   -0.85613  -0.85094  -0.83792  -0.83392  -0.82303
 Alpha  occ. eigenvalues --   -0.81598  -0.79730  -0.78845  -0.78400  -0.78328
 Alpha  occ. eigenvalues --   -0.76799  -0.75551  -0.73646  -0.72625  -0.71632
 Alpha  occ. eigenvalues --   -0.70031  -0.69039  -0.68544  -0.68015  -0.67941
 Alpha  occ. eigenvalues --   -0.67389  -0.66741  -0.66484  -0.65994  -0.65472
 Alpha  occ. eigenvalues --   -0.63238  -0.62341  -0.59778  -0.59222  -0.56858
 Alpha  occ. eigenvalues --   -0.55884  -0.55332  -0.54779  -0.54356  -0.52777
 Alpha  occ. eigenvalues --   -0.52652  -0.51818  -0.50761  -0.50067  -0.49240
 Alpha  occ. eigenvalues --   -0.48297  -0.48117  -0.47241  -0.46655  -0.46298
 Alpha  occ. eigenvalues --   -0.45980  -0.45479  -0.44938  -0.44746  -0.44490
 Alpha  occ. eigenvalues --   -0.43973  -0.43595  -0.42848  -0.42515  -0.42303
 Alpha  occ. eigenvalues --   -0.42126  -0.41618  -0.41473  -0.40968  -0.40852
 Alpha  occ. eigenvalues --   -0.40392  -0.40174  -0.40111  -0.39712  -0.39401
 Alpha  occ. eigenvalues --   -0.39157  -0.38882  -0.38807  -0.38581  -0.37908
 Alpha  occ. eigenvalues --   -0.37559  -0.37448  -0.36885  -0.36702  -0.36398
 Alpha  occ. eigenvalues --   -0.36228  -0.36077  -0.35979  -0.35632  -0.35578
 Alpha  occ. eigenvalues --   -0.35501  -0.35154  -0.34948  -0.34183  -0.33573
 Alpha  occ. eigenvalues --   -0.33429  -0.33057  -0.33044  -0.32905  -0.32185
 Alpha  occ. eigenvalues --   -0.32127  -0.31904  -0.31536  -0.31302  -0.31048
 Alpha  occ. eigenvalues --   -0.30729  -0.30048  -0.29673  -0.28580  -0.28171
 Alpha  occ. eigenvalues --   -0.27965  -0.27624  -0.26379  -0.23799  -0.22331
 Alpha  occ. eigenvalues --   -0.20329  -0.18473  -0.15595
 Alpha virt. eigenvalues --   -0.09058  -0.05119  -0.02477   0.00551   0.01917
 Alpha virt. eigenvalues --    0.03882   0.05906   0.06270   0.06680   0.06778
 Alpha virt. eigenvalues --    0.07514   0.07654   0.07746   0.08452   0.08805

 Mulliken charges:
               1
     1  C   -0.022237
     2  C   -0.037189
     3  C   -0.159779
     4  C   -0.144296
     5  C   -0.180502
     6  C   -0.152532
     7  C    0.053212
     8  C    0.077683
     9  C   -0.205217
    10  C   -0.219864
    11  C    0.064600
    12  C    0.072704
    13  C   -0.306928
    14  C   -0.301122
    15  C   -0.298317
    16  C   -0.265190
    17  C   -0.109124
    18  C   -0.164470
    19  C   -0.363799
    20  C   -0.362774
    21  C   -0.074245
    22  C   -0.071103
    23  C    0.116654
    24  C    0.076107
    25  C   -0.355619
    26  C   -0.350697
    27  C   -0.098316
    28  C   -0.136006
    29  C   -0.082532
    30  C   -0.080740
    31  C   -0.094356
    32  C   -0.076511
    33  C    0.088961
    34  C    0.127667
    35  C   -0.356738
    36  C   -0.368901
    37  C   -0.114577
    38  C   -0.101593
    39  C   -0.072931
    40  C   -0.102943
    41  H    0.077749
    42  H    0.050319
    43  H    0.082924
    44  H    0.078707
    45  H    0.104953
    46  H    0.107568
    47  H    0.066682
    48  H    0.058705
    49  H    0.106023
    50  H    0.063028
    51  H    0.105208
    52  H    0.101363
    53  H    0.118060
    54  H    0.097095
    55  H    0.112082
    56  H    0.097884
    57  H    0.111987
    58  H    0.101044
    59  H    0.111121
    60  H    0.080956
    61  H    0.110842
    62  H    0.109677
    63  H    0.079512
    64  H    0.087478
    65  H    0.074262
    66  H    0.087379
    67  H    0.128808
    68  H    0.097241
    69  H    0.095205
    70  H    0.106105
    71  H    0.113282
    72  H    0.101850
    73  H    0.053640
    74  H    0.066736
    75  H    0.135681
    76  H    0.081395
    77  H    0.094519
    78  H    0.124735
    79  H    0.125002
    80  H    0.107459
    81  H    0.054174
    82  H    0.076794
    83  H    0.054504
    84  H    0.078354
    85  H    0.073997
    86  H    0.067056
    87  H    0.110859
    88  H    0.099255
    89  H    0.126885
    90  H    0.114898
    91  H    0.088714
    92  H    0.095404
    93  H    0.073539
    94  H    0.074494
    95  H    0.080455
    96  H    0.069913
 Sum of Mulliken charges =  -0.00000

 Dipole moment (field-independent basis, Debye):
    X=              0.2641    Y=              0.2912    Z=             -0.2707  Tot=              0.4773
 Quadrupole moment (field-independent basis, Debye-Ang):
   XX=           -219.2646   YY=           -242.0838   ZZ=           -254.0060
   XY=             -0.6940   XZ=              4.5275   YZ=              3.1636

 Normal termination of Gaussian 16 at Mon Jul 29 02:06:07 2019.
