 Gaussian 16, Revision A.03,
 Gaussian 16:  ES64L-G16RevA.03 25-Dec-2016

 ---------------------------------
 # td=(NStates=1) B3LYP/6-31G(d,p)
 ---------------------------------

 --
 TD
 --
 Symbolic Z-matrix:
 Charge =  0 Multiplicity = 1

                         Standard orientation:
 ---------------------------------------------------------------------
 Center     Atomic      Atomic             Coordinates (Angstroms)
 Number     Number       Type             X           Y           Z
 ---------------------------------------------------------------------
      1          6           0      -12.196631   -0.708001   -0.543132
      2          6           0       12.073815   -0.085886    0.868380
      3          6           0      -13.392270    0.214480   -0.447003
      4          6           0       12.885892   -1.244455    1.268270
      5          6           0      -13.015710    1.768203   -0.457507
      6          6           0       13.232810   -2.216951    0.132263
      7          6           0      -10.993860   -0.075654    0.241915
      8          6           0       10.864622   -0.507311   -0.113467
      9          6           0      -12.176026    2.123842    0.676347
     10          6           0       12.094315   -2.754783   -0.645823
     11          6           0      -11.029576    1.164395    0.787702
     12          6           0       10.904050   -1.691947   -0.702840
     13          6           0      -11.787436   -0.696715   -2.108553
     14          6           0      -12.488604   -2.146634   -0.110385
     15          6           0       12.892853    0.987401    0.375102
     16          6           0       11.284088    0.449266    2.132778
     17          6           0       -9.793297   -0.970884    0.375763
     18          6           0        9.927063    0.550372   -0.313486
     19          6           0       -9.955278    1.784614    1.661414
     20          6           0        9.819441   -2.125564   -1.684049
     21          6           0       -8.511390   -0.513557    0.220050
     22          6           0        8.578412    0.336198   -0.199212
     23          6           0       -7.394824   -1.397758    0.393736
     24          6           0        7.506729    1.339485   -0.428732
     25          6           0       -7.445302   -2.908985    0.627765
     26          6           0        7.948728    2.724535   -0.606342
     27          6           0       -6.181324   -0.811696    0.279373
     28          6           0        6.208629    1.025463   -0.310905
     29          6           0       -4.812349   -1.347596    0.257096
     30          6           0        4.956495    1.757350   -0.418337
     31          6           0       -3.640546   -0.601348    0.216212
     32          6           0        3.719586    1.243144   -0.312523
     33          6           0       -2.287821   -1.061696    0.238782
     34          6           0        2.585541    2.095658   -0.345351
     35          6           0       -2.075415   -2.551142    0.437009
     36          6           0        2.618175    3.554514   -0.742667
     37          6           0       -1.208139   -0.259151    0.051267
     38          6           0        1.478393    1.294862   -0.194525
     39          6           0       -1.125717    1.097641   -0.086473
     40          6           0        0.088330    1.793013   -0.276642
     41          1           0      -13.882292    0.186373    0.620346
     42          1           0      -14.140039   -0.403785   -1.053188
     43          1           0       12.270245   -1.944105    2.013120
     44          1           0       13.658826   -0.681386    1.798993
     45          1           0      -14.072796    2.174160   -0.474801
     46          1           0      -12.601899    1.944579   -1.516925
     47          1           0       13.663429   -3.153125    0.417495
     48          1           0       13.802852   -1.746844   -0.607602
     49          1           0      -12.724984    2.087369    1.593032
     50          1           0      -11.793284    3.210704    0.606360
     51          1           0       11.554834   -3.635160   -0.233401
     52          1           0       12.413155   -3.216634   -1.658687
     53          1           0      -11.588636    0.378358   -2.484748
     54          1           0      -12.773817   -0.831511   -2.595059
     55          1           0      -11.033665   -1.503099   -2.340961
     56          1           0      -12.805101   -2.211832    1.044951
     57          1           0      -11.984981   -2.932530   -0.445198
     58          1           0      -13.482782   -2.501480   -0.688263
     59          1           0       13.504286    0.699935   -0.460940
     60          1           0       13.653290    1.243049    1.064161
     61          1           0       12.263076    1.920614    0.241369
     62          1           0       10.614774   -0.374709    2.484473
     63          1           0       10.537233    1.257597    1.841958
     64          1           0       12.033113    0.637521    2.892473
     65          1           0       -9.898967   -2.102922    0.502146
     66          1           0       10.267754    1.538056   -0.480114
     67          1           0       -9.037297    1.129964    1.813114
     68          1           0      -10.579773    1.879369    2.622221
     69          1           0       -9.532436    2.632387    1.160031
     70          1           0        9.281722   -1.300344   -2.244492
     71          1           0        9.000250   -2.913059   -1.273084
     72          1           0       10.403736   -2.547549   -2.604866
     73          1           0       -8.445860    0.589607   -0.167052
     74          1           0        8.172698   -0.590384   -0.072873
     75          1           0       -7.844961   -3.128412    1.904254
     76          1           0       -6.521908   -3.525162    0.329780
     77          1           0       -8.369062   -3.250228   -0.109386
     78          1           0        8.561360    2.660010   -1.418867
     79          1           0        8.509882    3.164298    0.145755
     80          1           0        6.999125    3.319332   -0.756710
     81          1           0       -6.442488    0.429117   -0.135568
     82          1           0        5.778183   -0.042829    0.018716
     83          1           0       -4.733707   -2.401319    0.149225
     84          1           0        5.047074    2.864906   -0.686063
     85          1           0       -3.661172    0.370946   -0.320288
     86          1           0        3.671233    0.112870   -0.345157
     87          1           0       -2.771472   -2.909256    1.543738
     88          1           0       -0.891631   -2.763736    0.608674
     89          1           0       -2.333219   -3.226965   -0.368852
     90          1           0        3.128956    3.580343   -1.628935
     91          1           0        3.111942    4.092442    0.035214
     92          1           0        1.515466    4.083812   -0.694473
     93          1           0       -0.145415   -0.886333    0.049632
     94          1           0        1.671448    0.245234   -0.067353
     95          1           0       -2.013414    1.658206   -0.046527
     96          1           0        0.078405    2.873206   -0.680406
 ---------------------------------------------------------------------

 SCF Done:  E(RB3LYP) =  -1557.54766137     A.U. after   16 cycles

 Excitation energies and oscillator strengths:

 Excited State   1:      Singlet-A      2.1505 eV  576.54 nm  f=3.0162  <S**2>=0.000
     148 ->149         0.70802
     148 <-149        -0.10969
 This state for optimization and/or second-order correction.
 Total Energy, E(TD-HF/TD-DFT) =  -1557.46863306
 Copying the excited state density for this state as the 1-particle RhoCI density.

 The electronic state is 1-A.
 Alpha  occ. eigenvalues --  -10.22773 -10.20898 -10.20286 -10.20189 -10.20126
 Alpha  occ. eigenvalues --  -10.20103 -10.19934 -10.19757 -10.19545 -10.19473
 Alpha  occ. eigenvalues --  -10.19380 -10.19343 -10.19289 -10.19278 -10.19222
 Alpha  occ. eigenvalues --  -10.19077 -10.19073 -10.18963 -10.18949 -10.18931
 Alpha  occ. eigenvalues --  -10.18890 -10.18764 -10.18746 -10.18723 -10.18711
 Alpha  occ. eigenvalues --  -10.18686 -10.18642 -10.18631 -10.18489 -10.18456
 Alpha  occ. eigenvalues --  -10.18355 -10.18316 -10.18266 -10.17862 -10.17808
 Alpha  occ. eigenvalues --  -10.17796 -10.17200 -10.17160 -10.16749 -10.16657
 Alpha  occ. eigenvalues --   -0.85601  -0.84769  -0.84267  -0.83097  -0.82407
 Alpha  occ. eigenvalues --   -0.81904  -0.79050  -0.78724  -0.78572  -0.77929
 Alpha  occ. eigenvalues --   -0.76593  -0.75326  -0.73616  -0.72334  -0.71461
 Alpha  occ. eigenvalues --   -0.70694  -0.69111  -0.68578  -0.67899  -0.67204
 Alpha  occ. eigenvalues --   -0.67037  -0.66971  -0.66278  -0.66158  -0.65586
 Alpha  occ. eigenvalues --   -0.62642  -0.61538  -0.59824  -0.59127  -0.57719
 Alpha  occ. eigenvalues --   -0.56297  -0.55177  -0.54247  -0.53361  -0.53068
 Alpha  occ. eigenvalues --   -0.51942  -0.50613  -0.50340  -0.49908  -0.48929
 Alpha  occ. eigenvalues --   -0.48513  -0.47623  -0.47426  -0.46172  -0.45973
 Alpha  occ. eigenvalues --   -0.45557  -0.45331  -0.45076  -0.44929  -0.44453
 Alpha  occ. eigenvalues --   -0.43824  -0.43322  -0.43132  -0.42768  -0.42591
 Alpha  occ. eigenvalues --   -0.42387  -0.42124  -0.41732  -0.41543  -0.40839
 Alpha  occ. eigenvalues --   -0.40148  -0.40029  -0.39870  -0.39548  -0.39177
 Alpha  occ. eigenvalues --   -0.38978  -0.38743  -0.38472  -0.38193  -0.37366
 Alpha  occ. eigenvalues --   -0.37207  -0.37136  -0.36848  -0.36749  -0.36244
 Alpha  occ. eigenvalues --   -0.36081  -0.36059  -0.35584  -0.35532  -0.35171
 Alpha  occ. eigenvalues --   -0.35007  -0.34729  -0.34291  -0.34040  -0.33714
 Alpha  occ. eigenvalues --   -0.33670  -0.33499  -0.33145  -0.33092  -0.32606
 Alpha  occ. eigenvalues --   -0.31920  -0.31492  -0.30955  -0.30832  -0.30781
 Alpha  occ. eigenvalues --   -0.29979  -0.29387  -0.29103  -0.28915  -0.27946
 Alpha  occ. eigenvalues --   -0.27619  -0.26846  -0.26115  -0.24402  -0.23021
 Alpha  occ. eigenvalues --   -0.21088  -0.18981  -0.16294
 Alpha virt. eigenvalues --   -0.08303  -0.04715  -0.01786   0.00890   0.02833
 Alpha virt. eigenvalues --    0.04433   0.05174   0.06145   0.06318   0.06743
 Alpha virt. eigenvalues --    0.06851   0.07230   0.07419   0.07760   0.08292

 Mulliken charges:
               1
     1  C    0.009455
     2  C   -0.023088
     3  C   -0.185314
     4  C   -0.158395
     5  C   -0.193439
     6  C   -0.179912
     7  C    0.086240
     8  C    0.108503
     9  C   -0.200219
    10  C   -0.223857
    11  C    0.027816
    12  C    0.038464
    13  C   -0.299449
    14  C   -0.295548
    15  C   -0.286319
    16  C   -0.297272
    17  C   -0.139711
    18  C   -0.166512
    19  C   -0.351258
    20  C   -0.358059
    21  C   -0.109932
    22  C   -0.052659
    23  C    0.154722
    24  C    0.088993
    25  C   -0.336068
    26  C   -0.370104
    27  C   -0.109044
    28  C   -0.127371
    29  C   -0.119953
    30  C   -0.092880
    31  C   -0.109381
    32  C   -0.113318
    33  C    0.133995
    34  C    0.125809
    35  C   -0.349744
    36  C   -0.365878
    37  C   -0.102007
    38  C   -0.096364
    39  C   -0.080750
    40  C   -0.127397
    41  H    0.065814
    42  H    0.084945
    43  H    0.071636
    44  H    0.083950
    45  H    0.090664
    46  H    0.092289
    47  H    0.098107
    48  H    0.106341
    49  H    0.118445
    50  H    0.098700
    51  H    0.102571
    52  H    0.096638
    53  H    0.096465
    54  H    0.093427
    55  H    0.104157
    56  H    0.093596
    57  H    0.117990
    58  H    0.061481
    59  H    0.102214
    60  H    0.100124
    61  H    0.090695
    62  H    0.099872
    63  H    0.099451
    64  H    0.090633
    65  H    0.083148
    66  H    0.091026
    67  H    0.115389
    68  H    0.102713
    69  H    0.117142
    70  H    0.113638
    71  H    0.092719
    72  H    0.083224
    73  H    0.101296
    74  H    0.076455
    75  H    0.078259
    76  H    0.120971
    77  H    0.093609
    78  H    0.127416
    79  H    0.129046
    80  H    0.095809
    81  H    0.027541
    82  H    0.050043
    83  H    0.090650
    84  H    0.060857
    85  H    0.085122
    86  H    0.091536
    87  H    0.065005
    88  H    0.082230
    89  H    0.129123
    90  H    0.144802
    91  H    0.137599
    92  H    0.097611
    93  H    0.059976
    94  H    0.081277
    95  H    0.089981
    96  H    0.071783
 Sum of Mulliken charges =  -0.00000

 Dipole moment (field-independent basis, Debye):
    X=              0.8398    Y=              0.3956    Z=             -1.1533  Tot=              1.4805
 Quadrupole moment (field-independent basis, Debye-Ang):
   XX=           -215.9377   YY=           -233.5072   ZZ=           -257.8841
   XY=              1.1584   XZ=             -1.9046   YZ=             -0.0629

 Normal termination of Gaussian 16 at Sat Jul 27 11:33:33 2019.
