 Gaussian 16, Revision A.03,
 Gaussian 16:  ES64L-G16RevA.03 25-Dec-2016

 ---------------------------------
 # td=(NStates=1) B3LYP/6-31G(d,p)
 ---------------------------------

 --
 TD
 --
 Symbolic Z-matrix:
 Charge =  0 Multiplicity = 1

                         Standard orientation:
 ---------------------------------------------------------------------
 Center     Atomic      Atomic             Coordinates (Angstroms)
 Number     Number       Type             X           Y           Z
 ---------------------------------------------------------------------
      1          6           0      -12.028498   -0.662666   -0.766071
      2          6           0       11.968299   -0.086337    0.971216
      3          6           0      -13.404340    0.169645   -0.688147
      4          6           0       12.792508   -1.318730    1.373932
      5          6           0      -13.227687    1.666049   -0.499655
      6          6           0       13.166920   -2.194029    0.246592
      7          6           0      -11.020529   -0.015076    0.218952
      8          6           0       10.965952   -0.515382   -0.166647
      9          6           0      -12.424831    2.043152    0.683939
     10          6           0       12.015767   -2.794863   -0.497450
     11          6           0      -11.237932    1.195668    0.883253
     12          6           0       11.010645   -1.658230   -0.773173
     13          6           0      -11.521364   -0.623830   -2.159205
     14          6           0      -12.349838   -2.114136   -0.352417
     15          6           0       12.891006    1.089946    0.279037
     16          6           0       11.342667    0.505694    2.177160
     17          6           0       -9.825530   -0.880532    0.527528
     18          6           0        9.904256    0.571152   -0.380239
     19          6           0      -10.252809    1.634921    1.944789
     20          6           0       10.044824   -2.064458   -1.910114
     21          6           0       -8.547891   -0.344980    0.372926
     22          6           0        8.585613    0.378160   -0.296301
     23          6           0       -7.353195   -1.330652    0.346848
     24          6           0        7.536638    1.317370   -0.465572
     25          6           0       -7.612337   -2.738361    0.669724
     26          6           0        7.991247    2.786325   -0.615275
     27          6           0       -6.114427   -0.763158    0.247166
     28          6           0        6.246545    0.911679   -0.358441
     29          6           0       -4.823971   -1.336818    0.411716
     30          6           0        5.039550    1.811292   -0.475070
     31          6           0       -3.626556   -0.585064    0.158946
     32          6           0        3.793431    1.302035   -0.290991
     33          6           0       -2.294423   -1.235439    0.211603
     34          6           0        2.520656    1.942423   -0.390282
     35          6           0       -2.118687   -2.594320    0.493187
     36          6           0        2.615381    3.341360   -0.853330
     37          6           0       -1.151820   -0.358468    0.132999
     38          6           0        1.375324    1.288911   -0.145128
     39          6           0       -1.121560    1.054719   -0.037537
     40          6           0        0.036038    1.802209   -0.242137
     41          1           0      -13.855704   -0.305937    0.082250
     42          1           0      -13.844506   -0.205848   -1.548884
     43          1           0       12.183059   -2.036576    1.962293
     44          1           0       13.767281   -0.811857    1.913468
     45          1           0      -14.264923    2.020821   -0.325964
     46          1           0      -12.767428    2.045547   -1.487340
     47          1           0       13.787534   -2.903371    0.928618
     48          1           0       13.775668   -1.706548   -0.494585
     49          1           0      -12.884387    1.830071    1.655395
     50          1           0      -12.295379    3.073969    0.641832
     51          1           0       11.603907   -3.539066    0.201284
     52          1           0       12.215310   -3.194695   -1.522682
     53          1           0      -11.586808    0.355239   -2.508157
     54          1           0      -12.037977   -1.495844   -2.767344
     55          1           0      -10.434130   -1.068338   -2.291722
     56          1           0      -12.610980   -2.185776    0.683231
     57          1           0      -11.641916   -2.820779   -0.643966
     58          1           0      -13.172803   -2.395576   -1.102264
     59          1           0       13.527300    0.501507   -0.601649
     60          1           0       13.592732    1.347488    1.101631
     61          1           0       12.373950    1.837036   -0.142068
     62          1           0       10.446089   -0.061219    2.540495
     63          1           0       11.071911    1.610198    1.888349
     64          1           0       12.138447    0.613025    2.758917
     65          1           0       -9.804591   -1.956747    0.426497
     66          1           0       10.269586    1.671333   -0.691274
     67          1           0       -9.735523    0.705349    2.498722
     68          1           0      -10.842836    2.043446    2.621378
     69          1           0       -9.483995    2.419317    1.374488
     70          1           0        9.130210   -1.354562   -2.191659
     71          1           0        9.603395   -3.030502   -1.791340
     72          1           0       10.542678   -2.319829   -2.825137
     73          1           0       -8.345528    0.773973    0.386296
     74          1           0        8.198509   -0.578094   -0.084133
     75          1           0       -8.116866   -3.084908    1.714320
     76          1           0       -6.561779   -3.110417    0.812111
     77          1           0       -7.990097   -3.312077   -0.143848
     78          1           0        8.480223    2.889158   -1.547459
     79          1           0        8.670956    3.190067    0.227955
     80          1           0        7.011812    3.370978   -0.601543
     81          1           0       -6.172409    0.343009    0.124837
     82          1           0        5.955405   -0.032156    0.016559
     83          1           0       -4.751225   -2.471169    0.324839
     84          1           0        5.337158    2.920432   -0.633467
     85          1           0       -3.739478    0.661161    0.134742
     86          1           0        3.613694    0.284370   -0.154360
     87          1           0       -2.594169   -3.044203    1.495525
     88          1           0       -1.153427   -3.050123    0.560561
     89          1           0       -2.618395   -3.213849   -0.246269
     90          1           0        3.045507    3.589248   -1.821940
     91          1           0        3.195194    3.833174   -0.045519
     92          1           0        1.661314    3.875449   -0.719797
     93          1           0       -0.163212   -0.835014    0.057964
     94          1           0        1.623909    0.303492   -0.005161
     95          1           0       -2.118100    1.589031    0.060441
     96          1           0        0.055569    2.844084   -0.185475
 ---------------------------------------------------------------------

 SCF Done:  E(RB3LYP) =  -1557.62017618     A.U. after   15 cycles

 Excitation energies and oscillator strengths:

 Excited State   1:      Singlet-A      2.1628 eV  573.25 nm  f=2.6627  <S**2>=0.000
     148 ->149         0.70201
     148 <-149        -0.10478
 This state for optimization and/or second-order correction.
 Total Energy, E(TD-HF/TD-DFT) =  -1557.54069340
 Copying the excited state density for this state as the 1-particle RhoCI density.

 The electronic state is 1-A.
 Alpha  occ. eigenvalues --  -10.21358 -10.20880 -10.20060 -10.19930 -10.19902
 Alpha  occ. eigenvalues --  -10.19699 -10.19445 -10.19432 -10.19342 -10.19326
 Alpha  occ. eigenvalues --  -10.19169 -10.18988 -10.18931 -10.18923 -10.18902
 Alpha  occ. eigenvalues --  -10.18769 -10.18758 -10.18745 -10.18738 -10.18577
 Alpha  occ. eigenvalues --  -10.18567 -10.18553 -10.18537 -10.18259 -10.18249
 Alpha  occ. eigenvalues --  -10.18150 -10.18123 -10.18049 -10.18020 -10.17972
 Alpha  occ. eigenvalues --  -10.17679 -10.17555 -10.17548 -10.17544 -10.17505
 Alpha  occ. eigenvalues --  -10.17350 -10.17188 -10.16770 -10.16512 -10.15770
 Alpha  occ. eigenvalues --   -0.85097  -0.84551  -0.84114  -0.82759  -0.82256
 Alpha  occ. eigenvalues --   -0.81357  -0.79249  -0.78566  -0.78496  -0.77277
 Alpha  occ. eigenvalues --   -0.76911  -0.74977  -0.74280  -0.71910  -0.71631
 Alpha  occ. eigenvalues --   -0.70540  -0.68661  -0.68408  -0.68066  -0.67944
 Alpha  occ. eigenvalues --   -0.67828  -0.67382  -0.67085  -0.66759  -0.66004
 Alpha  occ. eigenvalues --   -0.62514  -0.61162  -0.59573  -0.58561  -0.57234
 Alpha  occ. eigenvalues --   -0.56004  -0.55371  -0.54335  -0.53574  -0.52821
 Alpha  occ. eigenvalues --   -0.51756  -0.51569  -0.50547  -0.50206  -0.49320
 Alpha  occ. eigenvalues --   -0.49012  -0.47852  -0.47644  -0.46608  -0.45868
 Alpha  occ. eigenvalues --   -0.45665  -0.45485  -0.45279  -0.44278  -0.43672
 Alpha  occ. eigenvalues --   -0.43365  -0.42885  -0.42628  -0.42366  -0.42100
 Alpha  occ. eigenvalues --   -0.42034  -0.41854  -0.41639  -0.41577  -0.41317
 Alpha  occ. eigenvalues --   -0.41011  -0.40754  -0.40621  -0.39976  -0.39669
 Alpha  occ. eigenvalues --   -0.39201  -0.38811  -0.38634  -0.38198  -0.37971
 Alpha  occ. eigenvalues --   -0.37900  -0.37694  -0.37207  -0.36833  -0.36589
 Alpha  occ. eigenvalues --   -0.36416  -0.36044  -0.35627  -0.35491  -0.35275
 Alpha  occ. eigenvalues --   -0.35085  -0.34471  -0.34411  -0.33916  -0.33845
 Alpha  occ. eigenvalues --   -0.33738  -0.33152  -0.33032  -0.32793  -0.32664
 Alpha  occ. eigenvalues --   -0.32190  -0.31824  -0.31579  -0.31380  -0.31232
 Alpha  occ. eigenvalues --   -0.30747  -0.30261  -0.30179  -0.28881  -0.27624
 Alpha  occ. eigenvalues --   -0.26757  -0.26511  -0.25805  -0.23892  -0.22711
 Alpha  occ. eigenvalues --   -0.20710  -0.18866  -0.16381
 Alpha virt. eigenvalues --   -0.08286  -0.04734  -0.01618   0.01034   0.02996
 Alpha virt. eigenvalues --    0.04200   0.05555   0.06467   0.06709   0.07168
 Alpha virt. eigenvalues --    0.07580   0.07894   0.08282   0.08617   0.08778

 Mulliken charges:
               1
     1  C   -0.018842
     2  C   -0.011689
     3  C   -0.171315
     4  C   -0.162729
     5  C   -0.194542
     6  C   -0.179634
     7  C    0.083028
     8  C    0.064300
     9  C   -0.203506
    10  C   -0.215998
    11  C    0.022577
    12  C    0.064307
    13  C   -0.280068
    14  C   -0.312240
    15  C   -0.300749
    16  C   -0.266536
    17  C   -0.155207
    18  C   -0.158615
    19  C   -0.328978
    20  C   -0.378201
    21  C   -0.075114
    22  C   -0.051885
    23  C    0.098804
    24  C    0.112952
    25  C   -0.387341
    26  C   -0.368195
    27  C   -0.098007
    28  C   -0.131997
    29  C   -0.108340
    30  C   -0.092266
    31  C   -0.112328
    32  C   -0.107843
    33  C    0.137454
    34  C    0.127604
    35  C   -0.396331
    36  C   -0.383810
    37  C   -0.124657
    38  C   -0.097337
    39  C   -0.067161
    40  C   -0.109399
    41  H    0.097373
    42  H    0.091660
    43  H    0.091885
    44  H    0.063849
    45  H    0.092932
    46  H    0.091515
    47  H    0.075556
    48  H    0.098059
    49  H    0.110781
    50  H    0.109650
    51  H    0.106742
    52  H    0.102063
    53  H    0.106373
    54  H    0.072097
    55  H    0.085802
    56  H    0.107955
    57  H    0.106597
    58  H    0.080545
    59  H    0.073168
    60  H    0.094880
    61  H    0.120211
    62  H    0.103764
    63  H    0.075695
    64  H    0.105725
    65  H    0.087038
    66  H    0.070734
    67  H    0.107889
    68  H    0.104191
    69  H    0.086440
    70  H    0.102135
    71  H    0.109992
    72  H    0.106614
    73  H    0.083099
    74  H    0.073067
    75  H    0.109795
    76  H    0.099879
    77  H    0.131453
    78  H    0.131490
    79  H    0.118041
    80  H    0.090431
    81  H    0.072240
    82  H    0.082690
    83  H    0.087591
    84  H    0.082494
    85  H    0.079024
    86  H    0.067992
    87  H    0.104354
    88  H    0.120484
    89  H    0.122982
    90  H    0.129463
    91  H    0.115429
    92  H    0.094562
    93  H    0.078429
    94  H    0.061900
    95  H    0.075353
    96  H    0.087683
 Sum of Mulliken charges =  -0.00000

 Dipole moment (field-independent basis, Debye):
    X=             -0.0313    Y=             -0.4904    Z=              0.3022  Tot=              0.5769
 Quadrupole moment (field-independent basis, Debye-Ang):
   XX=           -228.3709   YY=           -232.0642   ZZ=           -255.4362
   XY=             -1.3086   XZ=             -2.9156   YZ=             -1.2487

 Normal termination of Gaussian 16 at Tue Jul 30 04:17:24 2019.
