 Gaussian 16, Revision A.03,
 Gaussian 16:  ES64L-G16RevA.03 25-Dec-2016

 ---------------------------------
 # td=(NStates=1) B3LYP/6-31G(d,p)
 ---------------------------------

 --
 TD
 --
 Symbolic Z-matrix:
 Charge =  0 Multiplicity = 1

                         Standard orientation:
 ---------------------------------------------------------------------
 Center     Atomic      Atomic             Coordinates (Angstroms)
 Number     Number       Type             X           Y           Z
 ---------------------------------------------------------------------
      1          6           0       12.220882    0.573613   -0.496111
      2          6           0      -12.149943   -0.100974    0.897023
      3          6           0       13.489376   -0.285446   -0.301040
      4          6           0      -12.918588    1.046897    1.489363
      5          6           0       13.274879   -1.861826   -0.507566
      6          6           0      -13.447006    1.899719    0.315511
      7          6           0       11.094497   -0.014164    0.338475
      8          6           0      -11.035057    0.467255   -0.013728
      9          6           0       12.351002   -2.191712    0.631214
     10          6           0      -12.163748    2.607939   -0.317514
     11          6           0       11.148290   -1.210021    0.832249
     12          6           0      -11.024851    1.661631   -0.632486
     13          6           0       11.746024    0.527050   -1.909139
     14          6           0       12.580208    2.009498   -0.100895
     15          6           0      -13.012932   -1.138045    0.083120
     16          6           0      -11.499532   -0.976375    2.047916
     17          6           0        9.854262    0.909569    0.450442
     18          6           0       -9.939742   -0.510410   -0.156660
     19          6           0       10.126769   -1.941124    1.689875
     20          6           0      -10.101076    2.106678   -1.626064
     21          6           0        8.574328    0.448447    0.305044
     22          6           0       -8.625120   -0.252412   -0.057897
     23          6           0        7.397427    1.276581    0.456455
     24          6           0       -7.525209   -1.285847   -0.308178
     25          6           0        7.549796    2.808609    0.678514
     26          6           0       -7.909940   -2.698916   -0.588817
     27          6           0        6.119882    0.672127    0.297134
     28          6           0       -6.262231   -0.800796   -0.255157
     29          6           0        4.939100    1.359347    0.240728
     30          6           0       -5.033694   -1.473742   -0.558986
     31          6           0        3.751892    0.702029    0.083759
     32          6           0       -3.845991   -0.972007   -0.501414
     33          6           0        2.462391    1.337852    0.079200
     34          6           0       -2.549571   -1.696352   -0.581402
     35          6           0        2.341057    2.844888    0.223338
     36          6           0       -2.629148   -3.208818   -0.712454
     37          6           0        1.295019    0.518219   -0.090418
     38          6           0       -1.329346   -0.938266   -0.501107
     39          6           0        1.135699   -0.830348   -0.254477
     40          6           0        0.038674   -1.557369   -0.499064
     41          1           0       13.980885   -0.019687    0.773311
     42          1           0       14.278437    0.187730   -1.294365
     43          1           0      -12.412100    1.651876    2.232896
     44          1           0      -13.816182    0.591248    1.974342
     45          1           0       14.092810   -2.358249   -0.371823
     46          1           0       12.678894   -1.890628   -1.306513
     47          1           0      -14.285612    2.781923    0.719631
     48          1           0      -13.885800    1.219093   -0.616630
     49          1           0       12.870765   -2.268911    1.585294
     50          1           0       11.813283   -3.220932    0.263066
     51          1           0      -11.918918    3.445325    0.290038
     52          1           0      -12.665792    3.055893   -1.382731
     53          1           0       11.637700   -0.540133   -2.344551
     54          1           0       12.509362    1.045496   -2.621936
     55          1           0       10.619262    1.089304   -2.154577
     56          1           0       12.475419    2.061942    0.930867
     57          1           0       11.889870    2.880901   -0.348778
     58          1           0       13.727832    2.157282   -0.493894
     59          1           0      -13.411629   -0.603184   -0.964281
     60          1           0      -13.919512   -1.462113    0.671045
     61          1           0      -12.464060   -2.101833   -0.108400
     62          1           0      -11.050433   -0.276037    2.626903
     63          1           0      -10.693343   -1.732775    1.598043
     64          1           0      -12.164160   -1.498561    2.629296
     65          1           0       10.020916    1.866515    0.724373
     66          1           0      -10.351814   -1.418010   -0.686774
     67          1           0        9.513957   -1.121518    2.179354
     68          1           0       10.285771   -2.337080    2.734014
     69          1           0        9.525761   -2.665992    1.337575
     70          1           0       -9.448964    1.235078   -1.942824
     71          1           0       -9.480670    3.098354   -1.505632
     72          1           0      -10.791643    2.420525   -2.629156
     73          1           0        8.379272   -0.719606    0.059143
     74          1           0       -8.396964    0.724207    0.233550
     75          1           0        7.641458    2.957144    1.872908
     76          1           0        6.461643    3.300110    0.467917
     77          1           0        8.407944    3.256183   -0.187688
     78          1           0       -8.586087   -2.880227   -1.428177
     79          1           0       -8.890768   -3.061441    0.175180
     80          1           0       -7.059266   -3.389321   -0.629195
     81          1           0        6.225647   -0.432360    0.215111
     82          1           0       -6.106892    0.371103    0.127570
     83          1           0        4.771504    2.417772    0.167755
     84          1           0       -5.226827   -2.722288   -0.745344
     85          1           0        3.643596   -0.464661   -0.247484
     86          1           0       -3.579803    0.002268   -0.000666
     87          1           0        2.732775    3.165175    1.147343
     88          1           0        1.340983    3.079181    0.121478
     89          1           0        2.877221    3.387105   -0.618116
     90          1           0       -2.930775   -3.402229   -1.650394
     91          1           0       -3.144056   -3.763114    0.048431
     92          1           0       -1.626819   -3.574032   -0.729315
     93          1           0        0.322609    1.071228   -0.223683
     94          1           0       -1.503033    0.246530   -0.598951
     95          1           0        1.977069   -1.369598   -0.457420
     96          1           0        0.176888   -2.469856   -0.629840
 ---------------------------------------------------------------------

 SCF Done:  E(RB3LYP) =  -1557.46347037     A.U. after   15 cycles

 Excitation energies and oscillator strengths:

 Excited State   1:      Singlet-A      2.2176 eV  559.10 nm  f=3.0310  <S**2>=0.000
     148 ->149         0.70333
     148 <-149        -0.11675
 This state for optimization and/or second-order correction.
 Total Energy, E(TD-HF/TD-DFT) =  -1557.38197684
 Copying the excited state density for this state as the 1-particle RhoCI density.

 The electronic state is 1-A.
 Alpha  occ. eigenvalues --  -10.22552 -10.21171 -10.20884 -10.20826 -10.20820
 Alpha  occ. eigenvalues --  -10.20729 -10.20563 -10.20458 -10.20347 -10.20238
 Alpha  occ. eigenvalues --  -10.20042 -10.19968 -10.19848 -10.19697 -10.19558
 Alpha  occ. eigenvalues --  -10.19498 -10.19435 -10.19392 -10.19067 -10.18954
 Alpha  occ. eigenvalues --  -10.18875 -10.18799 -10.18750 -10.18667 -10.18618
 Alpha  occ. eigenvalues --  -10.18585 -10.18445 -10.18385 -10.18356 -10.18297
 Alpha  occ. eigenvalues --  -10.18292 -10.18280 -10.18115 -10.17944 -10.17899
 Alpha  occ. eigenvalues --  -10.17199 -10.16964 -10.16854 -10.16330 -10.16132
 Alpha  occ. eigenvalues --   -0.85437  -0.85188  -0.83608  -0.82859  -0.81945
 Alpha  occ. eigenvalues --   -0.80738  -0.79481  -0.78636  -0.78441  -0.77449
 Alpha  occ. eigenvalues --   -0.76757  -0.75293  -0.74563  -0.71934  -0.71402
 Alpha  occ. eigenvalues --   -0.70606  -0.68812  -0.68335  -0.67788  -0.67334
 Alpha  occ. eigenvalues --   -0.67232  -0.66854  -0.66498  -0.66245  -0.64664
 Alpha  occ. eigenvalues --   -0.63204  -0.61296  -0.59834  -0.58406  -0.57320
 Alpha  occ. eigenvalues --   -0.56374  -0.55725  -0.54943  -0.53839  -0.52485
 Alpha  occ. eigenvalues --   -0.51711  -0.51032  -0.50193  -0.50002  -0.49373
 Alpha  occ. eigenvalues --   -0.48323  -0.47586  -0.47501  -0.46468  -0.46198
 Alpha  occ. eigenvalues --   -0.45356  -0.44858  -0.44579  -0.44054  -0.43690
 Alpha  occ. eigenvalues --   -0.43617  -0.43222  -0.42824  -0.42672  -0.42416
 Alpha  occ. eigenvalues --   -0.42102  -0.41607  -0.41584  -0.41145  -0.40903
 Alpha  occ. eigenvalues --   -0.40478  -0.40353  -0.40308  -0.39647  -0.39173
 Alpha  occ. eigenvalues --   -0.39108  -0.38477  -0.38382  -0.38261  -0.38251
 Alpha  occ. eigenvalues --   -0.37691  -0.37422  -0.37058  -0.37052  -0.36926
 Alpha  occ. eigenvalues --   -0.36301  -0.35962  -0.35622  -0.35315  -0.34826
 Alpha  occ. eigenvalues --   -0.34632  -0.34255  -0.34034  -0.33793  -0.33695
 Alpha  occ. eigenvalues --   -0.33347  -0.33221  -0.32796  -0.32704  -0.32571
 Alpha  occ. eigenvalues --   -0.32541  -0.31442  -0.31257  -0.30956  -0.30633
 Alpha  occ. eigenvalues --   -0.30375  -0.29229  -0.29017  -0.28577  -0.28085
 Alpha  occ. eigenvalues --   -0.27617  -0.27180  -0.26032  -0.24367  -0.23124
 Alpha  occ. eigenvalues --   -0.21731  -0.19391  -0.16397
 Alpha virt. eigenvalues --   -0.08311  -0.04896  -0.01472   0.00931   0.02414
 Alpha virt. eigenvalues --    0.03805   0.04683   0.05602   0.05737   0.06103
 Alpha virt. eigenvalues --    0.06145   0.06332   0.07171   0.08136   0.08765

 Mulliken charges:
               1
     1  C    0.014792
     2  C   -0.009016
     3  C   -0.165320
     4  C   -0.160586
     5  C   -0.142088
     6  C   -0.172576
     7  C    0.085656
     8  C    0.059710
     9  C   -0.221297
    10  C   -0.213834
    11  C    0.040918
    12  C    0.128494
    13  C   -0.266182
    14  C   -0.304213
    15  C   -0.285521
    16  C   -0.300319
    17  C   -0.137639
    18  C   -0.158721
    19  C   -0.381877
    20  C   -0.365384
    21  C   -0.078259
    22  C   -0.087586
    23  C    0.101919
    24  C    0.143018
    25  C   -0.350100
    26  C   -0.373713
    27  C   -0.104004
    28  C   -0.120761
    29  C   -0.087774
    30  C   -0.068146
    31  C   -0.096810
    32  C   -0.108470
    33  C    0.090526
    34  C    0.082000
    35  C   -0.377428
    36  C   -0.371810
    37  C   -0.127559
    38  C   -0.137745
    39  C   -0.058317
    40  C   -0.057516
    41  H    0.076652
    42  H    0.018793
    43  H    0.101195
    44  H    0.081649
    45  H    0.100485
    46  H    0.112168
    47  H    0.051868
    48  H    0.082554
    49  H    0.108801
    50  H    0.068845
    51  H    0.112151
    52  H    0.054334
    53  H    0.091015
    54  H    0.084903
    55  H    0.075380
    56  H    0.113125
    57  H    0.094148
    58  H    0.088708
    59  H    0.073650
    60  H    0.100057
    61  H    0.101405
    62  H    0.108877
    63  H    0.093030
    64  H    0.102518
    65  H    0.086954
    66  H    0.088148
    67  H    0.103209
    68  H    0.096856
    69  H    0.125805
    70  H    0.118091
    71  H    0.103894
    72  H    0.072711
    73  H    0.078014
    74  H    0.087176
    75  H    0.119408
    76  H    0.093671
    77  H    0.096229
    78  H    0.132748
    79  H    0.078882
    80  H    0.113650
    81  H    0.082535
    82  H    0.064854
    83  H    0.092213
    84  H    0.056747
    85  H    0.066952
    86  H    0.083447
    87  H    0.132908
    88  H    0.118462
    89  H    0.112579
    90  H    0.139382
    91  H    0.124540
    92  H    0.105151
    93  H    0.061654
    94  H    0.083954
    95  H    0.067319
    96  H    0.059089
 Sum of Mulliken charges =  -0.00000

 Dipole moment (field-independent basis, Debye):
    X=             -0.0763    Y=             -0.5734    Z=              0.5211  Tot=              0.7786
 Quadrupole moment (field-independent basis, Debye-Ang):
   XX=           -248.8116   YY=           -234.6408   ZZ=           -255.7644
   XY=              3.6970   XZ=              1.1483   YZ=              4.8561

 Normal termination of Gaussian 16 at Wed Jul 31 08:38:46 2019.
