 Gaussian 16, Revision A.03,
 Gaussian 16:  ES64L-G16RevA.03 25-Dec-2016

 ---------------------------------
 # td=(NStates=1) B3LYP/6-31G(d,p)
 ---------------------------------

 --
 TD
 --
 Symbolic Z-matrix:
 Charge =  0 Multiplicity = 1

                         Standard orientation:
 ---------------------------------------------------------------------
 Center     Atomic      Atomic             Coordinates (Angstroms)
 Number     Number       Type             X           Y           Z
 ---------------------------------------------------------------------
      1          6           0      -12.167090    0.508354    0.802824
      2          6           0       12.267590   -0.160805   -0.787153
      3          6           0      -13.581086   -0.419061    0.627404
      4          6           0       13.134657    1.074644   -1.167237
      5          6           0      -13.213544   -1.896667    0.668703
      6          6           0       13.505436    1.942965   -0.004450
      7          6           0      -11.049124   -0.016241   -0.121507
      8          6           0       11.032291    0.275675    0.129788
      9          6           0      -12.293140   -2.134744   -0.599898
     10          6           0       12.242551    2.435588    0.702491
     11          6           0      -11.109213   -1.163666   -0.743786
     12          6           0       11.102349    1.531380    0.869304
     13          6           0      -11.753651    0.375921    2.271387
     14          6           0      -12.684281    1.939919    0.560626
     15          6           0       13.062699   -1.197351   -0.088744
     16          6           0       11.595534   -0.701580   -2.052310
     17          6           0       -9.912863    0.790993   -0.204709
     18          6           0        9.895583   -0.534186    0.241622
     19          6           0      -10.201020   -1.621940   -1.805037
     20          6           0       10.022638    1.848351    1.842233
     21          6           0       -8.665511    0.416947   -0.330219
     22          6           0        8.646288   -0.241804    0.275097
     23          6           0       -7.408599    1.240724   -0.403985
     24          6           0        7.498222   -1.147049    0.402877
     25          6           0       -7.698540    2.723130   -0.679788
     26          6           0        7.825754   -2.619555    0.634205
     27          6           0       -6.177544    0.839742   -0.435369
     28          6           0        6.198033   -0.717438    0.255264
     29          6           0       -4.806395    1.448947   -0.504817
     30          6           0        4.992045   -1.503717    0.407817
     31          6           0       -3.716890    0.736361   -0.420088
     32          6           0        3.808116   -0.934051    0.290344
     33          6           0       -2.400463    1.425298   -0.498338
     34          6           0        2.626512   -1.717054    0.299621
     35          6           0       -2.365666    2.856525   -0.912763
     36          6           0        2.585280   -3.283251    0.476525
     37          6           0       -1.264543    0.643483   -0.304345
     38          6           0        1.398453   -1.091737    0.084480
     39          6           0       -1.185904   -0.755288    0.070622
     40          6           0        0.061258   -1.409668    0.134368
     41          1           0      -14.143060   -0.197508   -0.400974
     42          1           0      -14.311707   -0.252087    1.420242
     43          1           0       12.516688    1.745363   -1.803636
     44          1           0       14.130648    0.735055   -1.578334
     45          1           0      -14.059287   -2.525098    0.790784
     46          1           0      -12.506161   -1.904267    1.498344
     47          1           0       14.056741    2.928475   -0.293195
     48          1           0       14.259487    1.301410    0.456166
     49          1           0      -12.807295   -2.144425   -1.608124
     50          1           0      -11.938107   -3.217969   -0.585881
     51          1           0       11.892196    3.342289    0.266882
     52          1           0       12.538020    2.615064    1.736445
     53          1           0      -11.512770   -0.562558    2.476380
     54          1           0      -12.490718    0.776534    3.009913
     55          1           0      -10.738672    0.721753    2.377352
     56          1           0      -13.132900    2.041925   -0.408650
     57          1           0      -11.689447    2.547732    0.698442
     58          1           0      -13.521245    2.345781    1.039441
     59          1           0       13.632830   -0.828455    0.983379
     60          1           0       13.686140   -1.473068   -0.800432
     61          1           0       12.372066   -2.010022    0.355186
     62          1           0       11.033457    0.053142   -2.423103
     63          1           0       11.011168   -1.554039   -2.169364
     64          1           0       12.334785   -0.972210   -2.831503
     65          1           0      -10.204684    1.918903   -0.316959
     66          1           0       10.060160   -1.527003    0.351939
     67          1           0       -9.381392   -0.877873   -2.301120
     68          1           0      -10.639521   -2.109300   -2.632513
     69          1           0       -9.424882   -2.253955   -1.175751
     70          1           0        9.573817    1.186190    2.165235
     71          1           0        9.249389    2.674887    1.492795
     72          1           0       10.432816    2.416893    2.752482
     73          1           0       -8.360451   -0.589034   -0.150939
     74          1           0        8.194870    0.832102    0.156733
     75          1           0       -8.353173    2.730665   -1.630142
     76          1           0       -6.819231    3.262876   -0.789513
     77          1           0       -8.434653    3.083809    0.203329
     78          1           0        8.538452   -2.651011    1.588656
     79          1           0        8.457091   -2.955446   -0.232801
     80          1           0        7.022741   -3.301558    0.697665
     81          1           0       -6.051260   -0.328923   -0.336627
     82          1           0        6.165163    0.307165   -0.021843
     83          1           0       -4.790863    2.443969   -0.687819
     84          1           0        5.308536   -2.632763    0.364615
     85          1           0       -3.717538   -0.222823   -0.212081
     86          1           0        3.838579    0.204357    0.408598
     87          1           0       -3.122741    3.031508   -1.816126
     88          1           0       -1.226083    3.237040   -1.340993
     89          1           0       -2.637789    3.405303   -0.089987
     90          1           0        3.001801   -3.486133    1.539054
     91          1           0        3.161472   -3.671226   -0.400778
     92          1           0        1.478835   -3.775911    0.398693
     93          1           0       -0.376552    1.245220   -0.463437
     94          1           0        1.497496    0.013223   -0.108859
     95          1           0       -1.932011   -1.396606    0.191492
     96          1           0       -0.198607   -2.455889    0.292870
 ---------------------------------------------------------------------

 SCF Done:  E(RB3LYP) =  -1557.53375139     A.U. after   15 cycles

 Excitation energies and oscillator strengths:

 Excited State   1:      Singlet-A      2.3270 eV  532.81 nm  f=2.9669  <S**2>=0.000
     146 ->149        -0.10583
     148 ->149         0.69845
     148 <-149        -0.10159
 This state for optimization and/or second-order correction.
 Total Energy, E(TD-HF/TD-DFT) =  -1557.44823615
 Copying the excited state density for this state as the 1-particle RhoCI density.

 The electronic state is 1-A.
 Alpha  occ. eigenvalues --  -10.20756 -10.20737 -10.20486 -10.20295 -10.20150
 Alpha  occ. eigenvalues --  -10.19837 -10.19730 -10.19496 -10.19435 -10.19231
 Alpha  occ. eigenvalues --  -10.19060 -10.18991 -10.18923 -10.18818 -10.18785
 Alpha  occ. eigenvalues --  -10.18748 -10.18667 -10.18545 -10.18540 -10.18472
 Alpha  occ. eigenvalues --  -10.18371 -10.18369 -10.18346 -10.18303 -10.18254
 Alpha  occ. eigenvalues --  -10.18214 -10.18189 -10.18171 -10.18102 -10.17997
 Alpha  occ. eigenvalues --  -10.17972 -10.17790 -10.17441 -10.17381 -10.17380
 Alpha  occ. eigenvalues --  -10.17011 -10.16645 -10.16586 -10.15761 -10.15722
 Alpha  occ. eigenvalues --   -0.85369  -0.85303  -0.83605  -0.83272  -0.82030
 Alpha  occ. eigenvalues --   -0.81263  -0.79622  -0.79344  -0.78401  -0.77923
 Alpha  occ. eigenvalues --   -0.77252  -0.75523  -0.74451  -0.73109  -0.72508
 Alpha  occ. eigenvalues --   -0.69714  -0.69520  -0.69101  -0.69077  -0.68318
 Alpha  occ. eigenvalues --   -0.68136  -0.67280  -0.67195  -0.66198  -0.65497
 Alpha  occ. eigenvalues --   -0.62951  -0.61644  -0.60302  -0.58879  -0.57623
 Alpha  occ. eigenvalues --   -0.57037  -0.56067  -0.55432  -0.54084  -0.53314
 Alpha  occ. eigenvalues --   -0.52242  -0.51710  -0.50755  -0.49816  -0.49252
 Alpha  occ. eigenvalues --   -0.48540  -0.47473  -0.47204  -0.47001  -0.46540
 Alpha  occ. eigenvalues --   -0.45751  -0.45671  -0.45246  -0.44845  -0.44461
 Alpha  occ. eigenvalues --   -0.43864  -0.43649  -0.42749  -0.42702  -0.42610
 Alpha  occ. eigenvalues --   -0.42509  -0.42271  -0.42150  -0.41821  -0.41160
 Alpha  occ. eigenvalues --   -0.41052  -0.40627  -0.39999  -0.39881  -0.39812
 Alpha  occ. eigenvalues --   -0.39661  -0.39532  -0.38845  -0.38591  -0.38531
 Alpha  occ. eigenvalues --   -0.38360  -0.38151  -0.37384  -0.37280  -0.36735
 Alpha  occ. eigenvalues --   -0.36443  -0.35990  -0.35606  -0.35182  -0.35096
 Alpha  occ. eigenvalues --   -0.34953  -0.34242  -0.33734  -0.33518  -0.33496
 Alpha  occ. eigenvalues --   -0.33264  -0.33178  -0.33043  -0.32613  -0.32536
 Alpha  occ. eigenvalues --   -0.32076  -0.31581  -0.31233  -0.30898  -0.30573
 Alpha  occ. eigenvalues --   -0.30431  -0.30228  -0.29713  -0.29569  -0.28843
 Alpha  occ. eigenvalues --   -0.28135  -0.26908  -0.26763  -0.24605  -0.22807
 Alpha  occ. eigenvalues --   -0.20635  -0.19292  -0.16557
 Alpha virt. eigenvalues --   -0.07887  -0.04106  -0.02045   0.00815   0.02695
 Alpha virt. eigenvalues --    0.05257   0.06912   0.07140   0.07526   0.07864
 Alpha virt. eigenvalues --    0.08086   0.08876   0.08954   0.09083   0.09662

 Mulliken charges:
               1
     1  C   -0.026908
     2  C    0.007619
     3  C   -0.171141
     4  C   -0.175730
     5  C   -0.190421
     6  C   -0.180953
     7  C    0.105957
     8  C    0.037469
     9  C   -0.225983
    10  C   -0.226349
    11  C    0.059838
    12  C    0.059246
    13  C   -0.292333
    14  C   -0.294742
    15  C   -0.270928
    16  C   -0.310970
    17  C   -0.112881
    18  C   -0.125814
    19  C   -0.355369
    20  C   -0.312518
    21  C   -0.097666
    22  C   -0.072936
    23  C    0.121478
    24  C    0.115370
    25  C   -0.360176
    26  C   -0.376913
    27  C   -0.156503
    28  C   -0.136603
    29  C   -0.058504
    30  C   -0.064735
    31  C   -0.045210
    32  C   -0.109870
    33  C    0.085514
    34  C    0.103541
    35  C   -0.363470
    36  C   -0.357860
    37  C   -0.123775
    38  C   -0.105160
    39  C   -0.064440
    40  C   -0.101412
    41  H    0.063717
    42  H    0.081885
    43  H    0.089491
    44  H    0.080218
    45  H    0.092530
    46  H    0.106121
    47  H    0.079018
    48  H    0.099491
    49  H    0.096807
    50  H    0.088395
    51  H    0.116459
    52  H    0.105811
    53  H    0.108634
    54  H    0.099173
    55  H    0.100139
    56  H    0.099450
    57  H    0.079064
    58  H    0.109570
    59  H    0.066746
    60  H    0.111194
    61  H    0.094985
    62  H    0.119114
    63  H    0.108305
    64  H    0.080143
    65  H    0.078982
    66  H    0.072686
    67  H    0.103275
    68  H    0.112238
    69  H    0.105724
    70  H    0.119478
    71  H    0.085827
    72  H    0.077812
    73  H    0.071218
    74  H    0.062750
    75  H    0.112445
    76  H    0.105345
    77  H    0.094092
    78  H    0.102922
    79  H    0.118868
    80  H    0.109303
    81  H    0.038787
    82  H    0.065353
    83  H    0.068530
    84  H    0.080149
    85  H    0.069872
    86  H    0.098442
    87  H    0.108504
    88  H    0.078334
    89  H    0.144220
    90  H    0.117822
    91  H    0.125788
    92  H    0.102125
    93  H    0.075676
    94  H    0.057187
    95  H    0.080649
    96  H    0.051384
 Sum of Mulliken charges =  -0.00000

 Dipole moment (field-independent basis, Debye):
    X=              1.3989    Y=             -0.4714    Z=             -0.1571  Tot=              1.4846
 Quadrupole moment (field-independent basis, Debye-Ang):
   XX=           -217.0325   YY=           -237.1418   ZZ=           -253.7098
   XY=              4.7136   XZ=             -0.7440   YZ=             -0.5241

 Normal termination of Gaussian 16 at Mon Jul 29 02:01:16 2019.
