 Gaussian 16, Revision A.03,
 Gaussian 16:  ES64L-G16RevA.03 25-Dec-2016

 ---------------------------------
 # td=(NStates=1) B3LYP/6-31G(d,p)
 ---------------------------------

 --
 TD
 --
 Symbolic Z-matrix:
 Charge =  0 Multiplicity = 1

                         Standard orientation:
 ---------------------------------------------------------------------
 Center     Atomic      Atomic             Coordinates (Angstroms)
 Number     Number       Type             X           Y           Z
 ---------------------------------------------------------------------
      1          6           0      -12.200897   -0.515314   -0.503215
      2          6           0       12.067873    0.060283    0.997899
      3          6           0      -13.467705    0.292650   -0.299142
      4          6           0       13.050014   -1.161050    1.436489
      5          6           0      -13.203758    1.827623   -0.391929
      6          6           0       13.448964   -2.018749    0.268561
      7          6           0      -11.031246   -0.035378    0.395840
      8          6           0       11.021980   -0.495348    0.076205
      9          6           0      -12.210126    2.110882    0.768922
     10          6           0       12.238266   -2.624983   -0.384787
     11          6           0      -11.022005    1.190899    1.027316
     12          6           0       11.040831   -1.664643   -0.532836
     13          6           0      -11.733608   -0.474031   -1.822846
     14          6           0      -12.595008   -2.042436   -0.259664
     15          6           0       12.919383    1.093471    0.224037
     16          6           0       11.408053    0.645143    2.269641
     17          6           0       -9.883662   -0.924762    0.345967
     18          6           0        9.861379    0.472724   -0.270064
     19          6           0      -10.101724    1.655331    2.083643
     20          6           0       10.009619   -2.154505   -1.564748
     21          6           0       -8.597223   -0.622056    0.255322
     22          6           0        8.567991    0.270674   -0.176695
     23          6           0       -7.341248   -1.441833    0.327636
     24          6           0        7.557646    1.295558   -0.422635
     25          6           0       -7.480298   -2.864182    0.463596
     26          6           0        7.901587    2.673357   -0.887281
     27          6           0       -6.112076   -0.775330    0.070873
     28          6           0        6.239604    0.953939   -0.414398
     29          6           0       -4.812755   -1.403418    0.142158
     30          6           0        5.004593    1.755128   -0.506188
     31          6           0       -3.569465   -0.608975    0.041989
     32          6           0        3.722038    1.208877   -0.368459
     33          6           0       -2.444719   -1.180328   -0.091748
     34          6           0        2.463858    2.006880   -0.462616
     35          6           0       -2.304238   -2.758377    0.143264
     36          6           0        2.499864    3.452201   -0.829617
     37          6           0       -1.241664   -0.550360   -0.154136
     38          6           0        1.395534    1.184372   -0.343599
     39          6           0       -1.187054    0.938847   -0.315191
     40          6           0        0.035665    1.732113   -0.372387
     41          1           0      -14.001832   -0.098601    0.495423
     42          1           0      -14.186849    0.126455   -1.138718
     43          1           0       12.398699   -1.992938    1.882251
     44          1           0       13.754516   -0.611585    2.136415
     45          1           0      -13.930537    2.300207   -0.314994
     46          1           0      -12.586364    1.940180   -1.270615
     47          1           0       14.316679   -2.837313    0.419495
     48          1           0       14.043060   -1.497821   -0.439621
     49          1           0      -12.932081    2.101287    1.667740
     50          1           0      -11.848934    3.096189    0.889010
     51          1           0       11.836794   -3.437483    0.222739
     52          1           0       12.471619   -3.153303   -1.310321
     53          1           0      -11.533906    0.815889   -2.159056
     54          1           0      -12.381500   -0.842339   -2.680713
     55          1           0      -10.817224   -1.050169   -1.823714
     56          1           0      -12.914138   -2.226932    0.727291
     57          1           0      -11.821416   -2.772826   -0.111170
     58          1           0      -13.366663   -2.406156   -0.921154
     59          1           0       13.473870    0.593455   -0.574594
     60          1           0       13.607142    1.459898    1.100291
     61          1           0       12.342825    1.967533   -0.001680
     62          1           0       10.978808   -0.088726    2.879783
     63          1           0       10.990977    1.672514    1.976347
     64          1           0       12.052143    1.077227    2.889444
     65          1           0      -10.126676   -1.974534    0.253686
     66          1           0       10.049155    1.371998   -0.345403
     67          1           0       -9.174573    0.861478    2.412158
     68          1           0      -10.727269    1.883648    3.040179
     69          1           0       -9.397676    2.539524    1.899241
     70          1           0        9.512236   -1.369528   -2.088738
     71          1           0        9.389524   -2.959139   -0.912263
     72          1           0       10.682307   -2.735122   -2.281681
     73          1           0       -8.431855    0.432485    0.072486
     74          1           0        8.142388   -0.918773   -0.209678
     75          1           0       -7.993292   -3.196383    1.423492
     76          1           0       -6.549509   -3.317885    0.455048
     77          1           0       -8.001999   -3.403552   -0.173832
     78          1           0        8.589882    2.498309   -1.757814
     79          1           0        8.433335    3.191538   -0.186690
     80          1           0        7.059025    3.365775   -1.173473
     81          1           0       -6.102943    0.194616   -0.151751
     82          1           0        6.049651   -0.032447   -0.034577
     83          1           0       -5.016671   -2.421037    0.116603
     84          1           0        4.951657    2.801469   -0.939380
     85          1           0       -3.766119    0.410285   -0.044678
     86          1           0        3.516708    0.061310   -0.099060
     87          1           0       -2.767143   -3.064643    0.929074
     88          1           0       -1.271029   -3.131711    0.039991
     89          1           0       -2.847849   -3.550931   -0.520440
     90          1           0        2.604159    3.890968   -1.890185
     91          1           0        3.198982    4.033899   -0.156985
     92          1           0        1.424546    3.894376   -0.419710
     93          1           0       -0.379182   -1.182779   -0.415781
     94          1           0        1.633084    0.205681   -0.035827
     95          1           0       -1.969924    1.795434   -0.473044
     96          1           0       -0.144191    2.661673   -0.661897
 ---------------------------------------------------------------------

 SCF Done:  E(RB3LYP) =  -1557.45074021     A.U. after   16 cycles

 Excitation energies and oscillator strengths:

 Excited State   1:      Singlet-A      2.0177 eV  614.50 nm  f=2.6202  <S**2>=0.000
     147 ->149        -0.14637
     148 ->149         0.69630
     148 <-149        -0.12687
 This state for optimization and/or second-order correction.
 Total Energy, E(TD-HF/TD-DFT) =  -1557.37659259
 Copying the excited state density for this state as the 1-particle RhoCI density.

 The electronic state is 1-A.
 Alpha  occ. eigenvalues --  -10.20744 -10.20638 -10.20619 -10.20277 -10.19958
 Alpha  occ. eigenvalues --  -10.19883 -10.19848 -10.19774 -10.19474 -10.19384
 Alpha  occ. eigenvalues --  -10.19326 -10.19298 -10.19101 -10.18901 -10.18809
 Alpha  occ. eigenvalues --  -10.18776 -10.18774 -10.18709 -10.18457 -10.18293
 Alpha  occ. eigenvalues --  -10.18268 -10.18257 -10.18129 -10.18095 -10.18059
 Alpha  occ. eigenvalues --  -10.18040 -10.18039 -10.17996 -10.17933 -10.17797
 Alpha  occ. eigenvalues --  -10.17703 -10.17561 -10.17553 -10.17493 -10.16932
 Alpha  occ. eigenvalues --  -10.16924 -10.16876 -10.16239 -10.16064 -10.16039
 Alpha  occ. eigenvalues --   -0.85837  -0.84820  -0.84176  -0.82642  -0.82205
 Alpha  occ. eigenvalues --   -0.81755  -0.79125  -0.78329  -0.78259  -0.77543
 Alpha  occ. eigenvalues --   -0.76336  -0.74955  -0.73892  -0.73242  -0.71942
 Alpha  occ. eigenvalues --   -0.69735  -0.69499  -0.69119  -0.68976  -0.68259
 Alpha  occ. eigenvalues --   -0.67696  -0.67281  -0.67040  -0.66610  -0.66351
 Alpha  occ. eigenvalues --   -0.63789  -0.61386  -0.60823  -0.59087  -0.57266
 Alpha  occ. eigenvalues --   -0.56850  -0.55929  -0.55354  -0.54623  -0.53650
 Alpha  occ. eigenvalues --   -0.51917  -0.51697  -0.51305  -0.49973  -0.49284
 Alpha  occ. eigenvalues --   -0.48667  -0.48164  -0.47836  -0.47444  -0.46641
 Alpha  occ. eigenvalues --   -0.45614  -0.45444  -0.45161  -0.44835  -0.44200
 Alpha  occ. eigenvalues --   -0.43958  -0.43229  -0.42926  -0.42475  -0.41997
 Alpha  occ. eigenvalues --   -0.41839  -0.41821  -0.41680  -0.41365  -0.41327
 Alpha  occ. eigenvalues --   -0.40778  -0.40692  -0.40435  -0.39901  -0.39015
 Alpha  occ. eigenvalues --   -0.38966  -0.38726  -0.38514  -0.38456  -0.38091
 Alpha  occ. eigenvalues --   -0.38023  -0.37614  -0.37342  -0.36959  -0.36868
 Alpha  occ. eigenvalues --   -0.36552  -0.35659  -0.35481  -0.35267  -0.35227
 Alpha  occ. eigenvalues --   -0.34665  -0.34502  -0.34280  -0.33996  -0.33738
 Alpha  occ. eigenvalues --   -0.33294  -0.33051  -0.32955  -0.32651  -0.32309
 Alpha  occ. eigenvalues --   -0.32080  -0.31866  -0.31271  -0.31142  -0.30768
 Alpha  occ. eigenvalues --   -0.30148  -0.30116  -0.29773  -0.28945  -0.28646
 Alpha  occ. eigenvalues --   -0.27829  -0.26710  -0.26495  -0.24105  -0.22420
 Alpha  occ. eigenvalues --   -0.21136  -0.18688  -0.15881
 Alpha virt. eigenvalues --   -0.08662  -0.04793  -0.01294   0.00288   0.03243
 Alpha virt. eigenvalues --    0.04189   0.06170   0.06923   0.07132   0.07435
 Alpha virt. eigenvalues --    0.07684   0.08213   0.08528   0.08923   0.09181

 Mulliken charges:
               1
     1  C   -0.011802
     2  C   -0.039832
     3  C   -0.177853
     4  C   -0.174910
     5  C   -0.129907
     6  C   -0.176040
     7  C    0.082876
     8  C    0.109400
     9  C   -0.239387
    10  C   -0.234333
    11  C    0.090339
    12  C    0.038261
    13  C   -0.232451
    14  C   -0.334583
    15  C   -0.293582
    16  C   -0.294867
    17  C   -0.132028
    18  C   -0.115812
    19  C   -0.368010
    20  C   -0.338906
    21  C   -0.095898
    22  C   -0.077702
    23  C    0.108620
    24  C    0.117470
    25  C   -0.384805
    26  C   -0.376493
    27  C   -0.111835
    28  C   -0.131390
    29  C   -0.081632
    30  C   -0.111459
    31  C   -0.123243
    32  C   -0.109980
    33  C    0.170148
    34  C    0.154406
    35  C   -0.365616
    36  C   -0.386759
    37  C   -0.151774
    38  C   -0.091763
    39  C   -0.105146
    40  C   -0.116783
    41  H    0.096671
    42  H    0.074740
    43  H    0.088325
    44  H    0.084965
    45  H    0.073185
    46  H    0.104036
    47  H    0.064401
    48  H    0.099148
    49  H    0.081869
    50  H    0.095965
    51  H    0.107230
    52  H    0.098143
    53  H    0.030596
    54  H    0.089438
    55  H    0.108379
    56  H    0.104614
    57  H    0.099902
    58  H    0.109167
    59  H    0.116614
    60  H    0.077529
    61  H    0.109295
    62  H    0.117292
    63  H    0.085967
    64  H    0.103704
    65  H    0.065678
    66  H    0.044067
    67  H    0.092747
    68  H    0.106265
    69  H    0.111571
    70  H    0.132089
    71  H    0.099813
    72  H    0.091124
    73  H    0.072177
    74  H    0.060209
    75  H    0.108946
    76  H    0.108680
    77  H    0.139574
    78  H    0.111151
    79  H    0.126748
    80  H    0.107668
    81  H    0.067526
    82  H    0.070826
    83  H    0.074916
    84  H    0.078546
    85  H    0.088671
    86  H    0.067926
    87  H    0.136782
    88  H    0.099210
    89  H    0.080961
    90  H    0.128681
    91  H    0.122180
    92  H    0.086076
    93  H    0.097003
    94  H    0.084680
    95  H    0.085631
    96  H    0.075771
 Sum of Mulliken charges =  -0.00000

 Dipole moment (field-independent basis, Debye):
    X=             -0.7213    Y=             -0.0246    Z=             -0.0897  Tot=              0.7273
 Quadrupole moment (field-independent basis, Debye-Ang):
   XX=           -207.0613   YY=           -228.9507   ZZ=           -255.9474
   XY=              6.3880   XZ=             -3.1052   YZ=             -1.2536

 Normal termination of Gaussian 16 at Sat Jul 27 21:36:51 2019.
