 Gaussian 16, Revision A.03,
 Gaussian 16:  ES64L-G16RevA.03 25-Dec-2016

 ---------------------------------
 # td=(NStates=1) B3LYP/6-31G(d,p)
 ---------------------------------

 --
 TD
 --
 Symbolic Z-matrix:
 Charge =  0 Multiplicity = 1

                         Standard orientation:
 ---------------------------------------------------------------------
 Center     Atomic      Atomic             Coordinates (Angstroms)
 Number     Number       Type             X           Y           Z
 ---------------------------------------------------------------------
      1          6           0       12.138257    0.548247   -0.819629
      2          6           0      -12.001521   -0.069399    0.815739
      3          6           0       13.388061   -0.388896   -0.697427
      4          6           0      -12.910151    1.078985    1.385414
      5          6           0       13.073323   -1.824345   -0.630127
      6          6           0      -13.309452    2.096186    0.248731
      7          6           0       10.993233    0.129115    0.102862
      8          6           0      -11.014372    0.424592   -0.199432
      9          6           0       12.310854   -2.095767    0.640600
     10          6           0      -12.038377    2.677867   -0.472105
     11          6           0       11.167228   -1.112733    0.897303
     12          6           0      -11.025316    1.618549   -0.743591
     13          6           0       11.536172    0.471949   -2.288360
     14          6           0       12.497737    1.981956   -0.513217
     15          6           0      -12.981775   -1.064710    0.073874
     16          6           0      -11.409059   -0.832453    2.050570
     17          6           0        9.787086    0.899446    0.460852
     18          6           0       -9.925891   -0.534681   -0.289955
     19          6           0       10.220794   -1.638886    1.962774
     20          6           0      -10.081645    2.056446   -1.925096
     21          6           0        8.530457    0.528483    0.383550
     22          6           0       -8.551206   -0.237786   -0.366908
     23          6           0        7.332741    1.320390    0.536021
     24          6           0       -7.441756   -1.239933   -0.453610
     25          6           0        7.638741    2.887190    0.736277
     26          6           0       -7.886742   -2.728140   -0.576715
     27          6           0        6.119893    0.736661    0.491398
     28          6           0       -6.195303   -0.863877   -0.401803
     29          6           0        4.902227    1.244097    0.540674
     30          6           0       -4.996990   -1.685684   -0.433917
     31          6           0        3.722323    0.714848    0.270936
     32          6           0       -3.749373   -1.101189   -0.334826
     33          6           0        2.315841    1.302929    0.301694
     34          6           0       -2.566104   -1.872772   -0.385832
     35          6           0        2.195164    2.804930    0.614704
     36          6           0       -2.521661   -3.419646   -0.488376
     37          6           0        1.178894    0.600941    0.047064
     38          6           0       -1.379065   -1.132185   -0.320846
     39          6           0        1.080040   -0.906577   -0.132745
     40          6           0       -0.089512   -1.606239   -0.246837
     41          1           0       13.883725    0.059647    0.123637
     42          1           0       14.015812   -0.088198   -1.339536
     43          1           0      -12.296224    1.493101    2.136623
     44          1           0      -13.793721    0.679595    2.012631
     45          1           0       14.055309   -2.524727   -0.559842
     46          1           0       12.447724   -2.176830   -1.505252
     47          1           0      -13.825243    2.948252    0.706902
     48          1           0      -14.027077    1.820808   -0.518908
     49          1           0       13.033012   -2.227542    1.350212
     50          1           0       11.707961   -3.173354    0.784729
     51          1           0      -11.445566    3.495792    0.075234
     52          1           0      -12.409404    3.056570   -1.371093
     53          1           0       11.440343   -0.580754   -2.489748
     54          1           0       12.219607    0.976780   -3.066859
     55          1           0       10.487579    0.872817   -2.533606
     56          1           0       12.775590    2.109733    0.444905
     57          1           0       11.764060    2.784352   -0.942505
     58          1           0       13.394247    2.000317   -1.066687
     59          1           0      -13.526781   -0.627905   -0.814264
     60          1           0      -13.752116   -1.357812    0.721153
     61          1           0      -12.443552   -1.937747   -0.111835
     62          1           0      -10.468768   -0.103270    2.457520
     63          1           0      -10.883172   -1.725636    1.801653
     64          1           0      -12.089310   -0.898723    2.916334
     65          1           0       10.049988    1.878510    0.609063
     66          1           0      -10.163501   -1.677587   -0.386366
     67          1           0        9.572641   -0.894483    2.237842
     68          1           0       10.836892   -1.968732    2.936503
     69          1           0        9.708132   -2.479986    1.735351
     70          1           0       -9.471882    1.358233   -2.325751
     71          1           0       -9.503536    2.879578   -1.554313
     72          1           0      -10.806574    2.407823   -2.686914
     73          1           0        8.398470   -0.461857    0.104512
     74          1           0       -8.299499    0.727743   -0.018625
     75          1           0        8.192869    2.943140    1.817173
     76          1           0        6.694470    3.450798    0.598786
     77          1           0        8.366216    3.064033    0.044718
     78          1           0       -8.638005   -2.687259   -1.417159
     79          1           0       -8.402467   -3.163743    0.293382
     80          1           0       -7.119515   -3.323873   -0.912229
     81          1           0        6.117914   -0.332534    0.274580
     82          1           0       -5.905311    0.071154   -0.219129
     83          1           0        5.197372    2.431771    0.798949
     84          1           0       -5.015778   -2.792550   -0.564058
     85          1           0        3.634471   -0.349744    0.261041
     86          1           0       -3.645648    0.076336   -0.273516
     87          1           0        2.408913    2.831387    1.700387
     88          1           0        1.280183    3.076852    0.685186
     89          1           0        2.899643    3.551753    0.089766
     90          1           0       -2.757203   -3.828940   -1.622174
     91          1           0       -3.340730   -3.580513    0.342430
     92          1           0       -1.499485   -3.720232   -0.322130
     93          1           0        0.306125    1.283556    0.064279
     94          1           0       -1.520662   -0.073423    0.062279
     95          1           0        1.811244   -1.485713   -0.160143
     96          1           0        0.027477   -2.694225   -0.443227
 ---------------------------------------------------------------------

 SCF Done:  E(RB3LYP) =  -1557.57603160     A.U. after   15 cycles

 Excitation energies and oscillator strengths:

 Excited State   1:      Singlet-A      2.3154 eV  535.47 nm  f=2.9048  <S**2>=0.000
     148 ->149         0.70096
 This state for optimization and/or second-order correction.
 Total Energy, E(TD-HF/TD-DFT) =  -1557.49094043
 Copying the excited state density for this state as the 1-particle RhoCI density.

 The electronic state is 1-A.
 Alpha  occ. eigenvalues --  -10.20695 -10.20606 -10.20349 -10.20057 -10.20000
 Alpha  occ. eigenvalues --  -10.19808 -10.19542 -10.19429 -10.19413 -10.19412
 Alpha  occ. eigenvalues --  -10.19403 -10.19354 -10.19313 -10.19303 -10.18977
 Alpha  occ. eigenvalues --  -10.18907 -10.18716 -10.18414 -10.18406 -10.18406
 Alpha  occ. eigenvalues --  -10.18384 -10.18367 -10.18239 -10.18224 -10.18123
 Alpha  occ. eigenvalues --  -10.18013 -10.18001 -10.17923 -10.17828 -10.17552
 Alpha  occ. eigenvalues --  -10.17488 -10.17366 -10.17248 -10.17170 -10.16945
 Alpha  occ. eigenvalues --  -10.16895 -10.16654 -10.16613 -10.16543 -10.15959
 Alpha  occ. eigenvalues --   -0.85096  -0.84772  -0.83768  -0.83315  -0.81882
 Alpha  occ. eigenvalues --   -0.81039  -0.79406  -0.78417  -0.78055  -0.77853
 Alpha  occ. eigenvalues --   -0.76478  -0.75677  -0.73876  -0.72566  -0.71205
 Alpha  occ. eigenvalues --   -0.69679  -0.68931  -0.68810  -0.68615  -0.68549
 Alpha  occ. eigenvalues --   -0.68063  -0.67547  -0.67134  -0.66690  -0.66565
 Alpha  occ. eigenvalues --   -0.63044  -0.62521  -0.60510  -0.59653  -0.57555
 Alpha  occ. eigenvalues --   -0.56437  -0.56012  -0.55724  -0.53600  -0.53370
 Alpha  occ. eigenvalues --   -0.52515  -0.51841  -0.50802  -0.49972  -0.49214
 Alpha  occ. eigenvalues --   -0.47839  -0.47604  -0.47222  -0.46707  -0.45721
 Alpha  occ. eigenvalues --   -0.45691  -0.45099  -0.44843  -0.44674  -0.44040
 Alpha  occ. eigenvalues --   -0.43994  -0.42773  -0.42458  -0.42393  -0.42259
 Alpha  occ. eigenvalues --   -0.41951  -0.41581  -0.41274  -0.41172  -0.41000
 Alpha  occ. eigenvalues --   -0.40707  -0.40175  -0.39901  -0.39773  -0.39684
 Alpha  occ. eigenvalues --   -0.39459  -0.39300  -0.38681  -0.38558  -0.38481
 Alpha  occ. eigenvalues --   -0.38156  -0.38037  -0.37907  -0.37686  -0.37234
 Alpha  occ. eigenvalues --   -0.36978  -0.36331  -0.36222  -0.35726  -0.35465
 Alpha  occ. eigenvalues --   -0.35305  -0.34545  -0.34375  -0.34191  -0.33883
 Alpha  occ. eigenvalues --   -0.33713  -0.33444  -0.33236  -0.33143  -0.32822
 Alpha  occ. eigenvalues --   -0.32498  -0.31959  -0.31550  -0.31312  -0.30958
 Alpha  occ. eigenvalues --   -0.30433  -0.29931  -0.29534  -0.29187  -0.28810
 Alpha  occ. eigenvalues --   -0.28393  -0.27780  -0.26320  -0.24370  -0.22115
 Alpha  occ. eigenvalues --   -0.20740  -0.18693  -0.16514
 Alpha virt. eigenvalues --   -0.07609  -0.05002  -0.01513   0.00690   0.02952
 Alpha virt. eigenvalues --    0.04871   0.06681   0.07018   0.07503   0.07739
 Alpha virt. eigenvalues --    0.07971   0.08163   0.08939   0.09123   0.09516

 Mulliken charges:
               1
     1  C   -0.024255
     2  C   -0.023955
     3  C   -0.148326
     4  C   -0.173513
     5  C   -0.196417
     6  C   -0.205182
     7  C    0.048021
     8  C    0.140419
     9  C   -0.191800
    10  C   -0.214882
    11  C    0.050134
    12  C    0.010803
    13  C   -0.302351
    14  C   -0.308589
    15  C   -0.292806
    16  C   -0.300210
    17  C   -0.142053
    18  C   -0.151307
    19  C   -0.357044
    20  C   -0.342035
    21  C   -0.057559
    22  C   -0.109248
    23  C    0.084327
    24  C    0.105765
    25  C   -0.360183
    26  C   -0.374558
    27  C   -0.096164
    28  C   -0.097625
    29  C   -0.015823
    30  C   -0.107078
    31  C   -0.158508
    32  C   -0.101613
    33  C    0.102612
    34  C    0.100050
    35  C   -0.353410
    36  C   -0.345111
    37  C   -0.142192
    38  C   -0.103443
    39  C   -0.040788
    40  C   -0.119038
    41  H    0.095515
    42  H    0.096759
    43  H    0.099694
    44  H    0.073830
    45  H    0.067466
    46  H    0.104425
    47  H    0.090177
    48  H    0.104675
    49  H    0.117955
    50  H    0.059740
    51  H    0.099650
    52  H    0.105559
    53  H    0.106065
    54  H    0.080238
    55  H    0.099506
    56  H    0.114585
    57  H    0.097593
    58  H    0.100921
    59  H    0.093535
    60  H    0.099215
    61  H    0.098985
    62  H    0.065868
    63  H    0.108004
    64  H    0.105070
    65  H    0.073131
    66  H    0.076245
    67  H    0.122400
    68  H    0.077024
    69  H    0.126785
    70  H    0.124510
    71  H    0.110143
    72  H    0.097206
    73  H    0.076214
    74  H    0.082438
    75  H    0.107185
    76  H    0.110151
    77  H    0.138230
    78  H    0.112947
    79  H    0.122164
    80  H    0.113177
    81  H    0.059893
    82  H    0.063453
    83  H    0.038653
    84  H    0.081930
    85  H    0.081474
    86  H    0.078797
    87  H    0.117417
    88  H    0.107968
    89  H    0.111033
    90  H    0.102988
    91  H    0.119334
    92  H    0.120295
    93  H    0.082046
    94  H    0.070888
    95  H    0.058160
    96  H    0.065621
 Sum of Mulliken charges =  -0.00000

 Dipole moment (field-independent basis, Debye):
    X=              0.7763    Y=              0.3012    Z=              0.2929  Tot=              0.8827
 Quadrupole moment (field-independent basis, Debye-Ang):
   XX=           -204.4000   YY=           -235.2574   ZZ=           -254.9293
   XY=             -1.1681   XZ=             -1.4508   YZ=              0.6148

 Normal termination of Gaussian 16 at Thu Aug  1 07:39:14 2019.
