 Gaussian 16, Revision A.03,
 Gaussian 16:  ES64L-G16RevA.03 25-Dec-2016

 ---------------------------------
 # td=(NStates=1) B3LYP/6-31G(d,p)
 ---------------------------------

 --
 TD
 --
 Symbolic Z-matrix:
 Charge =  0 Multiplicity = 1

                         Standard orientation:
 ---------------------------------------------------------------------
 Center     Atomic      Atomic             Coordinates (Angstroms)
 Number     Number       Type             X           Y           Z
 ---------------------------------------------------------------------
      1          6           0       12.210192    0.555398   -0.653035
      2          6           0      -12.095128   -0.043092    0.902825
      3          6           0       13.453660   -0.428742   -0.522129
      4          6           0      -12.986851    1.154164    1.403851
      5          6           0       13.044402   -1.791181   -0.478829
      6          6           0      -13.363463    2.036134    0.264978
      7          6           0       11.058185   -0.038411    0.235510
      8          6           0      -11.053766    0.342436   -0.044089
      9          6           0       12.276850   -2.173290    0.752341
     10          6           0      -12.125705    2.625433   -0.527706
     11          6           0       11.174399   -1.200163    0.980391
     12          6           0      -11.113860    1.557334   -0.696788
     13          6           0       11.633434    0.542973   -2.041967
     14          6           0       12.704568    1.991860   -0.260164
     15          6           0      -13.132734   -1.131427    0.299744
     16          6           0      -11.392457   -0.658157    2.169480
     17          6           0        9.989279    0.961195    0.468855
     18          6           0      -10.050794   -0.592774   -0.163107
     19          6           0       10.159720   -1.631133    1.987920
     20          6           0       -9.953775    2.027625   -1.749620
     21          6           0        8.663711    0.618168    0.321706
     22          6           0       -8.674562   -0.253907   -0.306737
     23          6           0        7.423979    1.493962    0.325140
     24          6           0       -7.549999   -1.254218   -0.463524
     25          6           0        7.435521    2.933335    0.606077
     26          6           0       -7.920842   -2.702418   -0.595592
     27          6           0        6.245734    0.784407    0.261800
     28          6           0       -6.234889   -0.846091   -0.425277
     29          6           0        4.947626    1.307051    0.266693
     30          6           0       -5.029599   -1.595784   -0.519257
     31          6           0        3.756762    0.701958    0.031934
     32          6           0       -3.761628   -0.987620   -0.531208
     33          6           0        2.440686    1.208160    0.216060
     34          6           0       -2.475344   -1.764809   -0.608701
     35          6           0        2.167043    2.614664    0.526364
     36          6           0       -2.667987   -3.328002   -0.622448
     37          6           0        1.298227    0.431451    0.013035
     38          6           0       -1.275809   -1.055415   -0.496902
     39          6           0        1.139293   -0.998036   -0.213204
     40          6           0        0.029995   -1.531739   -0.423918
     41          1           0       13.821311   -0.432470    0.466046
     42          1           0       14.119959   -0.290528   -1.248956
     43          1           0      -12.234745    1.533719    2.356375
     44          1           0      -13.784392    0.728620    1.932637
     45          1           0       14.068595   -2.566421   -0.413798
     46          1           0       12.598054   -2.113959   -1.348243
     47          1           0      -14.030288    2.854192    0.482443
     48          1           0      -13.920291    1.521990   -0.441698
     49          1           0       12.861235   -2.165363    1.754837
     50          1           0       11.930296   -3.341975    0.640769
     51          1           0      -11.902735    3.545952    0.042582
     52          1           0      -12.595049    2.998859   -1.451889
     53          1           0       11.318876   -0.635720   -2.294869
     54          1           0       12.539070    0.732435   -2.588742
     55          1           0       10.856085    1.235525   -2.210981
     56          1           0       12.897933    2.171210    0.630824
     57          1           0       11.896177    2.863141   -0.449517
     58          1           0       13.408268    2.194316   -1.022783
     59          1           0      -13.920447   -0.477271   -0.404303
     60          1           0      -13.974437   -1.292498    1.082876
     61          1           0      -12.614144   -2.022143   -0.051032
     62          1           0      -10.570258    0.129115    2.576945
     63          1           0      -10.903279   -1.577868    1.803471
     64          1           0      -12.261951   -0.792121    2.978195
     65          1           0       10.415069    1.963593    0.475916
     66          1           0      -10.323511   -1.848650   -0.082711
     67          1           0        9.489012   -0.851325    2.530086
     68          1           0       10.563929   -2.139850    2.674903
     69          1           0        9.385857   -2.377340    1.553428
     70          1           0       -9.241971    1.127600   -1.948539
     71          1           0       -9.373160    3.064617   -1.555936
     72          1           0      -10.552334    2.156494   -2.660330
     73          1           0        8.201182   -0.421819    0.073126
     74          1           0       -8.306509    0.677663   -0.073958
     75          1           0        8.041888    3.014054    1.451177
     76          1           0        6.513246    3.368967    0.591440
     77          1           0        8.117764    3.289978   -0.200533
     78          1           0       -9.160908   -2.821040   -1.183860
     79          1           0       -8.107120   -3.006205    0.595414
     80          1           0       -7.010149   -3.150112   -0.985845
     81          1           0        6.293292   -0.315483    0.154763
     82          1           0       -6.137518    0.135828   -0.342548
     83          1           0        4.799446    2.286604    0.908229
     84          1           0       -5.016424   -2.676956   -0.597340
     85          1           0        3.894617   -0.472967   -0.400863
     86          1           0       -3.678977   -0.036204   -0.296541
     87          1           0        2.577104    2.860449    1.366101
     88          1           0        1.140840    2.846515    0.636147
     89          1           0        2.575600    3.409057   -0.286871
     90          1           0       -3.255793   -3.550582   -1.482875
     91          1           0       -3.238497   -3.749542    0.086737
     92          1           0       -1.623065   -3.623032   -0.636105
     93          1           0        0.365188    0.949011    0.040902
     94          1           0       -1.464016    0.000645   -0.446714
     95          1           0        2.006465   -1.579237   -0.208201
     96          1           0        0.141175   -2.619256   -0.712809
 ---------------------------------------------------------------------

 SCF Done:  E(RB3LYP) =  -1557.46525078     A.U. after   15 cycles

 Excitation energies and oscillator strengths:

 Excited State   1:      Singlet-A      2.1971 eV  564.31 nm  f=2.8801  <S**2>=0.000
     148 ->149         0.70518
 This state for optimization and/or second-order correction.
 Total Energy, E(TD-HF/TD-DFT) =  -1557.38450870
 Copying the excited state density for this state as the 1-particle RhoCI density.

 The electronic state is 1-A.
 Alpha  occ. eigenvalues --  -10.21444 -10.21107 -10.20711 -10.20237 -10.20174
 Alpha  occ. eigenvalues --  -10.20143 -10.19972 -10.19954 -10.19933 -10.19781
 Alpha  occ. eigenvalues --  -10.19701 -10.19575 -10.19530 -10.19495 -10.19140
 Alpha  occ. eigenvalues --  -10.19098 -10.19086 -10.18991 -10.18860 -10.18809
 Alpha  occ. eigenvalues --  -10.18719 -10.18647 -10.18575 -10.18525 -10.18300
 Alpha  occ. eigenvalues --  -10.18296 -10.18259 -10.18225 -10.18041 -10.17835
 Alpha  occ. eigenvalues --  -10.17793 -10.17732 -10.17484 -10.17251 -10.17171
 Alpha  occ. eigenvalues --  -10.17168 -10.17143 -10.17133 -10.16628 -10.16037
 Alpha  occ. eigenvalues --   -0.85605  -0.85543  -0.84039  -0.82975  -0.82351
 Alpha  occ. eigenvalues --   -0.81248  -0.79461  -0.78942  -0.78307  -0.78050
 Alpha  occ. eigenvalues --   -0.76988  -0.75581  -0.74412  -0.73069  -0.70945
 Alpha  occ. eigenvalues --   -0.70726  -0.69618  -0.69368  -0.68412  -0.68102
 Alpha  occ. eigenvalues --   -0.67387  -0.67009  -0.66437  -0.66377  -0.66095
 Alpha  occ. eigenvalues --   -0.62832  -0.62205  -0.60206  -0.58792  -0.57025
 Alpha  occ. eigenvalues --   -0.56752  -0.55950  -0.55650  -0.54886  -0.53039
 Alpha  occ. eigenvalues --   -0.51963  -0.51387  -0.50697  -0.50011  -0.49868
 Alpha  occ. eigenvalues --   -0.48629  -0.48304  -0.47414  -0.46811  -0.46732
 Alpha  occ. eigenvalues --   -0.46086  -0.45951  -0.45437  -0.45018  -0.44650
 Alpha  occ. eigenvalues --   -0.43666  -0.43164  -0.42440  -0.42166  -0.42034
 Alpha  occ. eigenvalues --   -0.41958  -0.41756  -0.41676  -0.41369  -0.41325
 Alpha  occ. eigenvalues --   -0.40874  -0.40567  -0.40428  -0.39855  -0.39805
 Alpha  occ. eigenvalues --   -0.39537  -0.39103  -0.38752  -0.38518  -0.38109
 Alpha  occ. eigenvalues --   -0.38094  -0.37945  -0.37774  -0.37634  -0.36803
 Alpha  occ. eigenvalues --   -0.36572  -0.36346  -0.35953  -0.35710  -0.35422
 Alpha  occ. eigenvalues --   -0.35275  -0.34948  -0.34649  -0.34376  -0.33890
 Alpha  occ. eigenvalues --   -0.33717  -0.33409  -0.33064  -0.32965  -0.32605
 Alpha  occ. eigenvalues --   -0.32180  -0.31384  -0.31347  -0.31039  -0.30778
 Alpha  occ. eigenvalues --   -0.29979  -0.29615  -0.29224  -0.28722  -0.28687
 Alpha  occ. eigenvalues --   -0.27342  -0.27035  -0.26267  -0.24313  -0.22293
 Alpha  occ. eigenvalues --   -0.20783  -0.18545  -0.16623
 Alpha virt. eigenvalues --   -0.08085  -0.05551  -0.02340   0.00010   0.01990
 Alpha virt. eigenvalues --    0.03770   0.05022   0.06313   0.06621   0.06914
 Alpha virt. eigenvalues --    0.07050   0.07363   0.08318   0.08429   0.08890

 Mulliken charges:
               1
     1  C   -0.044240
     2  C   -0.043223
     3  C   -0.144626
     4  C   -0.151865
     5  C   -0.173248
     6  C   -0.208624
     7  C    0.053607
     8  C    0.186651
     9  C   -0.221735
    10  C   -0.226180
    11  C    0.080828
    12  C    0.044943
    13  C   -0.270681
    14  C   -0.282842
    15  C   -0.295437
    16  C   -0.280003
    17  C   -0.163110
    18  C   -0.166031
    19  C   -0.343973
    20  C   -0.361416
    21  C   -0.072176
    22  C   -0.113248
    23  C    0.102672
    24  C    0.103535
    25  C   -0.358669
    26  C   -0.338275
    27  C   -0.127693
    28  C   -0.097815
    29  C   -0.094915
    30  C   -0.085359
    31  C   -0.106200
    32  C   -0.095120
    33  C    0.121356
    34  C    0.073915
    35  C   -0.367527
    36  C   -0.369580
    37  C   -0.143550
    38  C   -0.108657
    39  C   -0.051683
    40  C   -0.080421
    41  H    0.102675
    42  H    0.092310
    43  H    0.051738
    44  H    0.094627
    45  H    0.032812
    46  H    0.107387
    47  H    0.083948
    48  H    0.111297
    49  H    0.095115
    50  H    0.079442
    51  H    0.115570
    52  H    0.101776
    53  H    0.078003
    54  H    0.091696
    55  H    0.119653
    56  H    0.120069
    57  H    0.063676
    58  H    0.107820
    59  H    0.078650
    60  H    0.092621
    61  H    0.106757
    62  H    0.090073
    63  H    0.099977
    64  H    0.080524
    65  H    0.084045
    66  H    0.070452
    67  H    0.102328
    68  H    0.110913
    69  H    0.093580
    70  H    0.114448
    71  H    0.094320
    72  H    0.107302
    73  H    0.084291
    74  H    0.102279
    75  H    0.134429
    76  H    0.119377
    77  H    0.114124
    78  H    0.073835
    79  H    0.102278
    80  H    0.114892
    81  H    0.074699
    82  H    0.063662
    83  H    0.067576
    84  H    0.070569
    85  H    0.053437
    86  H    0.069054
    87  H    0.132392
    88  H    0.111950
    89  H    0.089559
    90  H    0.125308
    91  H    0.137156
    92  H    0.109263
    93  H    0.071308
    94  H    0.079250
    95  H    0.076543
    96  H    0.067783
 Sum of Mulliken charges =  -0.00000

 Dipole moment (field-independent basis, Debye):
    X=              0.5831    Y=              0.8357    Z=              0.5938  Tot=              1.1795
 Quadrupole moment (field-independent basis, Debye-Ang):
   XX=           -212.7799   YY=           -236.8492   ZZ=           -257.2414
   XY=              0.4792   XZ=              1.0580   YZ=              1.0459

 Normal termination of Gaussian 16 at Thu Aug  1 07:39:46 2019.
