 Gaussian 16, Revision A.03,
 Gaussian 16:  ES64L-G16RevA.03 25-Dec-2016

 ---------------------------------
 # td=(NStates=1) B3LYP/6-31G(d,p)
 ---------------------------------

 --
 TD
 --
 Symbolic Z-matrix:
 Charge =  0 Multiplicity = 1

                         Standard orientation:
 ---------------------------------------------------------------------
 Center     Atomic      Atomic             Coordinates (Angstroms)
 Number     Number       Type             X           Y           Z
 ---------------------------------------------------------------------
      1          6           0      -12.208164   -0.599860   -0.626179
      2          6           0       12.099420   -0.016695    0.861506
      3          6           0      -13.523816    0.284910   -0.574666
      4          6           0       13.050896   -1.184921    1.357497
      5          6           0      -13.188145    1.751985   -0.522727
      6          6           0       13.457719   -2.026433    0.123046
      7          6           0      -11.103445    0.023921    0.255902
      8          6           0       11.017073   -0.503651   -0.001989
      9          6           0      -12.391857    2.097685    0.749590
     10          6           0       12.148764   -2.545889   -0.554760
     11          6           0      -11.350530    1.156967    1.025977
     12          6           0       11.096066   -1.602465   -0.723197
     13          6           0      -11.614157   -0.562509   -2.127248
     14          6           0      -12.465609   -2.093572   -0.210015
     15          6           0       13.048774    1.110310    0.346253
     16          6           0       11.462529    0.568485    2.214816
     17          6           0       -9.895819   -0.884633    0.313053
     18          6           0        9.952770    0.630540   -0.224454
     19          6           0      -10.312064    1.650709    2.065734
     20          6           0       10.083858   -2.057903   -1.653933
     21          6           0       -8.649615   -0.470266    0.229103
     22          6           0        8.646400    0.218623   -0.316638
     23          6           0       -7.481508   -1.292433    0.343045
     24          6           0        7.511439    1.218014   -0.370565
     25          6           0       -7.652038   -2.804640    0.707972
     26          6           0        7.916160    2.749035   -0.547337
     27          6           0       -6.156032   -0.784905    0.276259
     28          6           0        6.217612    0.837948   -0.338026
     29          6           0       -4.867941   -1.416451    0.304149
     30          6           0        5.008137    1.690299   -0.402219
     31          6           0       -3.774689   -0.736061    0.168856
     32          6           0        3.790697    1.061005   -0.390506
     33          6           0       -2.371388   -1.211482    0.159782
     34          6           0        2.579911    1.797988   -0.495122
     35          6           0       -2.213338   -2.593752    0.504282
     36          6           0        2.683311    3.236844   -0.776075
     37          6           0       -1.253507   -0.397097   -0.057967
     38          6           0        1.378215    1.158608   -0.366947
     39          6           0       -1.079804    1.016997   -0.367362
     40          6           0        0.084692    1.683442   -0.506703
     41          1           0      -14.254414    0.161154    0.375768
     42          1           0      -14.155236   -0.054748   -1.285440
     43          1           0       12.553279   -1.630220    2.000110
     44          1           0       13.789204   -0.764308    1.853656
     45          1           0      -14.124536    2.302361   -0.702844
     46          1           0      -12.668347    1.986369   -1.454684
     47          1           0       14.054920   -2.819224    0.443442
     48          1           0       14.210165   -1.525867   -0.546838
     49          1           0      -13.273222    2.070410    1.580443
     50          1           0      -12.091624    3.065049    0.637715
     51          1           0       11.860834   -3.466798   -0.031516
     52          1           0       12.633004   -2.831057   -1.641287
     53          1           0      -11.627873    0.458136   -2.592821
     54          1           0      -12.422497   -0.940984   -2.835602
     55          1           0      -10.701287   -1.016689   -2.181711
     56          1           0      -12.724782   -2.260572    0.857804
     57          1           0      -11.659803   -2.660006   -0.466409
     58          1           0      -13.428783   -2.330070   -0.651017
     59          1           0       13.510611    0.633451   -0.528468
     60          1           0       13.955008    1.425114    1.011215
     61          1           0       12.368873    2.032036   -0.116528
     62          1           0       10.912146   -0.127696    2.596483
     63          1           0       10.768937    1.377043    1.974122
     64          1           0       12.355751    0.864048    2.982182
     65          1           0      -10.120173   -1.898943    0.077848
     66          1           0       10.372252    1.765010   -0.071847
     67          1           0       -9.663685    0.894509    2.589850
     68          1           0      -10.767601    2.309223    2.879848
     69          1           0       -9.579842    2.256124    1.453539
     70          1           0        9.568967   -1.160629   -2.269984
     71          1           0        9.245666   -2.797503   -1.495095
     72          1           0       10.555230   -2.363730   -2.737467
     73          1           0       -8.453735    0.570800    0.119643
     74          1           0        8.397230   -0.830139    0.007942
     75          1           0       -8.207276   -2.719058    1.591600
     76          1           0       -6.634074   -3.218430    1.048133
     77          1           0       -8.050224   -3.211241   -0.075981
     78          1           0        8.526847    2.837256   -1.408060
     79          1           0        8.664714    2.985597    0.357858
     80          1           0        6.910602    3.311858   -0.500622
     81          1           0       -6.137854    0.316507    0.174225
     82          1           0        6.021220   -0.286710    0.016983
     83          1           0       -4.757055   -2.454064    0.493128
     84          1           0        5.124806    2.829631   -0.619806
     85          1           0       -3.807106    0.308400   -0.068434
     86          1           0        3.771091    0.121658   -0.160624
     87          1           0       -2.739644   -2.812397    1.479191
     88          1           0       -1.182655   -2.954702    0.822885
     89          1           0       -2.371132   -3.166416   -0.433002
     90          1           0        3.204715    3.355238   -1.645681
     91          1           0        3.316366    3.973682   -0.074455
     92          1           0        1.610141    3.659345   -0.605964
     93          1           0       -0.399046   -0.979291   -0.064052
     94          1           0        1.585807    0.170685    0.202218
     95          1           0       -1.971360    1.514857   -0.718633
     96          1           0        0.040623    2.773739   -0.756094
 ---------------------------------------------------------------------

 SCF Done:  E(RB3LYP) =  -1557.56236228     A.U. after   15 cycles

 Excitation energies and oscillator strengths:

 Excited State   1:      Singlet-A      2.2861 eV  542.34 nm  f=2.9449  <S**2>=0.000
     148 ->149         0.70458
 This state for optimization and/or second-order correction.
 Total Energy, E(TD-HF/TD-DFT) =  -1557.47835043
 Copying the excited state density for this state as the 1-particle RhoCI density.

 The electronic state is 1-A.
 Alpha  occ. eigenvalues --  -10.20558 -10.20348 -10.20184 -10.20155 -10.19924
 Alpha  occ. eigenvalues --  -10.19820 -10.19811 -10.19729 -10.19657 -10.19355
 Alpha  occ. eigenvalues --  -10.19195 -10.19081 -10.19075 -10.19064 -10.19058
 Alpha  occ. eigenvalues --  -10.18995 -10.18951 -10.18875 -10.18847 -10.18704
 Alpha  occ. eigenvalues --  -10.18623 -10.18574 -10.18495 -10.18494 -10.18366
 Alpha  occ. eigenvalues --  -10.18340 -10.18295 -10.18124 -10.18020 -10.17902
 Alpha  occ. eigenvalues --  -10.17785 -10.17567 -10.17524 -10.17469 -10.17435
 Alpha  occ. eigenvalues --  -10.17204 -10.16929 -10.16837 -10.16443 -10.14558
 Alpha  occ. eigenvalues --   -0.85724  -0.84474  -0.84174  -0.83421  -0.81671
 Alpha  occ. eigenvalues --   -0.80954  -0.79370  -0.78899  -0.78116  -0.77450
 Alpha  occ. eigenvalues --   -0.76640  -0.75447  -0.74354  -0.72373  -0.71419
 Alpha  occ. eigenvalues --   -0.70098  -0.68407  -0.68283  -0.67987  -0.67811
 Alpha  occ. eigenvalues --   -0.67407  -0.67264  -0.66903  -0.66759  -0.66369
 Alpha  occ. eigenvalues --   -0.62718  -0.62000  -0.60515  -0.59352  -0.57109
 Alpha  occ. eigenvalues --   -0.56684  -0.56164  -0.55463  -0.54250  -0.53273
 Alpha  occ. eigenvalues --   -0.52497  -0.51678  -0.50633  -0.49299  -0.49130
 Alpha  occ. eigenvalues --   -0.48115  -0.47575  -0.47179  -0.46913  -0.46362
 Alpha  occ. eigenvalues --   -0.45687  -0.45387  -0.45093  -0.44600  -0.44291
 Alpha  occ. eigenvalues --   -0.44178  -0.43917  -0.43702  -0.42991  -0.42832
 Alpha  occ. eigenvalues --   -0.42315  -0.42242  -0.42177  -0.41703  -0.41129
 Alpha  occ. eigenvalues --   -0.40789  -0.40602  -0.40239  -0.39641  -0.39308
 Alpha  occ. eigenvalues --   -0.39058  -0.38716  -0.38664  -0.38393  -0.38307
 Alpha  occ. eigenvalues --   -0.37697  -0.37383  -0.37302  -0.36829  -0.36622
 Alpha  occ. eigenvalues --   -0.36381  -0.36170  -0.35692  -0.35402  -0.35164
 Alpha  occ. eigenvalues --   -0.34905  -0.34748  -0.34612  -0.33975  -0.33886
 Alpha  occ. eigenvalues --   -0.33383  -0.33285  -0.33199  -0.32713  -0.32269
 Alpha  occ. eigenvalues --   -0.31722  -0.31702  -0.31209  -0.30859  -0.30481
 Alpha  occ. eigenvalues --   -0.30098  -0.29794  -0.29482  -0.29291  -0.28583
 Alpha  occ. eigenvalues --   -0.28006  -0.27119  -0.26145  -0.24323  -0.22705
 Alpha  occ. eigenvalues --   -0.21184  -0.18943  -0.16765
 Alpha virt. eigenvalues --   -0.07941  -0.05066  -0.02089   0.00437   0.02492
 Alpha virt. eigenvalues --    0.03618   0.05431   0.06208   0.07001   0.07406
 Alpha virt. eigenvalues --    0.07744   0.07986   0.08519   0.08818   0.09500

 Mulliken charges:
               1
     1  C   -0.020987
     2  C   -0.061348
     3  C   -0.168582
     4  C   -0.139193
     5  C   -0.204084
     6  C   -0.208195
     7  C    0.083372
     8  C    0.093670
     9  C   -0.206491
    10  C   -0.220975
    11  C    0.070932
    12  C    0.125260
    13  C   -0.308195
    14  C   -0.302592
    15  C   -0.278997
    16  C   -0.286343
    17  C   -0.134544
    18  C   -0.131788
    19  C   -0.366504
    20  C   -0.385161
    21  C   -0.067538
    22  C   -0.093265
    23  C    0.054381
    24  C    0.083171
    25  C   -0.354499
    26  C   -0.353622
    27  C   -0.133638
    28  C   -0.124076
    29  C   -0.054819
    30  C   -0.089964
    31  C   -0.088058
    32  C   -0.076286
    33  C    0.097116
    34  C    0.130255
    35  C   -0.390627
    36  C   -0.375029
    37  C   -0.117725
    38  C   -0.111357
    39  C   -0.089039
    40  C   -0.099597
    41  H    0.056856
    42  H    0.093629
    43  H    0.091186
    44  H    0.082673
    45  H    0.083999
    46  H    0.093884
    47  H    0.091219
    48  H    0.092334
    49  H    0.079269
    50  H    0.117149
    51  H    0.111955
    52  H    0.077618
    53  H    0.100179
    54  H    0.082219
    55  H    0.115867
    56  H    0.104507
    57  H    0.110917
    58  H    0.099732
    59  H    0.102729
    60  H    0.098718
    61  H    0.063966
    62  H    0.110816
    63  H    0.091973
    64  H    0.067513
    65  H    0.074526
    66  H    0.093383
    67  H    0.116222
    68  H    0.096487
    69  H    0.112173
    70  H    0.103199
    71  H    0.120070
    72  H    0.073645
    73  H    0.079340
    74  H    0.098744
    75  H    0.132012
    76  H    0.096636
    77  H    0.130728
    78  H    0.135529
    79  H    0.100510
    80  H    0.099345
    81  H    0.065035
    82  H    0.064295
    83  H    0.082074
    84  H    0.081139
    85  H    0.068641
    86  H    0.061733
    87  H    0.120386
    88  H    0.098183
    89  H    0.129288
    90  H    0.137679
    91  H    0.098484
    92  H    0.096595
    93  H    0.072092
    94  H    0.078086
    95  H    0.084846
    96  H    0.082944
 Sum of Mulliken charges =  -0.00000

 Dipole moment (field-independent basis, Debye):
    X=              0.2120    Y=             -0.3438    Z=              0.0740  Tot=              0.4106
 Quadrupole moment (field-independent basis, Debye-Ang):
   XX=           -224.8133   YY=           -236.7683   ZZ=           -254.8714
   XY=             -5.2634   XZ=              6.6560   YZ=             -3.7395

 Normal termination of Gaussian 16 at Mon Jul 29 14:32:38 2019.
