 Gaussian 16, Revision A.03,
 Gaussian 16:  ES64L-G16RevA.03 25-Dec-2016

 ---------------------------------
 # td=(NStates=1) B3LYP/6-31G(d,p)
 ---------------------------------

 --
 TD
 --
 Symbolic Z-matrix:
 Charge =  0 Multiplicity = 1

                         Standard orientation:
 ---------------------------------------------------------------------
 Center     Atomic      Atomic             Coordinates (Angstroms)
 Number     Number       Type             X           Y           Z
 ---------------------------------------------------------------------
      1          6           0      -11.953740   -0.526810   -0.839577
      2          6           0       12.037256   -0.047774    0.904504
      3          6           0      -13.359017    0.257700   -0.615077
      4          6           0       12.833696   -1.257155    1.388969
      5          6           0      -13.192415    1.775020   -0.389372
      6          6           0       13.251835   -2.175311    0.181198
      7          6           0      -11.036404   -0.057279    0.327145
      8          6           0       10.811720   -0.496588   -0.051659
      9          6           0      -12.297542    1.984581    0.813374
     10          6           0       11.935167   -2.643292   -0.517701
     11          6           0      -11.209135    1.057901    1.034020
     12          6           0       10.887914   -1.645561   -0.716115
     13          6           0      -11.428055   -0.106768   -2.205596
     14          6           0      -12.314637   -2.014457   -0.688422
     15          6           0       13.028839    1.005407    0.162411
     16          6           0       11.438149    0.636619    2.174955
     17          6           0       -9.749254   -0.927446    0.440401
     18          6           0        9.894131    0.553989   -0.327417
     19          6           0      -10.325842    1.409708    2.272088
     20          6           0        9.861258   -2.063078   -1.871754
     21          6           0       -8.501340   -0.491632    0.314464
     22          6           0        8.493244    0.426561   -0.150118
     23          6           0       -7.360945   -1.287686    0.381932
     24          6           0        7.538936    1.392951   -0.440058
     25          6           0       -7.502462   -2.853692    0.559807
     26          6           0        7.952008    2.807667   -0.665164
     27          6           0       -6.105366   -0.839519    0.347637
     28          6           0        6.242873    0.987072   -0.297724
     29          6           0       -4.784287   -1.480009    0.292116
     30          6           0        5.065783    1.754840   -0.471767
     31          6           0       -3.685572   -0.672442    0.225615
     32          6           0        3.776409    1.227535   -0.424557
     33          6           0       -2.324351   -1.277838    0.205961
     34          6           0        2.505013    1.980531   -0.485802
     35          6           0       -2.138807   -2.728804    0.437637
     36          6           0        2.531484    3.506681   -0.574083
     37          6           0       -1.182266   -0.565014    0.067592
     38          6           0        1.339383    1.193966   -0.410578
     39          6           0       -1.144547    0.872757   -0.215567
     40          6           0       -0.032619    1.631818   -0.450537
     41          1           0      -13.715032   -0.127825    0.282026
     42          1           0      -14.052121    0.081053   -1.370550
     43          1           0       12.132342   -1.749571    2.018455
     44          1           0       13.796833   -0.786777    1.760859
     45          1           0      -14.149512    2.314213   -0.256129
     46          1           0      -12.709317    2.230595   -1.351754
     47          1           0       13.670365   -3.160576    0.484242
     48          1           0       14.020691   -1.712021   -0.567507
     49          1           0      -12.977746    2.036325    1.759634
     50          1           0      -11.808406    3.085039    0.681926
     51          1           0       11.441749   -3.244989    0.182904
     52          1           0       12.166403   -3.163227   -1.403995
     53          1           0      -11.322761    1.013685   -2.289344
     54          1           0      -12.056673   -0.450149   -3.138989
     55          1           0      -10.518584   -0.720086   -2.475956
     56          1           0      -12.551352   -2.347268    0.363672
     57          1           0      -11.521607   -2.719241   -0.883138
     58          1           0      -13.011703   -2.532080   -1.540370
     59          1           0       13.250127    0.473231   -0.708213
     60          1           0       14.017243    1.131235    0.923362
     61          1           0       12.332799    1.859162   -0.033303
     62          1           0       10.857624   -0.072357    2.653145
     63          1           0       10.956254    1.677714    2.025003
     64          1           0       12.403701    0.634041    3.009891
     65          1           0       -9.969510   -1.966367    0.491940
     66          1           0       10.239466    1.658625   -0.294242
     67          1           0       -9.828867    0.489421    2.404161
     68          1           0      -11.065086    1.772123    3.013219
     69          1           0       -9.447766    2.161846    1.851893
     70          1           0        9.472900   -1.051985   -2.131208
     71          1           0        9.117132   -2.859017   -1.554514
     72          1           0       10.669831   -2.510425   -2.655035
     73          1           0       -8.290169    0.473841    0.239248
     74          1           0        7.755588   -0.515867    0.096984
     75          1           0       -7.946038   -3.004695    1.616967
     76          1           0       -6.499268   -3.342871    0.491020
     77          1           0       -8.151334   -3.235969   -0.117853
     78          1           0        8.858073    2.710368   -1.191083
     79          1           0        8.380689    3.229239    0.191833
     80          1           0        7.038400    3.377038   -0.839825
     81          1           0       -6.078757    0.357889    0.497826
     82          1           0        6.189158   -0.066464   -0.066583
     83          1           0       -4.764850   -2.559500    0.618861
     84          1           0        5.057542    2.900409   -0.559111
     85          1           0       -3.826672    0.480560    0.197786
     86          1           0        3.651975    0.123200   -0.253641
     87          1           0       -2.400859   -2.755999    1.732417
     88          1           0       -1.199198   -3.031313    0.548375
     89          1           0       -2.818842   -3.254409   -0.026658
     90          1           0        3.116565    3.890381   -1.345578
     91          1           0        3.007953    3.937734    0.363663
     92          1           0        1.428913    4.008917   -0.678334
     93          1           0       -0.315433   -1.005688    0.028806
     94          1           0        1.464922    0.023169   -0.130516
     95          1           0       -2.263940    1.321546   -0.367138
     96          1           0       -0.012794    2.663242   -0.638643
 ---------------------------------------------------------------------

 SCF Done:  E(RB3LYP) =  -1557.56719022     A.U. after   16 cycles

 Excitation energies and oscillator strengths:

 Excited State   1:      Singlet-A      2.2463 eV  551.95 nm  f=2.7398  <S**2>=0.000
     148 ->149         0.69782
     148 ->150        -0.11820
 This state for optimization and/or second-order correction.
 Total Energy, E(TD-HF/TD-DFT) =  -1557.48463974
 Copying the excited state density for this state as the 1-particle RhoCI density.

 The electronic state is 1-A.
 Alpha  occ. eigenvalues --  -10.21206 -10.20722 -10.20595 -10.20334 -10.20296
 Alpha  occ. eigenvalues --  -10.20280 -10.20275 -10.20132 -10.19776 -10.19672
 Alpha  occ. eigenvalues --  -10.19613 -10.19567 -10.19383 -10.19345 -10.19326
 Alpha  occ. eigenvalues --  -10.19272 -10.19091 -10.19090 -10.18762 -10.18696
 Alpha  occ. eigenvalues --  -10.18595 -10.18587 -10.18563 -10.18552 -10.18532
 Alpha  occ. eigenvalues --  -10.18478 -10.18458 -10.18447 -10.18400 -10.18383
 Alpha  occ. eigenvalues --  -10.18355 -10.18339 -10.18221 -10.18114 -10.17732
 Alpha  occ. eigenvalues --  -10.17564 -10.17250 -10.17009 -10.16935 -10.16316
 Alpha  occ. eigenvalues --   -0.84801  -0.84737  -0.83805  -0.83516  -0.82674
 Alpha  occ. eigenvalues --   -0.81499  -0.78592  -0.78113  -0.77924  -0.77452
 Alpha  occ. eigenvalues --   -0.76627  -0.75303  -0.74310  -0.72175  -0.71100
 Alpha  occ. eigenvalues --   -0.70716  -0.69567  -0.68359  -0.67754  -0.67487
 Alpha  occ. eigenvalues --   -0.67135  -0.67066  -0.66709  -0.66428  -0.65806
 Alpha  occ. eigenvalues --   -0.63111  -0.62218  -0.59770  -0.59151  -0.57231
 Alpha  occ. eigenvalues --   -0.56701  -0.55449  -0.54261  -0.53273  -0.52851
 Alpha  occ. eigenvalues --   -0.52468  -0.51582  -0.50796  -0.49296  -0.48768
 Alpha  occ. eigenvalues --   -0.48211  -0.47614  -0.47338  -0.46764  -0.46561
 Alpha  occ. eigenvalues --   -0.45638  -0.45441  -0.45303  -0.44625  -0.44160
 Alpha  occ. eigenvalues --   -0.43662  -0.43326  -0.43026  -0.42633  -0.42201
 Alpha  occ. eigenvalues --   -0.42037  -0.41643  -0.41525  -0.41449  -0.41197
 Alpha  occ. eigenvalues --   -0.40599  -0.40243  -0.40044  -0.39739  -0.39677
 Alpha  occ. eigenvalues --   -0.38967  -0.38889  -0.38731  -0.38186  -0.38037
 Alpha  occ. eigenvalues --   -0.37927  -0.37741  -0.37206  -0.37000  -0.36796
 Alpha  occ. eigenvalues --   -0.36588  -0.36304  -0.35824  -0.35776  -0.35333
 Alpha  occ. eigenvalues --   -0.34892  -0.34582  -0.34281  -0.34167  -0.34005
 Alpha  occ. eigenvalues --   -0.33882  -0.33447  -0.33388  -0.32877  -0.32683
 Alpha  occ. eigenvalues --   -0.31866  -0.31290  -0.31033  -0.30802  -0.30732
 Alpha  occ. eigenvalues --   -0.30467  -0.30082  -0.30055  -0.29294  -0.28693
 Alpha  occ. eigenvalues --   -0.27468  -0.27162  -0.25908  -0.24057  -0.23182
 Alpha  occ. eigenvalues --   -0.21326  -0.19236  -0.16485
 Alpha virt. eigenvalues --   -0.07978  -0.05265  -0.01851   0.00866   0.02866
 Alpha virt. eigenvalues --    0.03920   0.05292   0.05726   0.06395   0.06829
 Alpha virt. eigenvalues --    0.07049   0.07170   0.08111   0.08707   0.08727

 Mulliken charges:
               1
     1  C    0.020753
     2  C   -0.027808
     3  C   -0.164516
     4  C   -0.165783
     5  C   -0.190982
     6  C   -0.192451
     7  C    0.039602
     8  C    0.092373
     9  C   -0.213341
    10  C   -0.215799
    11  C    0.072719
    12  C    0.040469
    13  C   -0.293621
    14  C   -0.320904
    15  C   -0.282824
    16  C   -0.274597
    17  C   -0.168535
    18  C   -0.221298
    19  C   -0.334650
    20  C   -0.337454
    21  C   -0.029676
    22  C   -0.075916
    23  C    0.126480
    24  C    0.164217
    25  C   -0.368487
    26  C   -0.378821
    27  C   -0.146798
    28  C   -0.132492
    29  C   -0.092465
    30  C   -0.100744
    31  C   -0.092808
    32  C   -0.108406
    33  C    0.095686
    34  C    0.113710
    35  C   -0.324633
    36  C   -0.380658
    37  C   -0.093838
    38  C   -0.117221
    39  C   -0.086770
    40  C   -0.084933
    41  H    0.096089
    42  H    0.088987
    43  H    0.098302
    44  H    0.086294
    45  H    0.091205
    46  H    0.078889
    47  H    0.090325
    48  H    0.086613
    49  H    0.087826
    50  H    0.080828
    51  H    0.123334
    52  H    0.095303
    53  H    0.105579
    54  H    0.081158
    55  H    0.098299
    56  H    0.104588
    57  H    0.100991
    58  H    0.080410
    59  H    0.118481
    60  H    0.076769
    61  H    0.096767
    62  H    0.114857
    63  H    0.092051
    64  H    0.047049
    65  H    0.081747
    66  H    0.078789
    67  H    0.129579
    68  H    0.109551
    69  H    0.090005
    70  H    0.128075
    71  H    0.114445
    72  H    0.080003
    73  H    0.064518
    74  H    0.058559
    75  H    0.108666
    76  H    0.095077
    77  H    0.126189
    78  H    0.123479
    79  H    0.129991
    80  H    0.110070
    81  H    0.048571
    82  H    0.072708
    83  H    0.101451
    84  H    0.072919
    85  H    0.098151
    86  H    0.075700
    87  H    0.063153
    88  H    0.124223
    89  H    0.125561
    90  H    0.136652
    91  H    0.124431
    92  H    0.096236
    93  H    0.062672
    94  H    0.063670
    95  H    0.066267
    96  H    0.071116
 Sum of Mulliken charges =  -0.00000

 Dipole moment (field-independent basis, Debye):
    X=             -0.7213    Y=             -0.7979    Z=              0.4736  Tot=              1.1752
 Quadrupole moment (field-independent basis, Debye-Ang):
   XX=           -234.8133   YY=           -233.2442   ZZ=           -258.9635
   XY=             -3.0385   XZ=             -1.0403   YZ=             -1.3458

 Normal termination of Gaussian 16 at Thu Aug  1 00:02:43 2019.
