 Gaussian 16, Revision A.03,
 Gaussian 16:  ES64L-G16RevA.03 25-Dec-2016

 ---------------------------------
 # td=(NStates=1) B3LYP/6-31G(d,p)
 ---------------------------------

 --
 TD
 --
 Symbolic Z-matrix:
 Charge =  0 Multiplicity = 1

                         Standard orientation:
 ---------------------------------------------------------------------
 Center     Atomic      Atomic             Coordinates (Angstroms)
 Number     Number       Type             X           Y           Z
 ---------------------------------------------------------------------
      1          6           0      -12.129766   -0.513006   -0.666386
      2          6           0       12.215769    0.054486    0.927856
      3          6           0      -13.452176    0.338515   -0.462100
      4          6           0       12.999994   -1.214179    1.265570
      5          6           0      -13.215447    1.801087   -0.518555
      6          6           0       13.482080   -2.163847    0.070601
      7          6           0      -11.060800   -0.009908    0.306249
      8          6           0       11.049254   -0.348360   -0.100933
      9          6           0      -12.164303    2.231638    0.655859
     10          6           0       12.204320   -2.548940   -0.576929
     11          6           0      -11.113481    1.248192    0.914377
     12          6           0       11.007139   -1.569755   -0.733527
     13          6           0      -11.620867   -0.596048   -2.029498
     14          6           0      -12.569117   -1.904789   -0.159046
     15          6           0       13.081589    1.165988    0.352318
     16          6           0       11.548582    0.513945    2.203214
     17          6           0       -9.928800   -0.915891    0.336384
     18          6           0        9.917259    0.608415   -0.218486
     19          6           0      -10.008026    1.839861    1.974441
     20          6           0       10.023275   -1.939376   -1.795846
     21          6           0       -8.574211   -0.575900    0.360146
     22          6           0        8.613021    0.419072   -0.149662
     23          6           0       -7.470281   -1.478524    0.425150
     24          6           0        7.442542    1.310268   -0.319040
     25          6           0       -7.643010   -2.875586    0.767564
     26          6           0        7.934134    2.831837   -0.652445
     27          6           0       -6.207092   -0.874602    0.252338
     28          6           0        6.181997    0.821423   -0.262089
     29          6           0       -4.844662   -1.333975    0.216838
     30          6           0        4.945155    1.638522   -0.332815
     31          6           0       -3.710297   -0.721223   -0.026817
     32          6           0        3.661179    1.127091   -0.322997
     33          6           0       -2.387001   -1.343269    0.102233
     34          6           0        2.475949    1.784440   -0.423391
     35          6           0       -2.191920   -2.736484    0.443419
     36          6           0        2.483903    3.239090   -0.805744
     37          6           0       -1.220546   -0.567091   -0.111403
     38          6           0        1.325757    1.153010   -0.394696
     39          6           0       -1.181613    0.858904   -0.292671
     40          6           0       -0.004797    1.646782   -0.415439
     41          1           0      -13.980224    0.113662    0.444183
     42          1           0      -14.269777   -0.065836   -1.321069
     43          1           0       12.457579   -1.917120    2.069137
     44          1           0       13.939228   -1.001514    1.909341
     45          1           0      -14.187097    2.325006   -0.319786
     46          1           0      -12.665937    1.938183   -1.500598
     47          1           0       14.055760   -3.092489    0.264998
     48          1           0       14.159516   -1.603604   -0.625085
     49          1           0      -12.700685    2.512783    1.662389
     50          1           0      -11.760639    3.172200    0.278840
     51          1           0       11.639521   -3.415576   -0.018078
     52          1           0       12.347470   -2.985951   -1.715491
     53          1           0      -11.429481    0.404955   -2.449552
     54          1           0      -12.348485   -0.999661   -2.571447
     55          1           0      -10.659555   -1.058959   -2.244494
     56          1           0      -12.877344   -1.961750    0.887813
     57          1           0      -11.925635   -2.888140   -0.431543
     58          1           0      -13.496883   -2.298468   -0.653190
     59          1           0       13.348272    0.795486   -0.639176
     60          1           0       13.905128    1.293342    0.849362
     61          1           0       12.453444    2.070758    0.268756
     62          1           0       10.865874   -0.198679    2.519577
     63          1           0       11.109537    1.623546    2.111825
     64          1           0       12.312063    0.388993    3.016709
     65          1           0      -10.097256   -2.095988    0.267318
     66          1           0       10.050405    1.648744    0.063605
     67          1           0       -9.661858    0.820798    2.306520
     68          1           0      -10.510156    2.270001    2.719570
     69          1           0       -9.267831    2.495962    1.477315
     70          1           0        9.655289   -1.074497   -2.125730
     71          1           0        9.198010   -2.678391   -1.353950
     72          1           0       10.279340   -2.318300   -2.591008
     73          1           0       -8.382015    0.563024    0.170017
     74          1           0        8.308303   -0.615665    0.049593
     75          1           0       -8.245259   -3.011455    1.602849
     76          1           0       -6.671113   -3.302463    0.899545
     77          1           0       -8.167433   -3.398176   -0.008676
     78          1           0        8.294780    2.984523   -1.673785
     79          1           0        8.766680    3.084004    0.110899
     80          1           0        6.908397    3.459185   -0.306298
     81          1           0       -6.086765    0.175360   -0.084619
     82          1           0        6.288565   -0.007134    0.332369
     83          1           0       -4.860179   -2.384048    0.036476
     84          1           0        5.160120    2.667700   -0.651473
     85          1           0       -3.824939    0.429061   -0.224633
     86          1           0        3.472315   -0.060271   -0.103778
     87          1           0       -2.660915   -3.027881    1.401948
     88          1           0       -1.282680   -2.981091    0.622368
     89          1           0       -2.817007   -3.463244   -0.159072
     90          1           0        3.168756    3.353728   -1.689186
     91          1           0        3.203368    3.754296    0.085584
     92          1           0        1.501455    3.704562   -0.917342
     93          1           0       -0.359937   -0.955334    0.109260
     94          1           0        1.273702    0.107489   -0.134162
     95          1           0       -2.067132    1.465803   -0.197957
     96          1           0       -0.226760    2.827661   -0.651249
 ---------------------------------------------------------------------

 SCF Done:  E(RB3LYP) =  -1557.54854051     A.U. after   15 cycles

 Excitation energies and oscillator strengths:

 Excited State   1:      Singlet-A      2.1090 eV  587.89 nm  f=3.0162  <S**2>=0.000
     148 ->149         0.70749
     148 <-149        -0.10109
 This state for optimization and/or second-order correction.
 Total Energy, E(TD-HF/TD-DFT) =  -1557.47103794
 Copying the excited state density for this state as the 1-particle RhoCI density.

 The electronic state is 1-A.
 Alpha  occ. eigenvalues --  -10.20842 -10.20602 -10.20473 -10.20413 -10.20245
 Alpha  occ. eigenvalues --  -10.20222 -10.20028 -10.19899 -10.19883 -10.19673
 Alpha  occ. eigenvalues --  -10.19599 -10.19511 -10.19410 -10.19366 -10.19329
 Alpha  occ. eigenvalues --  -10.19289 -10.19268 -10.19194 -10.19138 -10.19061
 Alpha  occ. eigenvalues --  -10.19056 -10.18940 -10.18816 -10.18784 -10.18751
 Alpha  occ. eigenvalues --  -10.18418 -10.18158 -10.18079 -10.18008 -10.17987
 Alpha  occ. eigenvalues --  -10.17860 -10.17847 -10.17727 -10.17600 -10.17395
 Alpha  occ. eigenvalues --  -10.17389 -10.17356 -10.15980 -10.15905 -10.15496
 Alpha  occ. eigenvalues --   -0.85041  -0.84447  -0.84305  -0.83606  -0.82273
 Alpha  occ. eigenvalues --   -0.81498  -0.78991  -0.78673  -0.78296  -0.77428
 Alpha  occ. eigenvalues --   -0.76662  -0.75856  -0.74608  -0.72367  -0.72259
 Alpha  occ. eigenvalues --   -0.70020  -0.69632  -0.69208  -0.68971  -0.68188
 Alpha  occ. eigenvalues --   -0.67762  -0.67483  -0.66722  -0.66293  -0.65657
 Alpha  occ. eigenvalues --   -0.63036  -0.62139  -0.60137  -0.58794  -0.56869
 Alpha  occ. eigenvalues --   -0.56629  -0.55820  -0.55559  -0.53650  -0.52869
 Alpha  occ. eigenvalues --   -0.52315  -0.51105  -0.50326  -0.49080  -0.48709
 Alpha  occ. eigenvalues --   -0.48333  -0.47979  -0.47037  -0.46905  -0.46268
 Alpha  occ. eigenvalues --   -0.46038  -0.45660  -0.44717  -0.44258  -0.44105
 Alpha  occ. eigenvalues --   -0.43774  -0.43014  -0.42898  -0.42595  -0.42251
 Alpha  occ. eigenvalues --   -0.42058  -0.41811  -0.41685  -0.41311  -0.41195
 Alpha  occ. eigenvalues --   -0.40869  -0.40587  -0.40326  -0.40268  -0.40072
 Alpha  occ. eigenvalues --   -0.39831  -0.39560  -0.39325  -0.38974  -0.38845
 Alpha  occ. eigenvalues --   -0.38109  -0.37453  -0.37238  -0.37106  -0.36847
 Alpha  occ. eigenvalues --   -0.36536  -0.36351  -0.36031  -0.35718  -0.35416
 Alpha  occ. eigenvalues --   -0.34891  -0.34305  -0.34233  -0.34068  -0.33920
 Alpha  occ. eigenvalues --   -0.33595  -0.33534  -0.32941  -0.32676  -0.32589
 Alpha  occ. eigenvalues --   -0.31950  -0.31813  -0.31308  -0.30783  -0.30408
 Alpha  occ. eigenvalues --   -0.30141  -0.29845  -0.29565  -0.28992  -0.28788
 Alpha  occ. eigenvalues --   -0.27873  -0.26940  -0.26322  -0.24492  -0.23051
 Alpha  occ. eigenvalues --   -0.20641  -0.18745  -0.16374
 Alpha virt. eigenvalues --   -0.08413  -0.05450  -0.02281   0.00476   0.02708
 Alpha virt. eigenvalues --    0.04370   0.06525   0.06708   0.07288   0.07447
 Alpha virt. eigenvalues --    0.07818   0.08138   0.08323   0.08647   0.08946

 Mulliken charges:
               1
     1  C   -0.002381
     2  C    0.010227
     3  C   -0.153730
     4  C   -0.197438
     5  C   -0.195348
     6  C   -0.183809
     7  C    0.095348
     8  C    0.065193
     9  C   -0.225788
    10  C   -0.194712
    11  C    0.015223
    12  C    0.039507
    13  C   -0.291266
    14  C   -0.307766
    15  C   -0.280281
    16  C   -0.287290
    17  C   -0.149288
    18  C   -0.137899
    19  C   -0.352362
    20  C   -0.328051
    21  C   -0.094102
    22  C   -0.090039
    23  C    0.121080
    24  C    0.097815
    25  C   -0.381145
    26  C   -0.361357
    27  C   -0.136728
    28  C   -0.115017
    29  C   -0.076911
    30  C   -0.129222
    31  C   -0.107913
    32  C   -0.106851
    33  C    0.120856
    34  C    0.198461
    35  C   -0.373190
    36  C   -0.364482
    37  C   -0.109067
    38  C   -0.121270
    39  C   -0.081808
    40  C   -0.117597
    41  H    0.100667
    42  H    0.046054
    43  H    0.077795
    44  H    0.074560
    45  H    0.093217
    46  H    0.097707
    47  H    0.102038
    48  H    0.098504
    49  H    0.085125
    50  H    0.113258
    51  H    0.091084
    52  H    0.061207
    53  H    0.092758
    54  H    0.110940
    55  H    0.114778
    56  H    0.110267
    57  H    0.070335
    58  H    0.087869
    59  H    0.102293
    60  H    0.112164
    61  H    0.097619
    62  H    0.118325
    63  H    0.079648
    64  H    0.088918
    65  H    0.073564
    66  H    0.055496
    67  H    0.123680
    68  H    0.116203
    69  H    0.117013
    70  H    0.128771
    71  H    0.087335
    72  H    0.111753
    73  H    0.081420
    74  H    0.064319
    75  H    0.134277
    76  H    0.113981
    77  H    0.125715
    78  H    0.136097
    79  H    0.113349
    80  H    0.080747
    81  H    0.065378
    82  H    0.091268
    83  H    0.070097
    84  H    0.084445
    85  H    0.074012
    86  H    0.060633
    87  H    0.116326
    88  H    0.116213
    89  H    0.115217
    90  H    0.123936
    91  H    0.081066
    92  H    0.111913
    93  H    0.070718
    94  H    0.070255
    95  H    0.085252
    96  H    0.062823
 Sum of Mulliken charges =  -0.00000

 Dipole moment (field-independent basis, Debye):
    X=             -0.6775    Y=             -0.8051    Z=              0.2865  Tot=              1.0905
 Quadrupole moment (field-independent basis, Debye-Ang):
   XX=           -210.9843   YY=           -235.8438   ZZ=           -254.0283
   XY=             -2.7893   XZ=             -0.1091   YZ=             -2.3090

 Normal termination of Gaussian 16 at Mon Jul 29 20:29:09 2019.
