 Gaussian 16, Revision A.03,
 Gaussian 16:  ES64L-G16RevA.03 25-Dec-2016

 ---------------------------------
 # td=(NStates=1) B3LYP/6-31G(d,p)
 ---------------------------------

 --
 TD
 --
 Symbolic Z-matrix:
 Charge =  0 Multiplicity = 1

                         Standard orientation:
 ---------------------------------------------------------------------
 Center     Atomic      Atomic             Coordinates (Angstroms)
 Number     Number       Type             X           Y           Z
 ---------------------------------------------------------------------
      1          6           0       12.171830    0.438881   -0.732358
      2          6           0      -12.124190   -0.113743    0.776681
      3          6           0       13.399706   -0.527229   -0.557711
      4          6           0      -12.947956    1.103207    1.238895
      5          6           0       13.025921   -2.037216   -0.547586
      6          6           0      -13.314965    1.956331    0.193197
      7          6           0       11.037235   -0.033121    0.184197
      8          6           0      -10.949498    0.386835   -0.137734
      9          6           0       12.084616   -2.277021    0.610315
     10          6           0      -12.208128    2.609235   -0.548892
     11          6           0       11.111983   -1.221387    0.770090
     12          6           0      -11.044869    1.527115   -0.727947
     13          6           0       11.551498    0.429907   -2.240759
     14          6           0       12.617781    1.848035   -0.413657
     15          6           0      -12.950346   -1.153514   -0.044786
     16          6           0      -11.595557   -0.771609    2.042377
     17          6           0        9.889876    0.828082    0.259121
     18          6           0       -9.961150   -0.647985   -0.301224
     19          6           0       10.145392   -1.694561    1.916541
     20          6           0       -9.960350    2.063728   -1.700631
     21          6           0        8.557200    0.574140    0.336390
     22          6           0       -8.602203   -0.417998   -0.322297
     23          6           0        7.451005    1.413552    0.368244
     24          6           0       -7.460729   -1.365474   -0.344867
     25          6           0        7.689495    2.865479    0.619115
     26          6           0       -7.834182   -2.768650   -0.750787
     27          6           0        6.218842    0.870287    0.274158
     28          6           0       -6.148245   -0.782721   -0.234180
     29          6           0        4.957975    1.514629    0.473624
     30          6           0       -5.015743   -1.571337   -0.328978
     31          6           0        3.722994    0.915463    0.277798
     32          6           0       -3.740082   -1.022731   -0.275125
     33          6           0        2.408292    1.434614    0.260533
     34          6           0       -2.549553   -1.715284   -0.293007
     35          6           0        2.231388    2.897495    0.642949
     36          6           0       -2.600070   -3.272680   -0.573701
     37          6           0        1.259168    0.662646    0.091656
     38          6           0       -1.394538   -0.946302   -0.077224
     39          6           0        1.078015   -0.672194   -0.122690
     40          6           0       -0.095614   -1.463664   -0.193955
     41          1           0       13.828195   -0.228976    0.265550
     42          1           0       14.137749   -0.132018   -1.269512
     43          1           0      -12.198763    1.714062    2.049551
     44          1           0      -13.793981    0.644021    1.829884
     45          1           0       13.895660   -2.706170   -0.579512
     46          1           0       12.527204   -2.316202   -1.610810
     47          1           0      -13.938386    2.610357    0.673641
     48          1           0      -14.018620    1.547937   -0.511547
     49          1           0       12.865019   -2.308433    1.512255
     50          1           0       11.686779   -3.415446    0.530759
     51          1           0      -11.844251    3.448902    0.082425
     52          1           0      -12.464849    2.940113   -1.497716
     53          1           0       11.060489   -0.568803   -2.439568
     54          1           0       12.486885    0.854916   -2.679602
     55          1           0       10.440458    0.896495   -2.179646
     56          1           0       13.052151    1.679137    0.733550
     57          1           0       11.848398    2.735139   -0.525875
     58          1           0       13.517933    2.126628   -1.084211
     59          1           0      -13.333756   -0.778905   -1.014732
     60          1           0      -13.539361   -1.772855    0.745323
     61          1           0      -12.335077   -2.228083   -0.217668
     62          1           0      -10.896874   -0.125254    2.699227
     63          1           0      -10.992550   -1.643081    1.758988
     64          1           0      -12.653856   -1.224516    2.574144
     65          1           0       10.095755    1.909364    0.181308
     66          1           0      -10.403302   -1.722507    0.075428
     67          1           0        9.797683   -0.616181    2.278771
     68          1           0       10.883959   -2.174393    2.647468
     69          1           0        9.513027   -2.607602    1.728808
     70          1           0       -9.438282    1.242839   -1.944390
     71          1           0       -9.281510    2.927743   -1.206663
     72          1           0      -10.340419    2.802320   -2.583915
     73          1           0        8.099091   -0.524710    0.476023
     74          1           0       -8.199458    0.716675   -0.474151
     75          1           0        8.083741    3.098513    1.697718
     76          1           0        6.743117    3.379744    0.726079
     77          1           0        8.389379    3.306112   -0.015534
     78          1           0       -8.441950   -2.687741   -1.744523
     79          1           0       -8.658287   -3.166947   -0.017303
     80          1           0       -6.889938   -3.512748   -0.615572
     81          1           0        6.147144   -0.239222    0.107648
     82          1           0       -6.096741    0.281608   -0.128314
     83          1           0        5.131633    2.646367    0.566425
     84          1           0       -5.156746   -2.579684   -0.740154
     85          1           0        3.740156   -0.132862    0.248966
     86          1           0       -3.660484   -0.095752    0.100331
     87          1           0        2.861890    3.122487    1.511084
     88          1           0        1.367778    3.292113    0.622503
     89          1           0        2.790963    3.541406   -0.244010
     90          1           0       -3.173754   -3.402554   -1.479077
     91          1           0       -3.050961   -3.634539    0.307149
     92          1           0       -1.639116   -3.818748   -0.651113
     93          1           0        0.353790    1.334198   -0.126875
     94          1           0       -1.572690    0.110894    0.236044
     95          1           0        2.063688   -1.316399   -0.182411
     96          1           0       -0.069218   -2.408193   -0.397366
 ---------------------------------------------------------------------

 SCF Done:  E(RB3LYP) =  -1557.52627818     A.U. after   17 cycles

 Excitation energies and oscillator strengths:

 Excited State   1:      Singlet-A      1.8418 eV  673.16 nm  f=3.5329  <S**2>=0.000
     148 ->149         0.71853
     148 <-149        -0.16853
 This state for optimization and/or second-order correction.
 Total Energy, E(TD-HF/TD-DFT) =  -1557.45859264
 Copying the excited state density for this state as the 1-particle RhoCI density.

 The electronic state is 1-A.
 Alpha  occ. eigenvalues --  -10.21118 -10.20817 -10.20158 -10.20131 -10.20022
 Alpha  occ. eigenvalues --  -10.19997 -10.19964 -10.19796 -10.19788 -10.19657
 Alpha  occ. eigenvalues --  -10.19652 -10.19623 -10.19568 -10.19161 -10.19116
 Alpha  occ. eigenvalues --  -10.19105 -10.19054 -10.18960 -10.18840 -10.18805
 Alpha  occ. eigenvalues --  -10.18792 -10.18782 -10.18653 -10.18634 -10.18618
 Alpha  occ. eigenvalues --  -10.18596 -10.18523 -10.18520 -10.18504 -10.18427
 Alpha  occ. eigenvalues --  -10.18318 -10.18150 -10.18110 -10.18027 -10.17962
 Alpha  occ. eigenvalues --  -10.17809 -10.17660 -10.17375 -10.16903 -10.15627
 Alpha  occ. eigenvalues --   -0.85805  -0.85407  -0.83943  -0.83637  -0.82467
 Alpha  occ. eigenvalues --   -0.81343  -0.79407  -0.78366  -0.78262  -0.77890
 Alpha  occ. eigenvalues --   -0.77360  -0.75465  -0.74356  -0.71712  -0.71407
 Alpha  occ. eigenvalues --   -0.70811  -0.69186  -0.69095  -0.67639  -0.67471
 Alpha  occ. eigenvalues --   -0.67328  -0.66979  -0.66598  -0.65911  -0.65708
 Alpha  occ. eigenvalues --   -0.63786  -0.62086  -0.59953  -0.59010  -0.57586
 Alpha  occ. eigenvalues --   -0.56411  -0.55484  -0.54478  -0.54089  -0.53522
 Alpha  occ. eigenvalues --   -0.52512  -0.51046  -0.50478  -0.49195  -0.48831
 Alpha  occ. eigenvalues --   -0.48474  -0.48156  -0.47868  -0.47311  -0.46681
 Alpha  occ. eigenvalues --   -0.45872  -0.45530  -0.44905  -0.44243  -0.43953
 Alpha  occ. eigenvalues --   -0.43814  -0.43548  -0.43071  -0.42791  -0.42175
 Alpha  occ. eigenvalues --   -0.41916  -0.41641  -0.41505  -0.41029  -0.40965
 Alpha  occ. eigenvalues --   -0.40794  -0.40525  -0.40431  -0.39849  -0.39673
 Alpha  occ. eigenvalues --   -0.39262  -0.38887  -0.38690  -0.38064  -0.37928
 Alpha  occ. eigenvalues --   -0.37651  -0.37543  -0.37081  -0.36950  -0.36196
 Alpha  occ. eigenvalues --   -0.36069  -0.35902  -0.35677  -0.35435  -0.34576
 Alpha  occ. eigenvalues --   -0.34407  -0.34364  -0.34166  -0.33877  -0.33778
 Alpha  occ. eigenvalues --   -0.33622  -0.33375  -0.32731  -0.32687  -0.32423
 Alpha  occ. eigenvalues --   -0.32064  -0.31479  -0.31266  -0.31008  -0.30900
 Alpha  occ. eigenvalues --   -0.30471  -0.29944  -0.29545  -0.29003  -0.28497
 Alpha  occ. eigenvalues --   -0.27812  -0.27245  -0.26213  -0.24697  -0.23207
 Alpha  occ. eigenvalues --   -0.21211  -0.18870  -0.15474
 Alpha virt. eigenvalues --   -0.09368  -0.05489  -0.02078   0.00710   0.02980
 Alpha virt. eigenvalues --    0.04685   0.05262   0.06314   0.07067   0.07494
 Alpha virt. eigenvalues --    0.07669   0.07803   0.08295   0.08428   0.08852

 Mulliken charges:
               1
     1  C   -0.029541
     2  C   -0.017538
     3  C   -0.167696
     4  C   -0.141008
     5  C   -0.184760
     6  C   -0.178285
     7  C    0.132264
     8  C    0.145064
     9  C   -0.216771
    10  C   -0.201594
    11  C    0.063359
    12  C    0.014774
    13  C   -0.291165
    14  C   -0.287399
    15  C   -0.289737
    16  C   -0.278167
    17  C   -0.184978
    18  C   -0.155291
    19  C   -0.355077
    20  C   -0.347149
    21  C   -0.081107
    22  C   -0.112439
    23  C    0.159689
    24  C    0.102132
    25  C   -0.375621
    26  C   -0.362007
    27  C   -0.128841
    28  C   -0.097182
    29  C   -0.088356
    30  C   -0.090266
    31  C   -0.114570
    32  C   -0.108917
    33  C    0.115235
    34  C    0.104909
    35  C   -0.342930
    36  C   -0.377115
    37  C   -0.123131
    38  C   -0.115991
    39  C   -0.091278
    40  C   -0.062235
    41  H    0.103294
    42  H    0.074840
    43  H    0.054420
    44  H    0.080906
    45  H    0.089003
    46  H    0.074176
    47  H    0.094885
    48  H    0.093993
    49  H    0.091713
    50  H    0.087802
    51  H    0.102141
    52  H    0.107630
    53  H    0.107687
    54  H    0.103329
    55  H    0.092455
    56  H    0.078646
    57  H    0.099844
    58  H    0.088766
    59  H    0.120669
    60  H    0.093354
    61  H    0.066170
    62  H    0.105359
    63  H    0.090946
    64  H    0.059616
    65  H    0.071611
    66  H    0.071547
    67  H    0.109424
    68  H    0.091462
    69  H    0.110849
    70  H    0.124414
    71  H    0.086623
    72  H    0.078219
    73  H    0.068913
    74  H    0.078127
    75  H    0.105486
    76  H    0.105724
    77  H    0.128577
    78  H    0.131351
    79  H    0.109193
    80  H    0.094323
    81  H    0.072591
    82  H    0.085401
    83  H    0.071642
    84  H    0.080245
    85  H    0.076369
    86  H    0.072551
    87  H    0.126458
    88  H    0.110822
    89  H    0.077214
    90  H    0.129668
    91  H    0.140247
    92  H    0.108859
    93  H    0.072856
    94  H    0.079948
    95  H    0.066157
    96  H    0.062202
 Sum of Mulliken charges =  -0.00000

 Dipole moment (field-independent basis, Debye):
    X=             -0.9668    Y=             -0.1248    Z=              0.0532  Tot=              0.9763
 Quadrupole moment (field-independent basis, Debye-Ang):
   XX=           -221.0645   YY=           -233.0854   ZZ=           -259.8014
   XY=             -0.7685   XZ=              5.0120   YZ=              1.2453

 Normal termination of Gaussian 16 at Wed Jul 31 19:08:24 2019.
