 Gaussian 16, Revision A.03,
 Gaussian 16:  ES64L-G16RevA.03 25-Dec-2016

 ---------------------------------
 # td=(NStates=1) B3LYP/6-31G(d,p)
 ---------------------------------

 --
 TD
 --
 Symbolic Z-matrix:
 Charge =  0 Multiplicity = 1

                         Standard orientation:
 ---------------------------------------------------------------------
 Center     Atomic      Atomic             Coordinates (Angstroms)
 Number     Number       Type             X           Y           Z
 ---------------------------------------------------------------------
      1          6           0       12.227803    0.591397   -0.649633
      2          6           0      -12.237541   -0.153704    0.747785
      3          6           0       13.439542   -0.190247   -0.460044
      4          6           0      -13.179063    1.065842    1.304779
      5          6           0       13.189281   -1.707444   -0.443516
      6          6           0      -13.410156    2.049682    0.103305
      7          6           0       11.045649   -0.049102    0.161000
      8          6           0      -10.989740    0.496554   -0.060035
      9          6           0       12.226933   -2.139315    0.824668
     10          6           0      -12.103815    2.653797   -0.303652
     11          6           0       11.093501   -1.233880    0.828672
     12          6           0      -11.033589    1.730767   -0.706152
     13          6           0       11.874058    0.618489   -2.098075
     14          6           0       12.474215    2.053916   -0.273984
     15          6           0      -13.012295   -1.120266    0.003429
     16          6           0      -11.663375   -0.896191    2.054195
     17          6           0        9.917140    0.848380    0.230176
     18          6           0       -9.929970   -0.508446   -0.327379
     19          6           0       10.039413   -1.692773    1.808023
     20          6           0       -9.945782    2.205458   -1.606048
     21          6           0        8.616399    0.507315    0.202054
     22          6           0       -8.567743   -0.261125   -0.105394
     23          6           0        7.435429    1.204952    0.280921
     24          6           0       -7.549560   -1.185867   -0.369489
     25          6           0        7.611442    2.757824    0.608521
     26          6           0       -7.887496   -2.588090   -0.803969
     27          6           0        6.238322    0.770451    0.139396
     28          6           0       -6.154053   -0.791932   -0.177115
     29          6           0        4.876901    1.258089    0.325971
     30          6           0       -4.947234   -1.469745   -0.338433
     31          6           0        3.697855    0.515321    0.253132
     32          6           0       -3.696387   -1.003678   -0.219630
     33          6           0        2.421673    1.181803    0.357271
     34          6           0       -2.497807   -1.813457   -0.392955
     35          6           0        2.291343    2.604758    0.601240
     36          6           0       -2.679193   -3.286431   -0.842086
     37          6           0        1.294394    0.389093    0.231231
     38          6           0       -1.336367   -1.140845   -0.173999
     39          6           0        1.140264   -0.997312   -0.147109
     40          6           0       -0.090750   -1.642617   -0.425935
     41          1           0       14.042132    0.184185    0.454176
     42          1           0       14.209616    0.008595   -1.276190
     43          1           0      -12.630196    1.680018    2.136804
     44          1           0      -14.155564    0.626787    1.588289
     45          1           0       14.217392   -2.427895   -0.235796
     46          1           0       12.973673   -1.890945   -1.457893
     47          1           0      -14.057804    2.805942    0.380897
     48          1           0      -14.053222    1.596291   -0.770889
     49          1           0       12.874209   -2.239302    1.673379
     50          1           0       11.759083   -3.169130    0.493622
     51          1           0      -11.493455    3.339892    0.366596
     52          1           0      -12.126953    3.267624   -1.221080
     53          1           0       11.632678   -0.408811   -2.489301
     54          1           0       12.585862    1.094665   -2.785597
     55          1           0       10.899150    1.216625   -2.275602
     56          1           0       12.433125    2.183687    0.820564
     57          1           0       11.729316    2.819129   -0.585766
     58          1           0       13.549256    2.350790   -0.599626
     59          1           0      -13.532891   -0.575525   -0.805401
     60          1           0      -13.700351   -1.401584    0.789719
     61          1           0      -12.376568   -1.889889   -0.372840
     62          1           0      -11.063211   -0.235797    2.765304
     63          1           0      -11.003820   -1.580918    1.752382
     64          1           0      -12.440782   -1.432753    2.645056
     65          1           0       10.069372    1.883385    0.536300
     66          1           0      -10.244160   -1.612311   -0.485021
     67          1           0        9.244284   -1.002219    1.962511
     68          1           0       10.522302   -1.722367    2.831243
     69          1           0        9.675083   -2.500831    1.296977
     70          1           0       -9.448124    1.274546   -2.099519
     71          1           0       -9.270757    2.886970   -1.183961
     72          1           0      -10.447870    2.689196   -2.472588
     73          1           0        8.339440   -0.616209    0.075228
     74          1           0       -8.159719    0.787485    0.073058
     75          1           0        8.611813    2.868801    1.377361
     76          1           0        6.678690    3.453731    0.875880
     77          1           0        7.769690    3.298986   -0.196209
     78          1           0       -8.437616   -2.468249   -1.889975
     79          1           0       -8.478388   -3.109770    0.000699
     80          1           0       -7.036691   -3.292057   -1.096618
     81          1           0        6.121087   -0.319869    0.196182
     82          1           0       -6.219485    0.291218   -0.030183
     83          1           0        4.711505    2.223084    0.487614
     84          1           0       -5.139896   -2.606486   -0.694211
     85          1           0        3.759332   -0.675885    0.368270
     86          1           0       -3.653824    0.157446   -0.075701
     87          1           0        2.820912    2.772672    1.472119
     88          1           0        1.304543    2.977090    0.626512
     89          1           0        2.686967    3.226412   -0.199437
     90          1           0       -3.465528   -3.460258   -1.542982
     91          1           0       -3.194164   -3.889080    0.116290
     92          1           0       -1.794340   -3.792239   -1.313837
     93          1           0        0.325348    1.096452    0.043035
     94          1           0       -1.300247   -0.163047    0.245049
     95          1           0        1.984097   -1.709366   -0.448528
     96          1           0       -0.042191   -2.657434   -0.693174
 ---------------------------------------------------------------------

 SCF Done:  E(RB3LYP) =  -1557.60032250     A.U. after   16 cycles

 Excitation energies and oscillator strengths:

 Excited State   1:      Singlet-A      2.0349 eV  609.29 nm  f=3.1702  <S**2>=0.000
     148 ->149         0.70575
     148 <-149        -0.12021
 This state for optimization and/or second-order correction.
 Total Energy, E(TD-HF/TD-DFT) =  -1557.52554140
 Copying the excited state density for this state as the 1-particle RhoCI density.

 The electronic state is 1-A.
 Alpha  occ. eigenvalues --  -10.20591 -10.20433 -10.20165 -10.20093 -10.20000
 Alpha  occ. eigenvalues --  -10.19934 -10.19919 -10.19842 -10.19822 -10.19530
 Alpha  occ. eigenvalues --  -10.19484 -10.19376 -10.19266 -10.19239 -10.19216
 Alpha  occ. eigenvalues --  -10.19092 -10.19087 -10.19047 -10.18928 -10.18905
 Alpha  occ. eigenvalues --  -10.18867 -10.18791 -10.18545 -10.18527 -10.18431
 Alpha  occ. eigenvalues --  -10.18285 -10.18283 -10.18234 -10.18152 -10.18001
 Alpha  occ. eigenvalues --  -10.17965 -10.17904 -10.17881 -10.17724 -10.17484
 Alpha  occ. eigenvalues --  -10.17221 -10.17174 -10.16588 -10.16581 -10.16316
 Alpha  occ. eigenvalues --   -0.85763  -0.84223  -0.83852  -0.83248  -0.82481
 Alpha  occ. eigenvalues --   -0.81503  -0.79945  -0.79356  -0.78678  -0.77377
 Alpha  occ. eigenvalues --   -0.76181  -0.74860  -0.74199  -0.72013  -0.71758
 Alpha  occ. eigenvalues --   -0.70555  -0.68349  -0.68207  -0.67969  -0.67826
 Alpha  occ. eigenvalues --   -0.67540  -0.67497  -0.67095  -0.66931  -0.65930
 Alpha  occ. eigenvalues --   -0.62963  -0.61972  -0.60036  -0.59127  -0.57436
 Alpha  occ. eigenvalues --   -0.56589  -0.55317  -0.54723  -0.53830  -0.52771
 Alpha  occ. eigenvalues --   -0.52011  -0.50842  -0.50463  -0.49606  -0.49016
 Alpha  occ. eigenvalues --   -0.48149  -0.47695  -0.46855  -0.46606  -0.46337
 Alpha  occ. eigenvalues --   -0.45509  -0.45404  -0.44752  -0.44467  -0.44259
 Alpha  occ. eigenvalues --   -0.43607  -0.43589  -0.43296  -0.42998  -0.42525
 Alpha  occ. eigenvalues --   -0.42056  -0.41788  -0.41595  -0.41063  -0.40781
 Alpha  occ. eigenvalues --   -0.40756  -0.40605  -0.39893  -0.39559  -0.39253
 Alpha  occ. eigenvalues --   -0.39100  -0.38750  -0.38629  -0.38433  -0.38338
 Alpha  occ. eigenvalues --   -0.37946  -0.37462  -0.37092  -0.36753  -0.36699
 Alpha  occ. eigenvalues --   -0.36345  -0.36129  -0.35467  -0.35343  -0.35101
 Alpha  occ. eigenvalues --   -0.34961  -0.34908  -0.34309  -0.33950  -0.33370
 Alpha  occ. eigenvalues --   -0.33306  -0.33182  -0.33062  -0.32433  -0.32401
 Alpha  occ. eigenvalues --   -0.32085  -0.31964  -0.31404  -0.31138  -0.30820
 Alpha  occ. eigenvalues --   -0.30074  -0.29836  -0.29613  -0.29374  -0.28257
 Alpha  occ. eigenvalues --   -0.27808  -0.27559  -0.26501  -0.24260  -0.22731
 Alpha  occ. eigenvalues --   -0.20950  -0.18674  -0.15842
 Alpha virt. eigenvalues --   -0.08465  -0.05401  -0.02115   0.00867   0.02455
 Alpha virt. eigenvalues --    0.04016   0.06269   0.06466   0.07131   0.07328
 Alpha virt. eigenvalues --    0.07706   0.07841   0.08193   0.08904   0.09145

 Mulliken charges:
               1
     1  C    0.033994
     2  C   -0.013218
     3  C   -0.180937
     4  C   -0.176506
     5  C   -0.191711
     6  C   -0.185677
     7  C    0.073626
     8  C    0.060659
     9  C   -0.212071
    10  C   -0.201075
    11  C    0.043708
    12  C    0.055969
    13  C   -0.288908
    14  C   -0.313747
    15  C   -0.273315
    16  C   -0.305215
    17  C   -0.128463
    18  C   -0.172366
    19  C   -0.342893
    20  C   -0.366416
    21  C   -0.112168
    22  C   -0.090450
    23  C    0.198618
    24  C    0.129045
    25  C   -0.374090
    26  C   -0.370399
    27  C   -0.165647
    28  C   -0.130120
    29  C   -0.078455
    30  C   -0.062472
    31  C   -0.099425
    32  C   -0.113217
    33  C    0.119340
    34  C    0.115137
    35  C   -0.377402
    36  C   -0.371228
    37  C   -0.144811
    38  C   -0.075234
    39  C   -0.091042
    40  C   -0.104164
    41  H    0.074168
    42  H    0.079649
    43  H    0.090893
    44  H    0.082852
    45  H    0.041295
    46  H    0.114442
    47  H    0.101105
    48  H    0.085667
    49  H    0.123370
    50  H    0.092127
    51  H    0.107594
    52  H    0.084438
    53  H    0.091116
    54  H    0.098394
    55  H    0.090920
    56  H    0.099126
    57  H    0.103943
    58  H    0.090897
    59  H    0.097945
    60  H    0.103110
    61  H    0.104645
    62  H    0.090718
    63  H    0.108088
    64  H    0.085361
    65  H    0.082607
    66  H    0.085409
    67  H    0.119837
    68  H    0.103050
    69  H    0.124209
    70  H    0.118825
    71  H    0.124979
    72  H    0.099117
    73  H    0.059724
    74  H    0.080057
    75  H    0.079482
    76  H    0.083542
    77  H    0.141160
    78  H    0.098204
    79  H    0.120327
    80  H    0.102255
    81  H    0.057798
    82  H    0.058259
    83  H    0.062093
    84  H    0.055757
    85  H    0.084206
    86  H    0.080126
    87  H    0.135360
    88  H    0.112701
    89  H    0.121990
    90  H    0.133437
    91  H    0.102147
    92  H    0.113636
    93  H    0.064250
    94  H    0.081629
    95  H    0.082212
    96  H    0.072503
 Sum of Mulliken charges =  -0.00000

 Dipole moment (field-independent basis, Debye):
    X=             -1.0036    Y=              0.5422    Z=             -0.3289  Tot=              1.1872
 Quadrupole moment (field-independent basis, Debye-Ang):
   XX=           -222.8031   YY=           -233.2082   ZZ=           -254.9865
   XY=             -2.5640   XZ=              7.1361   YZ=              2.5080

 Normal termination of Gaussian 16 at Sat Jul 27 06:36:27 2019.
