 Gaussian 16, Revision A.03,
 Gaussian 16:  ES64L-G16RevA.03 25-Dec-2016

 ---------------------------------
 # td=(NStates=1) B3LYP/6-31G(d,p)
 ---------------------------------

 --
 TD
 --
 Symbolic Z-matrix:
 Charge =  0 Multiplicity = 1

                         Standard orientation:
 ---------------------------------------------------------------------
 Center     Atomic      Atomic             Coordinates (Angstroms)
 Number     Number       Type             X           Y           Z
 ---------------------------------------------------------------------
      1          6           0       12.122664    0.640194   -0.584841
      2          6           0      -11.995972   -0.039071    0.930905
      3          6           0       13.457657   -0.237446   -0.444954
      4          6           0      -12.939320    1.192007    1.414079
      5          6           0       13.253001   -1.767513   -0.483181
      6          6           0      -13.502857    2.102013    0.222623
      7          6           0       10.995486    0.035822    0.155696
      8          6           0      -10.975182    0.440536   -0.083993
      9          6           0       12.278002   -2.154710    0.605807
     10          6           0      -12.204805    2.680258   -0.447556
     11          6           0       11.147426   -1.124378    0.859593
     12          6           0      -11.008585    1.692324   -0.792816
     13          6           0       11.810786    0.642098   -2.057931
     14          6           0       12.491818    2.011825   -0.243633
     15          6           0      -12.954876   -1.135844    0.267222
     16          6           0      -11.303590   -0.577541    2.107090
     17          6           0        9.931431    0.884858    0.472305
     18          6           0       -9.929064   -0.590636   -0.386465
     19          6           0       10.115950   -1.676682    1.839436
     20          6           0      -10.053244    2.151229   -1.765849
     21          6           0        8.626972    0.493241    0.361487
     22          6           0       -8.558153   -0.319776   -0.374093
     23          6           0        7.346061    1.285375    0.321164
     24          6           0       -7.538251   -1.374233   -0.479335
     25          6           0        7.482032    2.814958    0.595843
     26          6           0       -7.879938   -2.801334   -0.803639
     27          6           0        6.104620    0.716432    0.337498
     28          6           0       -6.187511   -0.954570   -0.246996
     29          6           0        4.839233    1.292137    0.218119
     30          6           0       -5.014170   -1.793532   -0.341505
     31          6           0        3.677059    0.637256    0.122310
     32          6           0       -3.838140   -1.171496   -0.250397
     33          6           0        2.368455    1.249012    0.230933
     34          6           0       -2.554225   -1.902584   -0.388190
     35          6           0        2.237012    2.774407    0.405177
     36          6           0       -2.651393   -3.352513   -0.567719
     37          6           0        1.199428    0.441862    0.115689
     38          6           0       -1.323711   -1.213928   -0.348011
     39          6           0        1.039032   -0.911701   -0.203668
     40          6           0       -0.056594   -1.693271   -0.373398
     41          1           0       13.960054    0.009051    0.515651
     42          1           0       14.103807    0.231734   -1.120842
     43          1           0      -12.475448    1.806295    2.226119
     44          1           0      -13.825169    0.752986    1.837158
     45          1           0       14.177582   -2.197094   -0.232686
     46          1           0       12.811306   -2.135978   -1.518676
     47          1           0      -14.209417    2.980171    0.618743
     48          1           0      -14.188636    1.586024   -0.533597
     49          1           0       12.961696   -2.390431    1.376898
     50          1           0       12.100469   -3.186779    0.415571
     51          1           0      -11.768069    3.572598    0.247637
     52          1           0      -12.131792    3.227040   -1.553135
     53          1           0       11.297451   -0.311205   -2.388444
     54          1           0       12.591196    0.863300   -2.695572
     55          1           0       11.057178    1.319591   -2.067979
     56          1           0       12.718139    2.198431    0.753112
     57          1           0       11.785746    2.904148   -0.642059
     58          1           0       13.340759    2.405641   -0.754119
     59          1           0      -13.790873   -0.468183   -0.319995
     60          1           0      -13.485673   -1.581926    0.903829
     61          1           0      -12.169920   -1.648454   -0.506419
     62          1           0      -10.663422    0.300001    2.464880
     63          1           0      -11.028233   -1.520794    2.057529
     64          1           0      -12.137166   -0.672173    3.010385
     65          1           0       10.116608    2.013788    0.536152
     66          1           0      -10.218002   -1.641484   -0.315494
     67          1           0        9.560655   -0.968962    2.335116
     68          1           0       10.717252   -2.271991    2.611687
     69          1           0        9.617344   -2.513318    1.304741
     70          1           0       -9.482551    1.160539   -2.070304
     71          1           0       -9.282414    2.762628   -1.170220
     72          1           0      -10.526909    2.922956   -2.503505
     73          1           0        8.349889   -0.590306    0.241384
     74          1           0       -8.215017    0.838036   -0.145309
     75          1           0        8.167351    3.097521    1.371570
     76          1           0        6.775638    3.294049    0.936511
     77          1           0        7.922063    3.261864   -0.409186
     78          1           0       -8.593189   -2.832522   -1.721915
     79          1           0       -8.470695   -3.186328   -0.011593
     80          1           0       -7.218500   -3.513171   -1.001066
     81          1           0        6.114511   -0.375725    0.264318
     82          1           0       -6.139820    0.104175   -0.020999
     83          1           0        4.927102    2.456191    0.260277
     84          1           0       -5.105107   -2.818666   -0.476675
     85          1           0        3.601021   -0.403942    0.136299
     86          1           0       -3.510208   -0.168885   -0.024635
     87          1           0        2.716617    2.928933    1.200361
     88          1           0        1.245972    3.089837    0.522422
     89          1           0        2.492132    3.409903   -0.479688
     90          1           0       -3.314616   -3.542875   -1.331148
     91          1           0       -3.078190   -3.806049    0.131549
     92          1           0       -1.722754   -3.917177   -0.865985
     93          1           0        0.474350    1.006703    0.107095
     94          1           0       -1.506144   -0.061040   -0.214750
     95          1           0        2.015617   -1.450950   -0.394237
     96          1           0        0.211183   -2.638252   -0.385593
 ---------------------------------------------------------------------

 SCF Done:  E(RB3LYP) =  -1557.49043291     A.U. after   16 cycles

 Excitation energies and oscillator strengths:

 Excited State   1:      Singlet-A      2.0272 eV  611.59 nm  f=3.1521  <S**2>=0.000
     148 ->149         0.70671
     148 <-149        -0.11573
 This state for optimization and/or second-order correction.
 Total Energy, E(TD-HF/TD-DFT) =  -1557.41593312
 Copying the excited state density for this state as the 1-particle RhoCI density.

 The electronic state is 1-A.
 Alpha  occ. eigenvalues --  -10.20677 -10.20596 -10.20518 -10.20486 -10.20445
 Alpha  occ. eigenvalues --  -10.20314 -10.19855 -10.19627 -10.19591 -10.19586
 Alpha  occ. eigenvalues --  -10.19177 -10.19138 -10.19052 -10.18992 -10.18984
 Alpha  occ. eigenvalues --  -10.18899 -10.18780 -10.18746 -10.18697 -10.18665
 Alpha  occ. eigenvalues --  -10.18647 -10.18591 -10.18573 -10.18163 -10.18033
 Alpha  occ. eigenvalues --  -10.17991 -10.17940 -10.17928 -10.17801 -10.17382
 Alpha  occ. eigenvalues --  -10.17356 -10.17309 -10.17145 -10.17076 -10.16977
 Alpha  occ. eigenvalues --  -10.16973 -10.16701 -10.16638 -10.15785 -10.15115
 Alpha  occ. eigenvalues --   -0.85944  -0.83939  -0.83688  -0.83024  -0.81735
 Alpha  occ. eigenvalues --   -0.80815  -0.79545  -0.79230  -0.78235  -0.78050
 Alpha  occ. eigenvalues --   -0.76308  -0.75228  -0.74593  -0.72427  -0.72027
 Alpha  occ. eigenvalues --   -0.71814  -0.69668  -0.69394  -0.68944  -0.68413
 Alpha  occ. eigenvalues --   -0.68070  -0.67866  -0.67502  -0.66072  -0.65241
 Alpha  occ. eigenvalues --   -0.63250  -0.61902  -0.59317  -0.58848  -0.57567
 Alpha  occ. eigenvalues --   -0.56656  -0.55811  -0.55424  -0.54833  -0.53696
 Alpha  occ. eigenvalues --   -0.52648  -0.52207  -0.51044  -0.49951  -0.49240
 Alpha  occ. eigenvalues --   -0.48227  -0.47737  -0.47205  -0.46741  -0.46085
 Alpha  occ. eigenvalues --   -0.45872  -0.45702  -0.45143  -0.44670  -0.44438
 Alpha  occ. eigenvalues --   -0.44233  -0.43737  -0.43444  -0.43072  -0.43018
 Alpha  occ. eigenvalues --   -0.42468  -0.41885  -0.41804  -0.41468  -0.41406
 Alpha  occ. eigenvalues --   -0.41286  -0.40737  -0.40559  -0.40286  -0.40170
 Alpha  occ. eigenvalues --   -0.39789  -0.38800  -0.38632  -0.38117  -0.37991
 Alpha  occ. eigenvalues --   -0.37726  -0.37680  -0.37075  -0.36708  -0.36410
 Alpha  occ. eigenvalues --   -0.36062  -0.35995  -0.35719  -0.35385  -0.35301
 Alpha  occ. eigenvalues --   -0.34764  -0.34563  -0.34397  -0.34002  -0.33768
 Alpha  occ. eigenvalues --   -0.33466  -0.33137  -0.32975  -0.32695  -0.32581
 Alpha  occ. eigenvalues --   -0.32160  -0.31806  -0.31620  -0.31492  -0.31252
 Alpha  occ. eigenvalues --   -0.30443  -0.30196  -0.29835  -0.29119  -0.28310
 Alpha  occ. eigenvalues --   -0.28104  -0.27819  -0.26682  -0.23839  -0.22254
 Alpha  occ. eigenvalues --   -0.20299  -0.18468  -0.15844
 Alpha virt. eigenvalues --   -0.08420  -0.05029  -0.02092   0.00754   0.02362
 Alpha virt. eigenvalues --    0.04163   0.06157   0.06790   0.07330   0.07438
 Alpha virt. eigenvalues --    0.08288   0.08542   0.08805   0.09166   0.09821

 Mulliken charges:
               1
     1  C   -0.029146
     2  C   -0.002918
     3  C   -0.162401
     4  C   -0.185992
     5  C   -0.196689
     6  C   -0.189492
     7  C    0.110264
     8  C    0.068411
     9  C   -0.224271
    10  C   -0.185415
    11  C    0.059593
    12  C    0.077770
    13  C   -0.279866
    14  C   -0.310541
    15  C   -0.284171
    16  C   -0.265295
    17  C   -0.154662
    18  C   -0.158427
    19  C   -0.355852
    20  C   -0.369239
    21  C   -0.091441
    22  C   -0.111740
    23  C    0.091116
    24  C    0.106530
    25  C   -0.350854
    26  C   -0.377380
    27  C   -0.122403
    28  C   -0.118981
    29  C   -0.071110
    30  C   -0.096541
    31  C   -0.090308
    32  C   -0.068705
    33  C    0.042620
    34  C    0.099180
    35  C   -0.356992
    36  C   -0.379064
    37  C   -0.058927
    38  C   -0.131653
    39  C   -0.105176
    40  C   -0.041716
    41  H    0.073875
    42  H    0.083713
    43  H    0.093676
    44  H    0.092225
    45  H    0.096367
    46  H    0.078200
    47  H    0.080805
    48  H    0.103008
    49  H    0.104695
    50  H    0.104250
    51  H    0.080481
    52  H    0.053618
    53  H    0.088300
    54  H    0.102087
    55  H    0.106331
    56  H    0.111415
    57  H    0.069464
    58  H    0.104338
    59  H    0.074355
    60  H    0.113079
    61  H    0.092006
    62  H    0.106297
    63  H    0.110010
    64  H    0.051272
    65  H    0.090566
    66  H    0.082372
    67  H    0.127673
    68  H    0.089330
    69  H    0.117897
    70  H    0.123884
    71  H    0.113045
    72  H    0.099041
    73  H    0.078989
    74  H    0.084948
    75  H    0.111874
    76  H    0.109444
    77  H    0.097061
    78  H    0.105308
    79  H    0.127568
    80  H    0.118251
    81  H    0.064829
    82  H    0.076411
    83  H    0.076796
    84  H    0.088366
    85  H    0.079478
    86  H    0.078210
    87  H    0.135665
    88  H    0.107759
    89  H    0.116715
    90  H    0.123063
    91  H    0.133118
    92  H    0.098690
    93  H    0.039224
    94  H    0.064998
    95  H    0.064448
    96  H    0.072993
 Sum of Mulliken charges =  -0.00000

 Dipole moment (field-independent basis, Debye):
    X=              0.8620    Y=             -0.4192    Z=              0.8984  Tot=              1.3137
 Quadrupole moment (field-independent basis, Debye-Ang):
   XX=           -223.9202   YY=           -229.0118   ZZ=           -256.9431
   XY=              5.7746   XZ=             -3.0802   YZ=              1.9010

 Normal termination of Gaussian 16 at Tue Jul 30 19:41:53 2019.
