 Gaussian 16, Revision A.03,
 Gaussian 16:  ES64L-G16RevA.03 25-Dec-2016

 ---------------------------------
 # td=(NStates=1) B3LYP/6-31G(d,p)
 ---------------------------------

 --
 TD
 --
 Symbolic Z-matrix:
 Charge =  0 Multiplicity = 1

                         Standard orientation:
 ---------------------------------------------------------------------
 Center     Atomic      Atomic             Coordinates (Angstroms)
 Number     Number       Type             X           Y           Z
 ---------------------------------------------------------------------
      1          6           0      -12.066327   -0.565435   -0.680553
      2          6           0       12.071949    0.004641    0.840392
      3          6           0      -13.374109    0.246767   -0.697051
      4          6           0       13.090529   -1.094821    1.287850
      5          6           0      -13.118065    1.842780   -0.711554
      6          6           0       13.441463   -2.053902    0.151450
      7          6           0      -11.011018    0.046048    0.225167
      8          6           0       11.009084   -0.490833   -0.082368
      9          6           0      -12.432272    2.140223    0.583422
     10          6           0       12.181471   -2.593013   -0.537728
     11          6           0      -11.164774    1.251830    0.852969
     12          6           0       11.055128   -1.580018   -0.780951
     13          6           0      -11.567397   -0.705064   -2.104837
     14          6           0      -12.635795   -1.995548   -0.156925
     15          6           0       12.886579    1.137996    0.133119
     16          6           0       11.498598    0.702766    2.098086
     17          6           0       -9.820570   -0.849092    0.303315
     18          6           0        9.915945    0.554302   -0.158222
     19          6           0      -10.130115    1.830704    1.865841
     20          6           0       10.099200   -2.022910   -1.804736
     21          6           0       -8.538409   -0.488684    0.276588
     22          6           0        8.591799    0.281056   -0.276149
     23          6           0       -7.423757   -1.326290    0.438675
     24          6           0        7.469400    1.229642   -0.362788
     25          6           0       -7.659805   -2.767475    0.816027
     26          6           0        7.850453    2.743381   -0.587029
     27          6           0       -6.184753   -0.689080    0.297057
     28          6           0        6.101674    0.876164   -0.376465
     29          6           0       -4.874262   -1.386254    0.314327
     30          6           0        4.920103    1.731978   -0.339303
     31          6           0       -3.561290   -0.854453    0.077094
     32          6           0        3.724558    1.115556   -0.337333
     33          6           0       -2.309109   -1.426473    0.229726
     34          6           0        2.463318    1.839312   -0.468964
     35          6           0       -2.283037   -2.856012    0.469971
     36          6           0        2.631990    3.394659   -0.691101
     37          6           0       -1.238039   -0.597541    0.165439
     38          6           0        1.337162    1.072599   -0.283011
     39          6           0       -1.133530    0.865926   -0.094021
     40          6           0        0.017639    1.572552   -0.256112
     41          1           0      -13.721711    0.034208    0.298607
     42          1           0      -14.063755    0.104628   -1.411960
     43          1           0       12.689707   -1.897392    2.181441
     44          1           0       13.983657   -0.702783    1.772342
     45          1           0      -14.130319    2.356303   -0.749250
     46          1           0      -12.540208    2.083674   -1.749940
     47          1           0       14.452661   -2.704931    0.590640
     48          1           0       14.228486   -1.563062   -0.578657
     49          1           0      -13.188355    1.738035    1.398469
     50          1           0      -12.115354    3.203857    0.770344
     51          1           0       11.704861   -3.318196    0.056363
     52          1           0       12.494230   -3.259324   -1.601035
     53          1           0      -11.398393    0.439489   -2.431979
     54          1           0      -12.466946   -1.173911   -2.591641
     55          1           0      -10.730908   -1.377800   -2.397255
     56          1           0      -13.100509   -1.831893    0.772113
     57          1           0      -11.778315   -2.792212   -0.265422
     58          1           0      -13.560267   -2.266561   -0.797713
     59          1           0       13.598444    0.723638   -0.671824
     60          1           0       13.707276    1.550587    0.912856
     61          1           0       12.266455    2.005420   -0.362978
     62          1           0       10.708660    0.313535    2.642436
     63          1           0       10.968409    1.639834    1.965857
     64          1           0       12.282409    0.922607    2.816324
     65          1           0      -10.016669   -1.891406    0.525945
     66          1           0       10.094387    1.458025   -0.399137
     67          1           0       -9.522909    1.190682    2.636977
     68          1           0      -10.716507    2.579219    2.517095
     69          1           0       -9.428196    2.619530    1.677173
     70          1           0        9.500735   -1.111338   -1.994220
     71          1           0        9.412027   -2.782804   -1.532286
     72          1           0       10.700322   -2.403957   -2.698822
     73          1           0       -8.482560    0.601823    0.175090
     74          1           0        8.145539   -0.772275   -0.052474
     75          1           0       -7.850771   -2.665526    1.824100
     76          1           0       -6.545475   -3.182124    1.108395
     77          1           0       -8.304325   -3.413829    0.188900
     78          1           0        8.390030    2.942984   -1.658968
     79          1           0        8.459371    3.188634    0.150026
     80          1           0        6.888929    3.337002   -0.604126
     81          1           0       -6.159451    0.323401    0.212149
     82          1           0        5.830302   -0.176130   -0.240473
     83          1           0       -4.952346   -2.481033    0.537074
     84          1           0        4.882665    2.887258   -0.447010
     85          1           0       -3.726221    0.337703    0.037945
     86          1           0        3.728824   -0.196881   -0.405200
     87          1           0       -2.615548   -3.091037    1.564948
     88          1           0       -1.180410   -3.338591    0.577868
     89          1           0       -2.845068   -3.400772   -0.115060
     90          1           0        3.177081    3.424480   -1.656937
     91          1           0        3.223091    3.858285    0.157984
     92          1           0        1.733498    3.913570   -0.788449
     93          1           0       -0.124770   -1.081965    0.489627
     94          1           0        1.394036   -0.012995    0.226714
     95          1           0       -2.179215    1.425393   -0.211055
     96          1           0       -0.190276    2.858995   -0.207826
 ---------------------------------------------------------------------

 SCF Done:  E(RB3LYP) =  -1557.52131131     A.U. after   16 cycles

 Excitation energies and oscillator strengths:

 Excited State   1:      Singlet-A      2.2412 eV  553.21 nm  f=2.8775  <S**2>=0.000
     148 ->149         0.70813
 This state for optimization and/or second-order correction.
 Total Energy, E(TD-HF/TD-DFT) =  -1557.43894944
 Copying the excited state density for this state as the 1-particle RhoCI density.

 The electronic state is 1-A.
 Alpha  occ. eigenvalues --  -10.21142 -10.20749 -10.20728 -10.20719 -10.20524
 Alpha  occ. eigenvalues --  -10.20511 -10.20437 -10.20307 -10.20296 -10.20290
 Alpha  occ. eigenvalues --  -10.20093 -10.20068 -10.20000 -10.19964 -10.19879
 Alpha  occ. eigenvalues --  -10.19865 -10.19806 -10.19774 -10.19732 -10.19673
 Alpha  occ. eigenvalues --  -10.19646 -10.19501 -10.19409 -10.19319 -10.19317
 Alpha  occ. eigenvalues --  -10.19188 -10.19181 -10.18922 -10.18797 -10.18731
 Alpha  occ. eigenvalues --  -10.18681 -10.18364 -10.18073 -10.17929 -10.17773
 Alpha  occ. eigenvalues --  -10.17469 -10.17437 -10.17089 -10.16908 -10.15736
 Alpha  occ. eigenvalues --   -0.85309  -0.84778  -0.83835  -0.82999  -0.82578
 Alpha  occ. eigenvalues --   -0.80728  -0.78730  -0.78435  -0.77593  -0.77115
 Alpha  occ. eigenvalues --   -0.76462  -0.74526  -0.73976  -0.71817  -0.71691
 Alpha  occ. eigenvalues --   -0.70590  -0.69043  -0.68431  -0.68190  -0.67655
 Alpha  occ. eigenvalues --   -0.67436  -0.67283  -0.66539  -0.66093  -0.65700
 Alpha  occ. eigenvalues --   -0.62682  -0.61645  -0.59165  -0.58372  -0.57727
 Alpha  occ. eigenvalues --   -0.56658  -0.56058  -0.55122  -0.52985  -0.52498
 Alpha  occ. eigenvalues --   -0.52264  -0.51398  -0.50020  -0.49559  -0.48440
 Alpha  occ. eigenvalues --   -0.47947  -0.47521  -0.46885  -0.46386  -0.46013
 Alpha  occ. eigenvalues --   -0.45518  -0.44827  -0.44346  -0.44148  -0.43946
 Alpha  occ. eigenvalues --   -0.43144  -0.42946  -0.42841  -0.42711  -0.42353
 Alpha  occ. eigenvalues --   -0.42143  -0.41925  -0.41355  -0.41087  -0.40887
 Alpha  occ. eigenvalues --   -0.40400  -0.40134  -0.39864  -0.39190  -0.38931
 Alpha  occ. eigenvalues --   -0.38661  -0.38477  -0.38258  -0.38066  -0.37902
 Alpha  occ. eigenvalues --   -0.37561  -0.37122  -0.36748  -0.36693  -0.36651
 Alpha  occ. eigenvalues --   -0.36306  -0.35771  -0.35345  -0.35086  -0.35046
 Alpha  occ. eigenvalues --   -0.34752  -0.34266  -0.33891  -0.33722  -0.33410
 Alpha  occ. eigenvalues --   -0.33372  -0.33152  -0.33063  -0.32863  -0.32449
 Alpha  occ. eigenvalues --   -0.32134  -0.32002  -0.31419  -0.31017  -0.30891
 Alpha  occ. eigenvalues --   -0.30533  -0.29678  -0.29660  -0.29098  -0.28404
 Alpha  occ. eigenvalues --   -0.27932  -0.27141  -0.26096  -0.24241  -0.23096
 Alpha  occ. eigenvalues --   -0.21771  -0.19070  -0.16738
 Alpha virt. eigenvalues --   -0.08174  -0.05328  -0.01789   0.00608   0.02784
 Alpha virt. eigenvalues --    0.03666   0.04751   0.05754   0.06273   0.06387
 Alpha virt. eigenvalues --    0.07005   0.07548   0.07815   0.08147   0.08607

 Mulliken charges:
               1
     1  C   -0.017342
     2  C    0.001009
     3  C   -0.174344
     4  C   -0.162730
     5  C   -0.183073
     6  C   -0.172676
     7  C    0.071093
     8  C    0.103892
     9  C   -0.207650
    10  C   -0.202183
    11  C    0.062115
    12  C    0.062346
    13  C   -0.270363
    14  C   -0.304514
    15  C   -0.287066
    16  C   -0.303308
    17  C   -0.139585
    18  C   -0.119288
    19  C   -0.380994
    20  C   -0.362163
    21  C   -0.065458
    22  C   -0.103720
    23  C    0.104271
    24  C    0.092441
    25  C   -0.373788
    26  C   -0.371397
    27  C   -0.103983
    28  C   -0.133489
    29  C   -0.110605
    30  C   -0.075031
    31  C   -0.124914
    32  C   -0.087695
    33  C    0.173193
    34  C    0.092841
    35  C   -0.374043
    36  C   -0.372913
    37  C   -0.136919
    38  C   -0.116910
    39  C   -0.070627
    40  C   -0.087983
    41  H    0.090474
    42  H    0.094608
    43  H    0.058075
    44  H    0.093510
    45  H    0.086965
    46  H    0.078909
    47  H    0.052994
    48  H    0.084200
    49  H    0.101805
    50  H    0.093437
    51  H    0.128175
    52  H    0.053781
    53  H    0.082024
    54  H    0.087514
    55  H    0.103020
    56  H    0.114845
    57  H    0.088279
    58  H    0.089854
    59  H    0.095149
    60  H    0.077959
    61  H    0.096781
    62  H    0.107663
    63  H    0.093874
    64  H    0.092877
    65  H    0.075208
    66  H    0.085463
    67  H    0.113368
    68  H    0.084099
    69  H    0.122513
    70  H    0.119298
    71  H    0.120027
    72  H    0.097420
    73  H    0.080279
    74  H    0.067632
    75  H    0.153409
    76  H    0.079718
    77  H    0.130614
    78  H    0.094768
    79  H    0.125797
    80  H    0.098554
    81  H    0.076079
    82  H    0.078125
    83  H    0.066866
    84  H    0.090975
    85  H    0.062740
    86  H    0.060412
    87  H    0.109961
    88  H    0.090057
    89  H    0.140535
    90  H    0.134425
    91  H    0.129166
    92  H    0.119204
    93  H    0.050566
    94  H    0.090320
    95  H    0.082284
    96  H    0.056895
 Sum of Mulliken charges =  -0.00000

 Dipole moment (field-independent basis, Debye):
    X=             -1.9653    Y=              0.4687    Z=              0.9732  Tot=              2.2426
 Quadrupole moment (field-independent basis, Debye-Ang):
   XX=           -230.0871   YY=           -234.0573   ZZ=           -257.2263
   XY=              4.9743   XZ=             -3.6143   YZ=             -1.2240

 Normal termination of Gaussian 16 at Thu Aug  1 05:30:35 2019.
