 Gaussian 16, Revision A.03,
 Gaussian 16:  ES64L-G16RevA.03 25-Dec-2016

 ---------------------------------
 # td=(NStates=1) B3LYP/6-31G(d,p)
 ---------------------------------

 --
 TD
 --
 Symbolic Z-matrix:
 Charge =  0 Multiplicity = 1

                         Standard orientation:
 ---------------------------------------------------------------------
 Center     Atomic      Atomic             Coordinates (Angstroms)
 Number     Number       Type             X           Y           Z
 ---------------------------------------------------------------------
      1          6           0       12.035653    0.431820   -0.738877
      2          6           0      -12.001519    0.010370    0.953278
      3          6           0       13.340917   -0.259246   -0.640418
      4          6           0      -12.786705    1.180431    1.327203
      5          6           0       13.160481   -1.756392   -0.560316
      6          6           0      -13.372672    1.987722    0.221665
      7          6           0       11.045855    0.007489    0.330738
      8          6           0      -10.969331    0.380943   -0.112721
      9          6           0       12.296581   -2.159154    0.566151
     10          6           0      -12.164883    2.512562   -0.609225
     11          6           0       11.179051   -1.214878    0.921488
     12          6           0      -11.092320    1.498605   -0.824652
     13          6           0       11.389376    0.299655   -2.117029
     14          6           0       12.428131    1.975309   -0.626403
     15          6           0      -12.970547   -0.974731    0.140497
     16          6           0      -11.459688   -0.729602    2.183763
     17          6           0        9.805365    0.910309    0.565393
     18          6           0       -9.942234   -0.598805   -0.271853
     19          6           0       10.271829   -1.687260    2.086952
     20          6           0      -10.020483    1.930831   -1.912453
     21          6           0        8.553899    0.507829    0.482344
     22          6           0       -8.582154   -0.382261   -0.111040
     23          6           0        7.356856    1.367818    0.543301
     24          6           0       -7.463016   -1.192310   -0.338926
     25          6           0        7.628268    2.875921    0.895862
     26          6           0       -7.821336   -2.745802   -0.416074
     27          6           0        6.164170    0.763633    0.216803
     28          6           0       -6.113641   -0.798748   -0.270912
     29          6           0        4.834154    1.409064    0.397873
     30          6           0       -5.034363   -1.598150   -0.379266
     31          6           0        3.682189    0.702841    0.008429
     32          6           0       -3.772876   -1.034878   -0.436674
     33          6           0        2.410407    1.296841    0.167504
     34          6           0       -2.529354   -1.786073   -0.419030
     35          6           0        2.329835    2.785200    0.551562
     36          6           0       -2.492189   -3.214823   -0.792028
     37          6           0        1.257446    0.664017   -0.046490
     38          6           0       -1.365098   -1.104318   -0.283556
     39          6           0        1.103994   -0.801545   -0.217599
     40          6           0       -0.016519   -1.517996   -0.250908
     41          1           0       13.913546    0.378511    0.117216
     42          1           0       13.885632   -0.002992   -1.555622
     43          1           0      -12.273463    1.704934    1.940933
     44          1           0      -13.614417    0.718954    1.986871
     45          1           0       14.136635   -2.424120   -0.532205
     46          1           0       12.661991   -2.260686   -1.493755
     47          1           0      -14.086768    2.837972    0.416647
     48          1           0      -13.841413    1.316884   -0.484724
     49          1           0       12.978931   -2.381419    1.574455
     50          1           0       11.821528   -3.156395    0.152078
     51          1           0      -11.673640    3.447601   -0.285439
     52          1           0      -12.524017    2.634528   -1.658757
     53          1           0       11.206891   -0.858012   -2.244149
     54          1           0       12.119308    0.691241   -2.903183
     55          1           0       10.515959    0.785050   -2.304281
     56          1           0       12.839421    2.217993    0.572315
     57          1           0       11.627539    2.614818   -1.046832
     58          1           0       13.126804    2.256307   -1.529065
     59          1           0      -13.661760   -0.600756   -0.786836
     60          1           0      -13.771920   -1.259196    0.852949
     61          1           0      -12.461114   -1.796775   -0.439971
     62          1           0      -10.687878   -0.264888    2.732032
     63          1           0      -11.218241   -1.758453    1.997155
     64          1           0      -12.256995   -0.882208    2.879917
     65          1           0       10.117977    1.917771    0.691455
     66          1           0      -10.341916   -1.675311   -0.303605
     67          1           0        9.639004   -1.035995    2.535431
     68          1           0       10.841676   -2.005175    2.970795
     69          1           0        9.734352   -2.504276    1.632026
     70          1           0       -9.486963    1.098916   -2.197738
     71          1           0       -9.378452    2.705730   -1.318110
     72          1           0      -10.628135    2.247542   -2.855448
     73          1           0        8.253081   -0.516781    0.277081
     74          1           0       -8.450841    0.621065    0.134862
     75          1           0        8.291454    2.819663    1.658660
     76          1           0        6.840608    3.702043    0.947877
     77          1           0        8.096050    3.417658    0.003207
     78          1           0       -8.672614   -2.807948   -1.149415
     79          1           0       -8.427820   -2.990507    0.589365
     80          1           0       -7.155286   -3.487959   -0.547071
     81          1           0        6.024397   -0.199270   -0.157697
     82          1           0       -6.081880    0.192252   -0.272380
     83          1           0        4.515332    2.322941    1.029876
     84          1           0       -4.976068   -2.748457   -0.527934
     85          1           0        3.783583   -0.610921   -0.233021
     86          1           0       -3.808678   -0.013774   -0.259617
     87          1           0        3.234289    2.994727    1.347292
     88          1           0        1.203115    2.908732    0.931365
     89          1           0        2.595386    3.512706   -0.307672
     90          1           0       -3.110392   -3.313860   -1.716636
     91          1           0       -2.911624   -3.865817   -0.060501
     92          1           0       -1.531142   -3.544706   -1.156736
     93          1           0        0.411834    1.114024    0.096948
     94          1           0       -1.465441    0.039221   -0.173061
     95          1           0        2.058370   -1.282461   -0.340907
     96          1           0        0.203004   -2.624105   -0.332567
 ---------------------------------------------------------------------

 SCF Done:  E(RB3LYP) =  -1557.57791607     A.U. after   16 cycles

 Excitation energies and oscillator strengths:

 Excited State   1:      Singlet-A      2.2283 eV  556.41 nm  f=2.9238  <S**2>=0.000
     148 ->149         0.69983
     148 ->150         0.11178
 This state for optimization and/or second-order correction.
 Total Energy, E(TD-HF/TD-DFT) =  -1557.49602814
 Copying the excited state density for this state as the 1-particle RhoCI density.

 The electronic state is 1-A.
 Alpha  occ. eigenvalues --  -10.21289 -10.20798 -10.20796 -10.20098 -10.20060
 Alpha  occ. eigenvalues --  -10.19946 -10.19787 -10.19747 -10.19574 -10.19508
 Alpha  occ. eigenvalues --  -10.19441 -10.19166 -10.19153 -10.19102 -10.18968
 Alpha  occ. eigenvalues --  -10.18797 -10.18760 -10.18721 -10.18634 -10.18502
 Alpha  occ. eigenvalues --  -10.18495 -10.18492 -10.18385 -10.18344 -10.18298
 Alpha  occ. eigenvalues --  -10.18232 -10.17993 -10.17988 -10.17970 -10.17805
 Alpha  occ. eigenvalues --  -10.17741 -10.17694 -10.17655 -10.17433 -10.17280
 Alpha  occ. eigenvalues --  -10.17109 -10.17045 -10.16582 -10.16491 -10.16099
 Alpha  occ. eigenvalues --   -0.86050  -0.85267  -0.83891  -0.83283  -0.81931
 Alpha  occ. eigenvalues --   -0.81503  -0.79210  -0.78283  -0.78173  -0.77722
 Alpha  occ. eigenvalues --   -0.76724  -0.75354  -0.74326  -0.71830  -0.71267
 Alpha  occ. eigenvalues --   -0.69853  -0.68844  -0.68617  -0.68206  -0.67970
 Alpha  occ. eigenvalues --   -0.67527  -0.67375  -0.66921  -0.66222  -0.66019
 Alpha  occ. eigenvalues --   -0.63081  -0.62339  -0.60183  -0.58912  -0.57672
 Alpha  occ. eigenvalues --   -0.56101  -0.55923  -0.55696  -0.54285  -0.53271
 Alpha  occ. eigenvalues --   -0.53035  -0.51681  -0.50363  -0.49625  -0.49006
 Alpha  occ. eigenvalues --   -0.48315  -0.47532  -0.47033  -0.46884  -0.46177
 Alpha  occ. eigenvalues --   -0.45364  -0.45207  -0.44772  -0.44408  -0.44200
 Alpha  occ. eigenvalues --   -0.43715  -0.43524  -0.43191  -0.43070  -0.42795
 Alpha  occ. eigenvalues --   -0.42509  -0.42013  -0.41454  -0.40926  -0.40822
 Alpha  occ. eigenvalues --   -0.40526  -0.39955  -0.39785  -0.39718  -0.39055
 Alpha  occ. eigenvalues --   -0.38636  -0.38272  -0.38196  -0.38096  -0.37829
 Alpha  occ. eigenvalues --   -0.37729  -0.37614  -0.37090  -0.36768  -0.36484
 Alpha  occ. eigenvalues --   -0.36167  -0.35874  -0.35756  -0.35690  -0.35515
 Alpha  occ. eigenvalues --   -0.35052  -0.34659  -0.34524  -0.34337  -0.34188
 Alpha  occ. eigenvalues --   -0.33499  -0.33483  -0.33223  -0.32409  -0.32308
 Alpha  occ. eigenvalues --   -0.32222  -0.31997  -0.31526  -0.31404  -0.30840
 Alpha  occ. eigenvalues --   -0.30210  -0.30115  -0.29539  -0.29346  -0.28979
 Alpha  occ. eigenvalues --   -0.28706  -0.27208  -0.26012  -0.23816  -0.22415
 Alpha  occ. eigenvalues --   -0.21433  -0.18855  -0.16270
 Alpha virt. eigenvalues --   -0.07913  -0.05278  -0.01195   0.01074   0.03214
 Alpha virt. eigenvalues --    0.03849   0.05385   0.05924   0.06556   0.07325
 Alpha virt. eigenvalues --    0.07618   0.07726   0.08144   0.08470   0.08808

 Mulliken charges:
               1
     1  C   -0.008095
     2  C   -0.012085
     3  C   -0.144372
     4  C   -0.138223
     5  C   -0.192964
     6  C   -0.190900
     7  C    0.060489
     8  C    0.094583
     9  C   -0.188578
    10  C   -0.216159
    11  C    0.045659
    12  C    0.016844
    13  C   -0.283488
    14  C   -0.309004
    15  C   -0.305171
    16  C   -0.315983
    17  C   -0.150429
    18  C   -0.145576
    19  C   -0.346830
    20  C   -0.338876
    21  C   -0.062575
    22  C   -0.102152
    23  C    0.111057
    24  C    0.102566
    25  C   -0.363819
    26  C   -0.367310
    27  C   -0.144596
    28  C   -0.104291
    29  C   -0.089937
    30  C   -0.057825
    31  C   -0.086474
    32  C   -0.113755
    33  C    0.116036
    34  C    0.128879
    35  C   -0.353203
    36  C   -0.390598
    37  C   -0.092945
    38  C   -0.118771
    39  C   -0.079411
    40  C   -0.091814
    41  H    0.090752
    42  H    0.089134
    43  H    0.099255
    44  H    0.062066
    45  H    0.078633
    46  H    0.091382
    47  H    0.088182
    48  H    0.106087
    49  H    0.074082
    50  H    0.084729
    51  H    0.101611
    52  H    0.092859
    53  H    0.081065
    54  H    0.080496
    55  H    0.119765
    56  H    0.076439
    57  H    0.099605
    58  H    0.086557
    59  H    0.079474
    60  H    0.095137
    61  H    0.100689
    62  H    0.115979
    63  H    0.108082
    64  H    0.099296
    65  H    0.092209
    66  H    0.072872
    67  H    0.121599
    68  H    0.100032
    69  H    0.111340
    70  H    0.131897
    71  H    0.106628
    72  H    0.089456
    73  H    0.084202
    74  H    0.070948
    75  H    0.132905
    76  H    0.106905
    77  H    0.113790
    78  H    0.110338
    79  H    0.093648
    80  H    0.112608
    81  H    0.085839
    82  H    0.069882
    83  H    0.076050
    84  H    0.077985
    85  H    0.055653
    86  H    0.074007
    87  H    0.094707
    88  H    0.101447
    89  H    0.125008
    90  H    0.117925
    91  H    0.125179
    92  H    0.118970
    93  H    0.053304
    94  H    0.064857
    95  H    0.067017
    96  H    0.069538
 Sum of Mulliken charges =  -0.00000

 Dipole moment (field-independent basis, Debye):
    X=              0.0166    Y=              0.5232    Z=              0.1056  Tot=              0.5340
 Quadrupole moment (field-independent basis, Debye-Ang):
   XX=           -228.7139   YY=           -235.3712   ZZ=           -253.5546
   XY=              1.4830   XZ=             -4.3014   YZ=              2.9948

 Normal termination of Gaussian 16 at Sat Jul 27 00:51:04 2019.
