 Gaussian 16, Revision A.03,
 Gaussian 16:  ES64L-G16RevA.03 25-Dec-2016

 ---------------------------------
 # td=(NStates=1) B3LYP/6-31G(d,p)
 ---------------------------------

 --
 TD
 --
 Symbolic Z-matrix:
 Charge =  0 Multiplicity = 1

                         Standard orientation:
 ---------------------------------------------------------------------
 Center     Atomic      Atomic             Coordinates (Angstroms)
 Number     Number       Type             X           Y           Z
 ---------------------------------------------------------------------
      1          6           0      -12.245521   -0.492798   -0.698383
      2          6           0       12.072340   -0.085654    1.043520
      3          6           0      -13.463295    0.431193   -0.445791
      4          6           0       12.972103   -1.315205    1.494216
      5          6           0      -13.154381    1.933392   -0.350015
      6          6           0       13.453890   -2.021788    0.172726
      7          6           0      -11.171503   -0.020144    0.319840
      8          6           0       11.014344   -0.352616   -0.112561
      9          6           0      -12.380603    2.179817    0.910021
     10          6           0       12.203112   -2.378908   -0.619135
     11          6           0      -11.174118    1.145251    0.996193
     12          6           0       11.020651   -1.451778   -0.855279
     13          6           0      -11.747680   -0.514688   -2.114007
     14          6           0      -12.563760   -1.858509   -0.223714
     15          6           0       13.088847    0.993791    0.604971
     16          6           0       11.371062    0.391409    2.338133
     17          6           0       -9.906368   -0.956203    0.367908
     18          6           0        9.973163    0.597207   -0.140208
     19          6           0      -10.114050    1.539213    1.982666
     20          6           0       10.189769   -1.799941   -2.059193
     21          6           0       -8.669252   -0.630232    0.205739
     22          6           0        8.687340    0.350155   -0.208583
     23          6           0       -7.337183   -1.437873    0.403519
     24          6           0        7.605797    1.286224   -0.428090
     25          6           0       -7.560112   -3.005608    0.678532
     26          6           0        7.912881    2.769317   -0.654324
     27          6           0       -6.189012   -0.761355    0.154582
     28          6           0        6.318748    0.941754   -0.357592
     29          6           0       -4.828729   -1.478107    0.187919
     30          6           0        5.032523    1.621776   -0.517613
     31          6           0       -3.708048   -0.679594    0.075554
     32          6           0        3.786241    1.095932   -0.345153
     33          6           0       -2.394620   -1.186648    0.149380
     34          6           0        2.502157    1.824472   -0.592426
     35          6           0       -2.235726   -2.782172    0.204954
     36          6           0        2.495447    3.321793   -0.775330
     37          6           0       -1.164933   -0.625527    0.027965
     38          6           0        1.301970    1.116361   -0.453964
     39          6           0       -1.127678    0.852721   -0.165987
     40          6           0       -0.022715    1.651610   -0.438425
     41          1           0      -13.997285    0.036858    0.450168
     42          1           0      -14.049378    0.435472   -1.358876
     43          1           0       12.487446   -1.907947    2.257468
     44          1           0       13.874338   -1.014331    2.148745
     45          1           0      -13.921591    2.729696   -0.678443
     46          1           0      -12.374167    2.164912   -1.260220
     47          1           0       13.991895   -3.017450    0.387676
     48          1           0       13.882091   -1.177862   -0.439140
     49          1           0      -13.155187    1.859471    1.778849
     50          1           0      -11.970546    3.201078    0.982436
     51          1           0       11.739734   -3.425800   -0.227704
     52          1           0       12.592173   -2.796754   -1.690522
     53          1           0      -11.372961    0.404972   -2.362232
     54          1           0      -12.530478   -0.790506   -3.039621
     55          1           0      -10.900596   -1.033554   -2.081250
     56          1           0      -13.144629   -1.734071    0.653981
     57          1           0      -11.735922   -2.595625   -0.217748
     58          1           0      -13.558324   -2.270060   -0.660114
     59          1           0       14.060688    0.790167   -0.189571
     60          1           0       13.818556    1.367026    1.322205
     61          1           0       12.339177    1.848891    0.254485
     62          1           0       10.494825   -0.195863    2.524243
     63          1           0       10.950626    1.389527    2.108883
     64          1           0       11.973096    0.349235    3.326369
     65          1           0      -10.109283   -1.994695    0.590667
     66          1           0       10.193978    1.704601   -0.140641
     67          1           0       -9.502105    0.710818    2.151699
     68          1           0      -10.655306    1.808525    3.021849
     69          1           0       -9.518879    2.349954    1.428874
     70          1           0        9.464112   -0.817824   -2.303784
     71          1           0        9.412440   -2.466617   -1.691668
     72          1           0       10.537381   -2.018467   -2.920989
     73          1           0       -8.278474    0.536770   -0.052064
     74          1           0        8.185127   -0.579487   -0.078089
     75          1           0       -8.507635   -3.079554    1.326691
     76          1           0       -6.511834   -3.283636    1.059329
     77          1           0       -7.948084   -3.490429   -0.138028
     78          1           0        8.727879    2.902528   -1.375513
     79          1           0        8.406247    3.013234    0.350058
     80          1           0        7.141873    3.522499   -0.600485
     81          1           0       -6.110582    0.229016    0.302462
     82          1           0        5.939733   -0.185692   -0.164942
     83          1           0       -4.613208   -2.475301    0.285597
     84          1           0        4.893470    2.603590   -0.733403
     85          1           0       -3.894339    0.477996   -0.043397
     86          1           0        3.782728   -0.125083   -0.128160
     87          1           0       -2.643918   -3.151693    1.146818
     88          1           0       -1.143307   -2.946148    0.193085
     89          1           0       -2.655381   -3.284506   -0.586416
     90          1           0        3.100251    3.508562   -1.626077
     91          1           0        3.145578    3.683218    0.175880
     92          1           0        1.521450    3.682347   -0.759196
     93          1           0       -0.229201   -1.007133   -0.055837
     94          1           0        1.449704    0.008484   -0.397024
     95          1           0       -2.075591    1.474763   -0.235322
     96          1           0       -0.056981    2.823639   -0.567438
 ---------------------------------------------------------------------

 SCF Done:  E(RB3LYP) =  -1557.52738763     A.U. after   14 cycles

 Excitation energies and oscillator strengths:

 Excited State   1:      Singlet-A      2.4432 eV  507.46 nm  f=2.6098  <S**2>=0.000
     148 ->149         0.70286
 This state for optimization and/or second-order correction.
 Total Energy, E(TD-HF/TD-DFT) =  -1557.43760001
 Copying the excited state density for this state as the 1-particle RhoCI density.

 The electronic state is 1-A.
 Alpha  occ. eigenvalues --  -10.21581 -10.20747 -10.20539 -10.20504 -10.20402
 Alpha  occ. eigenvalues --  -10.20179 -10.20097 -10.20022 -10.19879 -10.19872
 Alpha  occ. eigenvalues --  -10.19756 -10.19621 -10.19600 -10.19554 -10.19521
 Alpha  occ. eigenvalues --  -10.19445 -10.19424 -10.19410 -10.19376 -10.19349
 Alpha  occ. eigenvalues --  -10.19210 -10.19091 -10.18964 -10.18951 -10.18925
 Alpha  occ. eigenvalues --  -10.18847 -10.18680 -10.18488 -10.18403 -10.18333
 Alpha  occ. eigenvalues --  -10.18216 -10.18211 -10.18086 -10.17913 -10.17872
 Alpha  occ. eigenvalues --  -10.17806 -10.17697 -10.17503 -10.17052 -10.16224
 Alpha  occ. eigenvalues --   -0.85158  -0.85152  -0.83433  -0.82796  -0.81833
 Alpha  occ. eigenvalues --   -0.80991  -0.78868  -0.78635  -0.78147  -0.77518
 Alpha  occ. eigenvalues --   -0.76677  -0.75184  -0.74066  -0.72605  -0.72268
 Alpha  occ. eigenvalues --   -0.69831  -0.69705  -0.69153  -0.68996  -0.68164
 Alpha  occ. eigenvalues --   -0.66953  -0.66897  -0.66787  -0.66539  -0.65411
 Alpha  occ. eigenvalues --   -0.62681  -0.61844  -0.59289  -0.58638  -0.56413
 Alpha  occ. eigenvalues --   -0.56309  -0.56088  -0.55484  -0.54251  -0.52856
 Alpha  occ. eigenvalues --   -0.52616  -0.51930  -0.50350  -0.49577  -0.48723
 Alpha  occ. eigenvalues --   -0.48432  -0.47648  -0.47152  -0.46554  -0.46301
 Alpha  occ. eigenvalues --   -0.46000  -0.45478  -0.45132  -0.44643  -0.44441
 Alpha  occ. eigenvalues --   -0.44227  -0.43532  -0.43283  -0.42592  -0.42266
 Alpha  occ. eigenvalues --   -0.42095  -0.41886  -0.41675  -0.41420  -0.41111
 Alpha  occ. eigenvalues --   -0.40833  -0.40462  -0.39869  -0.39761  -0.39272
 Alpha  occ. eigenvalues --   -0.39147  -0.39042  -0.38673  -0.38563  -0.38305
 Alpha  occ. eigenvalues --   -0.37978  -0.37795  -0.37711  -0.37495  -0.36933
 Alpha  occ. eigenvalues --   -0.36751  -0.36248  -0.35968  -0.35419  -0.34649
 Alpha  occ. eigenvalues --   -0.34435  -0.33592  -0.33527  -0.33457  -0.33314
 Alpha  occ. eigenvalues --   -0.33205  -0.32941  -0.32542  -0.32262  -0.31819
 Alpha  occ. eigenvalues --   -0.31671  -0.31500  -0.31204  -0.30908  -0.30658
 Alpha  occ. eigenvalues --   -0.30351  -0.30269  -0.29585  -0.29426  -0.28201
 Alpha  occ. eigenvalues --   -0.27859  -0.27177  -0.26182  -0.24500  -0.23214
 Alpha  occ. eigenvalues --   -0.21947  -0.20158  -0.17115
 Alpha virt. eigenvalues --   -0.07666  -0.04815  -0.01468   0.00623   0.02753
 Alpha virt. eigenvalues --    0.03708   0.06380   0.06968   0.07063   0.07427
 Alpha virt. eigenvalues --    0.07580   0.08196   0.08399   0.08518   0.08639

 Mulliken charges:
               1
     1  C    0.013076
     2  C   -0.014065
     3  C   -0.176934
     4  C   -0.167786
     5  C   -0.184858
     6  C   -0.182391
     7  C    0.072386
     8  C    0.090133
     9  C   -0.189356
    10  C   -0.209193
    11  C    0.036647
    12  C    0.084337
    13  C   -0.276714
    14  C   -0.296286
    15  C   -0.271126
    16  C   -0.302155
    17  C   -0.175337
    18  C   -0.166979
    19  C   -0.342561
    20  C   -0.353341
    21  C   -0.052350
    22  C   -0.053094
    23  C    0.084403
    24  C    0.128678
    25  C   -0.363111
    26  C   -0.385303
    27  C   -0.121754
    28  C   -0.146610
    29  C   -0.085628
    30  C   -0.051096
    31  C   -0.088419
    32  C   -0.110652
    33  C    0.091663
    34  C    0.072254
    35  C   -0.386658
    36  C   -0.355360
    37  C   -0.097796
    38  C   -0.091250
    39  C   -0.100466
    40  C   -0.114567
    41  H    0.085499
    42  H    0.092286
    43  H    0.088113
    44  H    0.073233
    45  H    0.087138
    46  H    0.067046
    47  H    0.091499
    48  H    0.109825
    49  H    0.085142
    50  H    0.096005
    51  H    0.070829
    52  H    0.064633
    53  H    0.107637
    54  H    0.073654
    55  H    0.109656
    56  H    0.103713
    57  H    0.103214
    58  H    0.072174
    59  H    0.064430
    60  H    0.111266
    61  H    0.077733
    62  H    0.115015
    63  H    0.092668
    64  H    0.092681
    65  H    0.077075
    66  H    0.081120
    67  H    0.129671
    68  H    0.089381
    69  H    0.107277
    70  H    0.085313
    71  H    0.125728
    72  H    0.126822
    73  H    0.047631
    74  H    0.075587
    75  H    0.113348
    76  H    0.115324
    77  H    0.142450
    78  H    0.121770
    79  H    0.109929
    80  H    0.119953
    81  H    0.095574
    82  H    0.048984
    83  H    0.086004
    84  H    0.055710
    85  H    0.073852
    86  H    0.053309
    87  H    0.115019
    88  H    0.104483
    89  H    0.130972
    90  H    0.136143
    91  H    0.104422
    92  H    0.113461
    93  H    0.091940
    94  H    0.073551
    95  H    0.074850
    96  H    0.077872
 Sum of Mulliken charges =  -0.00000

 Dipole moment (field-independent basis, Debye):
    X=             -0.9027    Y=             -0.1769    Z=              0.2170  Tot=              0.9451
 Quadrupole moment (field-independent basis, Debye-Ang):
   XX=           -234.7036   YY=           -236.4038   ZZ=           -256.0978
   XY=             -0.0815   XZ=              0.0733   YZ=             -2.5535

 Normal termination of Gaussian 16 at Tue Jul 23 22:54:39 2019.
