 Gaussian 16, Revision A.03,
 Gaussian 16:  ES64L-G16RevA.03 25-Dec-2016

 ---------------------------------
 # td=(NStates=1) B3LYP/6-31G(d,p)
 ---------------------------------

 --
 TD
 --
 Symbolic Z-matrix:
 Charge =  0 Multiplicity = 1

                         Standard orientation:
 ---------------------------------------------------------------------
 Center     Atomic      Atomic             Coordinates (Angstroms)
 Number     Number       Type             X           Y           Z
 ---------------------------------------------------------------------
      1          6           0      -12.030649   -0.515203   -0.801817
      2          6           0       12.058126    0.079829    0.808045
      3          6           0      -13.319584    0.457382   -0.816315
      4          6           0       12.979345   -1.092507    1.171281
      5          6           0      -12.991929    1.905918   -0.716267
      6          6           0       13.429438   -2.026770    0.136784
      7          6           0      -11.029145   -0.008369    0.156083
      8          6           0       10.894622   -0.470686   -0.215847
      9          6           0      -12.204515    2.233722    0.563687
     10          6           0       12.117008   -2.607452   -0.579707
     11          6           0      -11.152773    1.191759    0.887338
     12          6           0       11.052387   -1.698032   -0.787892
     13          6           0      -11.408212   -0.685724   -2.126444
     14          6           0      -12.590713   -1.950172   -0.387355
     15          6           0       12.913691    1.124893    0.036172
     16          6           0       11.503952    0.821605    2.006615
     17          6           0       -9.806887   -0.858111    0.251648
     18          6           0        9.806307    0.396912   -0.332339
     19          6           0      -10.177825    1.606220    1.984903
     20          6           0        9.831353   -2.207681   -1.711045
     21          6           0       -8.477367   -0.547383    0.380654
     22          6           0        8.439023    0.315140   -0.179054
     23          6           0       -7.324332   -1.393795    0.479044
     24          6           0        7.530598    1.309324   -0.455068
     25          6           0       -7.592633   -2.818706    0.683389
     26          6           0        7.927701    2.698801   -0.629781
     27          6           0       -6.106476   -0.895147    0.280151
     28          6           0        6.178964    0.931965   -0.383323
     29          6           0       -4.883070   -1.480221    0.423801
     30          6           0        4.993152    1.669531   -0.431951
     31          6           0       -3.711426   -0.743743    0.416656
     32          6           0        3.739927    1.128658   -0.237327
     33          6           0       -2.370686   -1.322508    0.475749
     34          6           0        2.503474    1.828280   -0.449015
     35          6           0       -2.198362   -2.784589    0.743911
     36          6           0        2.523720    3.339836   -0.607145
     37          6           0       -1.293508   -0.516088    0.306946
     38          6           0        1.330765    1.116055   -0.300602
     39          6           0       -1.116288    0.949671    0.026189
     40          6           0        0.010664    1.756153   -0.211474
     41          1           0      -14.040566    0.037866    0.024629
     42          1           0      -13.763308    0.100145   -1.569185
     43          1           0       12.190207   -1.619250    1.959677
     44          1           0       13.885935   -0.958847    1.813611
     45          1           0      -13.996387    2.320251   -0.769544
     46          1           0      -12.315137    2.075380   -1.513390
     47          1           0       14.126105   -2.726214    0.571716
     48          1           0       14.096301   -1.344219   -0.568570
     49          1           0      -12.925066    2.384509    1.313097
     50          1           0      -11.710600    3.256412    0.410134
     51          1           0       11.819328   -3.330598    0.067582
     52          1           0       12.339207   -3.133792   -1.620744
     53          1           0      -11.288520    0.283166   -2.487941
     54          1           0      -12.038603   -1.114156   -2.857846
     55          1           0      -10.439621   -1.241840   -1.995974
     56          1           0      -13.036823   -1.757032    0.664671
     57          1           0      -11.539851   -2.608311   -0.520609
     58          1           0      -13.197837   -2.330555   -1.331937
     59          1           0       13.279758    0.780454   -0.931378
     60          1           0       13.706896    1.448494    0.803800
     61          1           0       12.053395    1.907306   -0.003787
     62          1           0       10.778545    0.188641    2.578834
     63          1           0       10.904635    1.859333    1.696137
     64          1           0       12.127357    1.117195    2.799017
     65          1           0      -10.237029   -2.028594    0.101717
     66          1           0       10.296021    1.373973   -0.355499
     67          1           0       -9.619864    0.657308    2.351292
     68          1           0      -10.702898    2.137438    2.748631
     69          1           0       -9.508156    2.464843    1.715009
     70          1           0        9.377961   -1.327039   -2.072082
     71          1           0        9.210063   -2.899996   -1.033725
     72          1           0       10.332618   -2.672104   -2.677824
     73          1           0       -8.274964    0.489683    0.291985
     74          1           0        8.192420   -0.687738    0.177614
     75          1           0       -8.039953   -3.030127    1.689432
     76          1           0       -6.635662   -3.321993    0.449994
     77          1           0       -8.352821   -3.195852    0.015586
     78          1           0        8.486261    2.794707   -1.537648
     79          1           0        8.317843    3.068264    0.423574
     80          1           0        7.098471    3.354147   -0.859443
     81          1           0       -6.166252    0.208446    0.148290
     82          1           0        5.862581   -0.183604   -0.174272
     83          1           0       -4.881680   -2.480426    0.691982
     84          1           0        5.186950    2.740383   -0.602584
     85          1           0       -4.210864    0.198531    0.226655
     86          1           0        3.621856    0.047375    0.112834
     87          1           0       -2.641651   -3.040547    1.527352
     88          1           0       -1.148095   -2.846609    0.827260
     89          1           0       -2.588062   -3.311796   -0.053632
     90          1           0        2.710012    3.698661   -1.732013
     91          1           0        3.413633    3.696779   -0.027701
     92          1           0        1.526268    3.732752   -0.347079
     93          1           0       -0.432963   -1.030967    0.388460
     94          1           0        1.357472    0.044595   -0.048870
     95          1           0       -2.200379    1.434586    0.154440
     96          1           0       -0.231508    2.887980   -0.207389
 ---------------------------------------------------------------------

 SCF Done:  E(RB3LYP) =  -1557.57168580     A.U. after   16 cycles

 Excitation energies and oscillator strengths:

 Excited State   1:      Singlet-A      2.0693 eV  599.16 nm  f=2.9995  <S**2>=0.000
     148 ->149         0.70336
 This state for optimization and/or second-order correction.
 Total Energy, E(TD-HF/TD-DFT) =  -1557.49563997
 Copying the excited state density for this state as the 1-particle RhoCI density.

 The electronic state is 1-A.
 Alpha  occ. eigenvalues --  -10.20634 -10.20498 -10.20308 -10.20269 -10.20202
 Alpha  occ. eigenvalues --  -10.19838 -10.19814 -10.19783 -10.19433 -10.19418
 Alpha  occ. eigenvalues --  -10.19365 -10.19313 -10.19086 -10.18886 -10.18876
 Alpha  occ. eigenvalues --  -10.18778 -10.18772 -10.18758 -10.18727 -10.18694
 Alpha  occ. eigenvalues --  -10.18619 -10.18592 -10.18570 -10.18475 -10.18420
 Alpha  occ. eigenvalues --  -10.18252 -10.18227 -10.18188 -10.18112 -10.18093
 Alpha  occ. eigenvalues --  -10.18036 -10.17792 -10.17723 -10.17691 -10.17623
 Alpha  occ. eigenvalues --  -10.17593 -10.17506 -10.16628 -10.16143 -10.15779
 Alpha  occ. eigenvalues --   -0.85179  -0.85020  -0.84408  -0.83464  -0.82615
 Alpha  occ. eigenvalues --   -0.81945  -0.78802  -0.78569  -0.78551  -0.78092
 Alpha  occ. eigenvalues --   -0.76992  -0.76239  -0.74590  -0.72384  -0.72146
 Alpha  occ. eigenvalues --   -0.70600  -0.68858  -0.68707  -0.68224  -0.67953
 Alpha  occ. eigenvalues --   -0.67664  -0.67183  -0.66869  -0.66321  -0.65762
 Alpha  occ. eigenvalues --   -0.62956  -0.62305  -0.59970  -0.59360  -0.57196
 Alpha  occ. eigenvalues --   -0.56326  -0.55976  -0.55037  -0.54571  -0.53044
 Alpha  occ. eigenvalues --   -0.52263  -0.52126  -0.50699  -0.49761  -0.48840
 Alpha  occ. eigenvalues --   -0.47838  -0.47324  -0.46739  -0.46697  -0.46235
 Alpha  occ. eigenvalues --   -0.45766  -0.45517  -0.45051  -0.44990  -0.44654
 Alpha  occ. eigenvalues --   -0.44339  -0.43860  -0.43614  -0.42870  -0.42449
 Alpha  occ. eigenvalues --   -0.42317  -0.42005  -0.41780  -0.41449  -0.41337
 Alpha  occ. eigenvalues --   -0.40785  -0.40688  -0.40051  -0.39893  -0.39612
 Alpha  occ. eigenvalues --   -0.39216  -0.38534  -0.38463  -0.38430  -0.38221
 Alpha  occ. eigenvalues --   -0.37914  -0.37757  -0.37199  -0.37083  -0.36444
 Alpha  occ. eigenvalues --   -0.36377  -0.36080  -0.35723  -0.35518  -0.35190
 Alpha  occ. eigenvalues --   -0.35070  -0.34560  -0.34502  -0.34375  -0.33976
 Alpha  occ. eigenvalues --   -0.33801  -0.33485  -0.33309  -0.33018  -0.32877
 Alpha  occ. eigenvalues --   -0.32389  -0.31852  -0.31721  -0.31366  -0.31287
 Alpha  occ. eigenvalues --   -0.31065  -0.30319  -0.29720  -0.28728  -0.27915
 Alpha  occ. eigenvalues --   -0.27167  -0.26861  -0.26155  -0.23856  -0.22399
 Alpha  occ. eigenvalues --   -0.20898  -0.18213  -0.16011
 Alpha virt. eigenvalues --   -0.08203  -0.05680  -0.01951   0.00550   0.02621
 Alpha virt. eigenvalues --    0.04773   0.05519   0.06387   0.06746   0.07540
 Alpha virt. eigenvalues --    0.07957   0.08124   0.08342   0.09022   0.09616

 Mulliken charges:
               1
     1  C   -0.074952
     2  C   -0.012464
     3  C   -0.143841
     4  C   -0.156144
     5  C   -0.196241
     6  C   -0.184143
     7  C    0.128291
     8  C    0.073883
     9  C   -0.223612
    10  C   -0.216075
    11  C    0.053252
    12  C    0.043442
    13  C   -0.285555
    14  C   -0.270843
    15  C   -0.265572
    16  C   -0.295874
    17  C   -0.152251
    18  C   -0.151992
    19  C   -0.365977
    20  C   -0.346039
    21  C   -0.121247
    22  C   -0.077087
    23  C    0.147820
    24  C    0.110181
    25  C   -0.375377
    26  C   -0.371540
    27  C   -0.134544
    28  C   -0.116658
    29  C   -0.075793
    30  C   -0.071601
    31  C   -0.098616
    32  C   -0.131735
    33  C    0.049378
    34  C    0.141387
    35  C   -0.342681
    36  C   -0.359994
    37  C   -0.085946
    38  C   -0.129322
    39  C   -0.095323
    40  C   -0.102827
    41  H    0.056129
    42  H    0.091485
    43  H    0.044075
    44  H    0.080134
    45  H    0.096558
    46  H    0.108054
    47  H    0.101764
    48  H    0.078946
    49  H    0.111826
    50  H    0.094107
    51  H    0.130319
    52  H    0.076241
    53  H    0.102055
    54  H    0.093265
    55  H    0.107164
    56  H    0.109260
    57  H    0.067378
    58  H    0.092724
    59  H    0.105540
    60  H    0.089209
    61  H    0.079771
    62  H    0.099527
    63  H    0.071723
    64  H    0.114257
    65  H    0.051393
    66  H    0.068602
    67  H    0.117114
    68  H    0.107564
    69  H    0.105135
    70  H    0.136556
    71  H    0.113753
    72  H    0.082561
    73  H    0.082186
    74  H    0.082082
    75  H    0.118213
    76  H    0.098295
    77  H    0.121915
    78  H    0.130633
    79  H    0.118551
    80  H    0.108788
    81  H    0.068538
    82  H    0.057668
    83  H    0.068874
    84  H    0.071578
    85  H    0.081291
    86  H    0.078211
    87  H    0.134870
    88  H    0.108354
    89  H    0.131201
    90  H    0.102308
    91  H    0.118045
    92  H    0.111554
    93  H    0.049969
    94  H    0.090886
    95  H    0.067998
    96  H    0.098036
 Sum of Mulliken charges =  -0.00000

 Dipole moment (field-independent basis, Debye):
    X=             -0.1872    Y=              0.0769    Z=              0.5562  Tot=              0.5918
 Quadrupole moment (field-independent basis, Debye-Ang):
   XX=           -216.9973   YY=           -236.1377   ZZ=           -254.1432
   XY=             -8.9512   XZ=              7.5147   YZ=             -1.3787

 Normal termination of Gaussian 16 at Tue Jul 23 09:03:35 2019.
