 Gaussian 16, Revision A.03,
 Gaussian 16:  ES64L-G16RevA.03 25-Dec-2016

 ---------------------------------
 # td=(NStates=1) B3LYP/6-31G(d,p)
 ---------------------------------

 --
 TD
 --
 Symbolic Z-matrix:
 Charge =  0 Multiplicity = 1

                         Standard orientation:
 ---------------------------------------------------------------------
 Center     Atomic      Atomic             Coordinates (Angstroms)
 Number     Number       Type             X           Y           Z
 ---------------------------------------------------------------------
      1          6           0       12.167536    0.603524   -0.713666
      2          6           0      -12.039723   -0.080209    0.941685
      3          6           0       13.477679   -0.193036   -0.619973
      4          6           0      -12.921403    1.063159    1.404718
      5          6           0       13.252627   -1.682802   -0.481715
      6          6           0      -13.349184    2.012711    0.311795
      7          6           0       11.091626    0.021387    0.276740
      8          6           0      -10.915485    0.391435   -0.003229
      9          6           0       12.566848   -1.906116    0.771639
     10          6           0      -12.182638    2.591039   -0.374837
     11          6           0       11.246236   -1.126107    0.996393
     12          6           0      -11.034895    1.602691   -0.749418
     13          6           0       11.579194    0.509653   -2.198074
     14          6           0       12.501089    2.058876   -0.436512
     15          6           0      -12.915028   -1.168926    0.250207
     16          6           0      -11.395476   -0.628941    2.261934
     17          6           0        9.832176    0.866081    0.325085
     18          6           0       -9.927961   -0.565318   -0.209973
     19          6           0       10.269949   -1.735741    2.074997
     20          6           0      -10.107253    2.059640   -1.836233
     21          6           0        8.601490    0.267407    0.450713
     22          6           0       -8.576373   -0.218586   -0.307076
     23          6           0        7.320882    1.225257    0.556279
     24          6           0       -7.566031   -1.185610   -0.540422
     25          6           0        7.586081    2.734421    0.594805
     26          6           0       -7.867120   -2.654314   -0.855430
     27          6           0        6.099735    0.627842    0.309122
     28          6           0       -6.211395   -0.753117   -0.473083
     29          6           0        4.808035    1.309977    0.341222
     30          6           0       -5.052955   -1.642142   -0.538384
     31          6           0        3.578837    0.717640    0.233291
     32          6           0       -3.746536   -1.165061   -0.457770
     33          6           0        2.214073    1.308647    0.181262
     34          6           0       -2.604992   -1.832302   -0.569561
     35          6           0        2.125517    2.739047    0.508039
     36          6           0       -2.587240   -3.318368   -0.622419
     37          6           0        1.114124    0.440568   -0.035381
     38          6           0       -1.367102   -1.129531   -0.311321
     39          6           0        1.121052   -0.942913   -0.205705
     40          6           0       -0.049327   -1.647151   -0.417100
     41          1           0       14.178559    0.155598    0.245791
     42          1           0       14.176399    0.123291   -1.430413
     43          1           0      -12.151716    1.542583    2.036480
     44          1           0      -13.604592    0.843349    2.147771
     45          1           0       14.015352   -2.383921   -0.577444
     46          1           0       12.657440   -1.978157   -1.509371
     47          1           0      -14.024138    2.902604    0.393738
     48          1           0      -13.986577    1.470903   -0.487150
     49          1           0       13.086720   -1.902448    1.676743
     50          1           0       12.095057   -2.929226    0.703369
     51          1           0      -11.717423    3.396410    0.493061
     52          1           0      -12.304540    3.077044   -1.286524
     53          1           0       11.475098   -0.597008   -2.382511
     54          1           0       12.359604    0.910775   -2.773494
     55          1           0       10.397676    0.870949   -1.989874
     56          1           0       12.717370    2.169488    0.549521
     57          1           0       11.800058    2.721733   -0.643640
     58          1           0       13.536219    2.338782   -0.859918
     59          1           0      -13.718812   -0.870693   -0.445370
     60          1           0      -13.676019   -1.552652    0.900919
     61          1           0      -12.505399   -2.100225   -0.017204
     62          1           0      -10.719292    0.131345    2.742517
     63          1           0      -10.879818   -1.516317    1.973268
     64          1           0      -12.252602   -0.874547    2.975534
     65          1           0        9.846938    1.876130    0.184694
     66          1           0      -10.115885   -1.454780   -0.207695
     67          1           0        9.562326   -0.908514    2.318913
     68          1           0       10.968710   -2.142544    2.917174
     69          1           0        9.722889   -2.489603    1.698810
     70          1           0       -9.432072    1.484528   -2.260147
     71          1           0       -9.568693    3.223208   -1.519226
     72          1           0      -10.964818    2.460035   -2.614775
     73          1           0        8.233241   -0.790570    0.317535
     74          1           0       -8.297116    0.816741   -0.066864
     75          1           0        8.329700    2.912280    1.368593
     76          1           0        6.651001    3.309311    0.815547
     77          1           0        7.917753    2.946873   -0.164110
     78          1           0       -8.863001   -2.474595   -1.615534
     79          1           0       -8.280787   -3.252316    0.104332
     80          1           0       -6.870708   -3.175624   -1.149765
     81          1           0        6.082297   -0.503887    0.351807
     82          1           0       -6.021808    0.266509   -0.217261
     83          1           0        4.960840    2.332178    0.539211
     84          1           0       -5.079235   -2.556857   -0.787809
     85          1           0        3.632807   -0.294451   -0.091310
     86          1           0       -3.690073   -0.236780   -0.260829
     87          1           0        2.491562    2.865006    1.554332
     88          1           0        1.053484    3.246678    0.311406
     89          1           0        2.852132    3.257026    0.104209
     90          1           0       -3.077185   -3.576779   -1.502036
     91          1           0       -3.311334   -3.775275    0.248298
     92          1           0       -1.781214   -3.799412   -0.586638
     93          1           0        0.383788    1.085018   -0.100161
     94          1           0       -1.502504    0.036768   -0.524141
     95          1           0        2.211324   -1.327616   -0.151135
     96          1           0        0.181002   -2.756598   -0.447110
 ---------------------------------------------------------------------

 SCF Done:  E(RB3LYP) =  -1557.42722355     A.U. after   17 cycles

 Excitation energies and oscillator strengths:

 Excited State   1:      Singlet-A      1.9351 eV  640.71 nm  f=3.1156  <S**2>=0.000
     148 ->149         0.70841
     148 <-149        -0.15250
 This state for optimization and/or second-order correction.
 Total Energy, E(TD-HF/TD-DFT) =  -1557.35611023
 Copying the excited state density for this state as the 1-particle RhoCI density.

 The electronic state is 1-A.
 Alpha  occ. eigenvalues --  -10.21517 -10.20640 -10.20222 -10.20214 -10.20212
 Alpha  occ. eigenvalues --  -10.20210 -10.19988 -10.19923 -10.19912 -10.19732
 Alpha  occ. eigenvalues --  -10.19476 -10.19412 -10.19298 -10.19283 -10.19145
 Alpha  occ. eigenvalues --  -10.19080 -10.19003 -10.18732 -10.18727 -10.18541
 Alpha  occ. eigenvalues --  -10.18540 -10.18384 -10.18361 -10.18304 -10.18243
 Alpha  occ. eigenvalues --  -10.18240 -10.18181 -10.18131 -10.18100 -10.17821
 Alpha  occ. eigenvalues --  -10.17577 -10.17537 -10.17138 -10.17112 -10.16885
 Alpha  occ. eigenvalues --  -10.16806 -10.16537 -10.16339 -10.15944 -10.15672
 Alpha  occ. eigenvalues --   -0.85246  -0.84543  -0.84016  -0.82880  -0.81677
 Alpha  occ. eigenvalues --   -0.81272  -0.78947  -0.78378  -0.78320  -0.77813
 Alpha  occ. eigenvalues --   -0.77165  -0.75213  -0.74513  -0.72506  -0.72211
 Alpha  occ. eigenvalues --   -0.70904  -0.69612  -0.69131  -0.68825  -0.68528
 Alpha  occ. eigenvalues --   -0.67590  -0.67432  -0.66894  -0.66322  -0.65828
 Alpha  occ. eigenvalues --   -0.63232  -0.61919  -0.60311  -0.59336  -0.57829
 Alpha  occ. eigenvalues --   -0.56796  -0.56375  -0.56042  -0.54784  -0.54117
 Alpha  occ. eigenvalues --   -0.52627  -0.51953  -0.51082  -0.49932  -0.49032
 Alpha  occ. eigenvalues --   -0.48465  -0.48011  -0.47500  -0.47204  -0.46137
 Alpha  occ. eigenvalues --   -0.45750  -0.45216  -0.44791  -0.44589  -0.44499
 Alpha  occ. eigenvalues --   -0.44213  -0.43733  -0.43478  -0.43314  -0.42957
 Alpha  occ. eigenvalues --   -0.42573  -0.41880  -0.41456  -0.41242  -0.40952
 Alpha  occ. eigenvalues --   -0.40726  -0.40488  -0.40039  -0.39849  -0.39678
 Alpha  occ. eigenvalues --   -0.39503  -0.39043  -0.38775  -0.38690  -0.38392
 Alpha  occ. eigenvalues --   -0.38193  -0.38120  -0.37991  -0.37851  -0.37201
 Alpha  occ. eigenvalues --   -0.36689  -0.35908  -0.35769  -0.35635  -0.35455
 Alpha  occ. eigenvalues --   -0.34972  -0.34740  -0.34407  -0.34181  -0.33812
 Alpha  occ. eigenvalues --   -0.33580  -0.33369  -0.33210  -0.32640  -0.32460
 Alpha  occ. eigenvalues --   -0.32287  -0.31637  -0.31359  -0.31197  -0.30907
 Alpha  occ. eigenvalues --   -0.30295  -0.29970  -0.29191  -0.28873  -0.28718
 Alpha  occ. eigenvalues --   -0.28469  -0.27260  -0.26095  -0.24138  -0.22397
 Alpha  occ. eigenvalues --   -0.20494  -0.18654  -0.15404
 Alpha virt. eigenvalues --   -0.08787  -0.04941  -0.02325   0.00161   0.02347
 Alpha virt. eigenvalues --    0.03938   0.05769   0.07098   0.07641   0.07742
 Alpha virt. eigenvalues --    0.07875   0.08072   0.08523   0.08951   0.09119

 Mulliken charges:
               1
     1  C   -0.004545
     2  C   -0.019992
     3  C   -0.180786
     4  C   -0.169835
     5  C   -0.175075
     6  C   -0.177399
     7  C    0.082161
     8  C    0.073625
     9  C   -0.206366
    10  C   -0.176076
    11  C    0.021875
    12  C    0.062424
    13  C   -0.284943
    14  C   -0.301525
    15  C   -0.318506
    16  C   -0.301089
    17  C   -0.149274
    18  C   -0.090049
    19  C   -0.356038
    20  C   -0.316035
    21  C   -0.095148
    22  C   -0.110062
    23  C    0.051487
    24  C    0.118705
    25  C   -0.343985
    26  C   -0.352137
    27  C   -0.124745
    28  C   -0.127855
    29  C   -0.082566
    30  C   -0.057721
    31  C   -0.111270
    32  C   -0.074664
    33  C    0.064932
    34  C    0.117994
    35  C   -0.369997
    36  C   -0.349319
    37  C   -0.040467
    38  C   -0.133728
    39  C   -0.087815
    40  C   -0.104361
    41  H    0.070746
    42  H    0.075965
    43  H    0.089392
    44  H    0.092372
    45  H    0.098123
    46  H    0.069505
    47  H    0.093897
    48  H    0.080722
    49  H    0.115386
    50  H    0.090019
    51  H    0.063441
    52  H    0.089473
    53  H    0.097812
    54  H    0.110686
    55  H    0.088120
    56  H    0.114417
    57  H    0.103843
    58  H    0.083055
    59  H    0.103105
    60  H    0.093381
    61  H    0.104145
    62  H    0.107523
    63  H    0.104154
    64  H    0.090977
    65  H    0.088542
    66  H    0.053798
    67  H    0.124043
    68  H    0.091708
    69  H    0.132241
    70  H    0.131696
    71  H    0.066192
    72  H    0.080386
    73  H    0.095854
    74  H    0.088015
    75  H    0.117230
    76  H    0.101903
    77  H    0.141040
    78  H    0.094846
    79  H    0.104779
    80  H    0.113796
    81  H    0.068287
    82  H    0.077336
    83  H    0.060742
    84  H    0.046305
    85  H    0.071802
    86  H    0.047294
    87  H    0.124674
    88  H    0.092342
    89  H    0.135067
    90  H    0.124953
    91  H    0.087320
    92  H    0.111271
    93  H    0.050395
    94  H    0.076688
    95  H    0.089075
    96  H    0.080290
 Sum of Mulliken charges =  -0.00000

 Dipole moment (field-independent basis, Debye):
    X=              0.1941    Y=              0.1247    Z=              0.3746  Tot=              0.4399
 Quadrupole moment (field-independent basis, Debye-Ang):
   XX=           -207.9502   YY=           -233.4323   ZZ=           -257.1983
   XY=              0.2012   XZ=              1.4065   YZ=              0.8649

 Normal termination of Gaussian 16 at Wed Jul 31 16:23:35 2019.
