 Gaussian 16, Revision A.03,
 Gaussian 16:  ES64L-G16RevA.03 25-Dec-2016

 ---------------------------------
 # td=(NStates=1) B3LYP/6-31G(d,p)
 ---------------------------------

 --
 TD
 --
 Symbolic Z-matrix:
 Charge =  0 Multiplicity = 1

                         Standard orientation:
 ---------------------------------------------------------------------
 Center     Atomic      Atomic             Coordinates (Angstroms)
 Number     Number       Type             X           Y           Z
 ---------------------------------------------------------------------
      1          6           0       12.182315    0.552021   -0.769012
      2          6           0      -12.216933   -0.083176    0.785288
      3          6           0       13.487234   -0.328354   -0.589382
      4          6           0      -12.925757    1.131746    1.312896
      5          6           0       13.210700   -1.821869   -0.624902
      6          6           0      -13.219427    2.226366    0.286084
      7          6           0       11.113533    0.027268    0.247115
      8          6           0      -11.016970    0.447237   -0.041778
      9          6           0       12.458417   -2.092622    0.648938
     10          6           0      -11.975241    2.755794   -0.298548
     11          6           0       11.234985   -1.157202    0.883081
     12          6           0      -10.894463    1.673862   -0.612767
     13          6           0       11.607819    0.445854   -2.196997
     14          6           0       12.538358    2.064701   -0.601138
     15          6           0      -13.122017   -0.929490   -0.138646
     16          6           0      -11.724424   -0.946829    2.000325
     17          6           0        9.941739    0.930625    0.307027
     18          6           0       -9.983700   -0.547464   -0.492601
     19          6           0       10.384712   -1.664857    2.044093
     20          6           0       -9.992182    2.224283   -1.621633
     21          6           0        8.621802    0.515639    0.406217
     22          6           0       -8.647790   -0.367556   -0.245824
     23          6           0        7.425600    1.374284    0.459812
     24          6           0       -7.560178   -1.366503   -0.515143
     25          6           0        7.647193    2.852368    0.489652
     26          6           0       -7.946464   -2.702145   -1.087394
     27          6           0        6.200358    0.807718    0.380844
     28          6           0       -6.332544   -0.861151   -0.354555
     29          6           0        4.823007    1.376175    0.438432
     30          6           0       -5.152945   -1.674956   -0.467116
     31          6           0        3.667110    0.655914    0.381871
     32          6           0       -3.897705   -1.238719   -0.133945
     33          6           0        2.341289    1.252719    0.395972
     34          6           0       -2.628438   -1.965715   -0.271076
     35          6           0        2.227258    2.753816    0.351013
     36          6           0       -2.741055   -3.358531   -0.557027
     37          6           0        1.264103    0.422506    0.187325
     38          6           0       -1.453086   -1.141691   -0.004982
     39          6           0        1.163045   -0.969390    0.031586
     40          6           0        0.015181   -1.697742   -0.085087
     41          1           0       13.982760   -0.103318    0.358822
     42          1           0       14.070992    0.030488   -1.342775
     43          1           0      -12.046870    1.608923    2.093731
     44          1           0      -13.894654    0.917380    2.139490
     45          1           0       14.126953   -2.414830   -0.737521
     46          1           0       12.584724   -2.197288   -1.356113
     47          1           0      -13.868049    3.099261    0.766953
     48          1           0      -13.873576    1.736668   -0.443205
     49          1           0       13.237660   -2.074029    1.570508
     50          1           0       12.032497   -3.132448    0.850773
     51          1           0      -11.667595    3.620068    0.275766
     52          1           0      -12.038827    3.264277   -1.247923
     53          1           0       11.513776   -0.622696   -2.505570
     54          1           0       12.344502    0.929643   -3.029156
     55          1           0       10.612005    0.859528   -2.340163
     56          1           0       13.021694    2.075739    0.412621
     57          1           0       11.612035    2.663178   -0.924001
     58          1           0       13.383904    2.456696   -1.250816
     59          1           0      -13.818235   -0.193958   -0.936607
     60          1           0      -13.723963   -1.282916    0.628854
     61          1           0      -12.695363   -1.823009   -0.648394
     62          1           0      -10.826747   -0.463949    2.522083
     63          1           0      -11.587928   -2.041427    1.661644
     64          1           0      -12.750776   -1.069840    2.735067
     65          1           0       10.140528    2.005864    0.245782
     66          1           0      -10.256930   -1.655589   -0.947017
     67          1           0        9.777072   -0.830858    2.573567
     68          1           0       11.029007   -1.934852    2.851082
     69          1           0        9.947749   -2.627671    1.840852
     70          1           0       -9.462791    1.321581   -2.002401
     71          1           0       -9.219781    2.792346   -0.990498
     72          1           0      -10.333644    2.615499   -2.595874
     73          1           0        8.589769   -0.664961    0.178073
     74          1           0       -8.182687    0.450876    0.190506
     75          1           0        8.001996    3.080230    1.509752
     76          1           0        6.697427    3.492434    0.279455
     77          1           0        8.586716    3.315486   -0.328389
     78          1           0       -8.251180   -2.678910   -2.137465
     79          1           0       -8.870855   -3.199555   -0.588173
     80          1           0       -7.167299   -3.291455   -0.895288
     81          1           0        6.169734   -0.369389    0.338294
     82          1           0       -6.288742    0.194656    0.120009
     83          1           0        4.598397    2.471301    0.379418
     84          1           0       -5.209848   -2.739778   -0.915343
     85          1           0        3.907810   -0.442710    0.398190
     86          1           0       -3.967405   -0.202095    0.356353
     87          1           0        2.814150    3.367727    1.181228
     88          1           0        1.149710    3.104637    0.508204
     89          1           0        2.780878    3.151416   -0.492586
     90          1           0       -3.380067   -3.106541   -1.554663
     91          1           0       -3.047278   -3.921493    0.111553
     92          1           0       -1.608181   -3.628590   -0.880445
     93          1           0        0.299323    1.018152    0.159476
     94          1           0       -1.769072   -0.139112    0.153641
     95          1           0        1.997705   -1.452564   -0.122271
     96          1           0        0.050241   -2.787827   -0.147209
 ---------------------------------------------------------------------

 SCF Done:  E(RB3LYP) =  -1557.56477188     A.U. after   14 cycles

 Excitation energies and oscillator strengths:

 Excited State   1:      Singlet-A      2.3588 eV  525.62 nm  f=2.8327  <S**2>=0.000
     148 ->149         0.70617
 This state for optimization and/or second-order correction.
 Total Energy, E(TD-HF/TD-DFT) =  -1557.47808734
 Copying the excited state density for this state as the 1-particle RhoCI density.

 The electronic state is 1-A.
 Alpha  occ. eigenvalues --  -10.20905 -10.20903 -10.20818 -10.20650 -10.20521
 Alpha  occ. eigenvalues --  -10.20421 -10.20291 -10.20273 -10.20116 -10.19952
 Alpha  occ. eigenvalues --  -10.19912 -10.19910 -10.19767 -10.19577 -10.19571
 Alpha  occ. eigenvalues --  -10.19541 -10.19425 -10.19360 -10.19308 -10.19237
 Alpha  occ. eigenvalues --  -10.19232 -10.19015 -10.18957 -10.18936 -10.18868
 Alpha  occ. eigenvalues --  -10.18845 -10.18767 -10.18533 -10.18514 -10.18377
 Alpha  occ. eigenvalues --  -10.18362 -10.18144 -10.17991 -10.17901 -10.17881
 Alpha  occ. eigenvalues --  -10.17741 -10.17722 -10.17191 -10.16930 -10.16901
 Alpha  occ. eigenvalues --   -0.85003  -0.84342  -0.83647  -0.83129  -0.81994
 Alpha  occ. eigenvalues --   -0.81383  -0.78893  -0.78545  -0.77642  -0.77195
 Alpha  occ. eigenvalues --   -0.76971  -0.74960  -0.74198  -0.72175  -0.71755
 Alpha  occ. eigenvalues --   -0.70319  -0.69584  -0.67873  -0.67436  -0.67226
 Alpha  occ. eigenvalues --   -0.66960  -0.66643  -0.66436  -0.66321  -0.66025
 Alpha  occ. eigenvalues --   -0.62043  -0.61239  -0.59414  -0.58598  -0.57033
 Alpha  occ. eigenvalues --   -0.56366  -0.55274  -0.54543  -0.53326  -0.52693
 Alpha  occ. eigenvalues --   -0.51785  -0.51712  -0.50687  -0.49432  -0.48661
 Alpha  occ. eigenvalues --   -0.48189  -0.47967  -0.47027  -0.46508  -0.45841
 Alpha  occ. eigenvalues --   -0.45578  -0.45136  -0.44688  -0.44617  -0.44210
 Alpha  occ. eigenvalues --   -0.43827  -0.43512  -0.42764  -0.42582  -0.42253
 Alpha  occ. eigenvalues --   -0.41870  -0.41576  -0.41304  -0.41120  -0.40704
 Alpha  occ. eigenvalues --   -0.40402  -0.40222  -0.39870  -0.39493  -0.39427
 Alpha  occ. eigenvalues --   -0.38898  -0.38772  -0.38395  -0.38084  -0.37926
 Alpha  occ. eigenvalues --   -0.37432  -0.37095  -0.36865  -0.36226  -0.36107
 Alpha  occ. eigenvalues --   -0.35834  -0.35674  -0.35189  -0.35044  -0.34881
 Alpha  occ. eigenvalues --   -0.34551  -0.34406  -0.34266  -0.34022  -0.33757
 Alpha  occ. eigenvalues --   -0.33652  -0.33358  -0.32984  -0.32600  -0.32330
 Alpha  occ. eigenvalues --   -0.32095  -0.31958  -0.31820  -0.31355  -0.30825
 Alpha  occ. eigenvalues --   -0.30677  -0.30314  -0.29414  -0.28532  -0.27991
 Alpha  occ. eigenvalues --   -0.27670  -0.27473  -0.25888  -0.24298  -0.22684
 Alpha  occ. eigenvalues --   -0.21108  -0.19004  -0.16941
 Alpha virt. eigenvalues --   -0.07701  -0.04870  -0.01871   0.00673   0.02523
 Alpha virt. eigenvalues --    0.03629   0.05830   0.06158   0.06454   0.06644
 Alpha virt. eigenvalues --    0.07437   0.08149   0.08346   0.08554   0.08752

 Mulliken charges:
               1
     1  C   -0.018965
     2  C    0.014956
     3  C   -0.167613
     4  C   -0.145909
     5  C   -0.183978
     6  C   -0.175076
     7  C    0.090304
     8  C    0.058411
     9  C   -0.217362
    10  C   -0.203701
    11  C    0.050802
    12  C    0.072202
    13  C   -0.293444
    14  C   -0.298782
    15  C   -0.282625
    16  C   -0.286132
    17  C   -0.133532
    18  C   -0.178590
    19  C   -0.369787
    20  C   -0.372756
    21  C   -0.109833
    22  C   -0.048335
    23  C    0.140208
    24  C    0.126097
    25  C   -0.355838
    26  C   -0.369977
    27  C   -0.142782
    28  C   -0.133524
    29  C   -0.079554
    30  C   -0.106909
    31  C   -0.101593
    32  C   -0.106132
    33  C    0.120035
    34  C    0.072390
    35  C   -0.388035
    36  C   -0.325957
    37  C   -0.114475
    38  C   -0.107818
    39  C   -0.039725
    40  C   -0.125164
    41  H    0.093643
    42  H    0.088732
    43  H    0.053614
    44  H    0.049937
    45  H    0.088182
    46  H    0.112525
    47  H    0.072865
    48  H    0.096799
    49  H    0.075766
    50  H    0.080762
    51  H    0.102570
    52  H    0.092758
    53  H    0.094687
    54  H    0.069058
    55  H    0.114341
    56  H    0.099414
    57  H    0.099396
    58  H    0.094083
    59  H    0.071563
    60  H    0.114394
    61  H    0.104770
    62  H    0.116690
    63  H    0.097349
    64  H    0.066400
    65  H    0.081995
    66  H    0.063954
    67  H    0.114509
    68  H    0.115048
    69  H    0.115051
    70  H    0.113063
    71  H    0.115890
    72  H    0.118977
    73  H    0.080663
    74  H    0.066138
    75  H    0.132839
    76  H    0.106669
    77  H    0.070326
    78  H    0.130723
    79  H    0.101706
    80  H    0.118313
    81  H    0.069771
    82  H    0.079831
    83  H    0.061380
    84  H    0.076786
    85  H    0.078933
    86  H    0.071825
    87  H    0.101249
    88  H    0.108424
    89  H    0.139687
    90  H    0.117451
    91  H    0.138500
    92  H    0.087682
    93  H    0.064350
    94  H    0.084432
    95  H    0.074621
    96  H    0.087415
 Sum of Mulliken charges =  -0.00000

 Dipole moment (field-independent basis, Debye):
    X=             -0.3840    Y=             -0.6238    Z=             -0.4116  Tot=              0.8402
 Quadrupole moment (field-independent basis, Debye-Ang):
   XX=           -233.8085   YY=           -233.8082   ZZ=           -256.1096
   XY=              1.7099   XZ=              5.2366   YZ=              0.8581

 Normal termination of Gaussian 16 at Fri Jul 26 12:30:03 2019.
