 Gaussian 16, Revision A.03,
 Gaussian 16:  ES64L-G16RevA.03 25-Dec-2016

 ---------------------------------
 # td=(NStates=1) B3LYP/6-31G(d,p)
 ---------------------------------

 --
 TD
 --
 Symbolic Z-matrix:
 Charge =  0 Multiplicity = 1

                         Standard orientation:
 ---------------------------------------------------------------------
 Center     Atomic      Atomic             Coordinates (Angstroms)
 Number     Number       Type             X           Y           Z
 ---------------------------------------------------------------------
      1          6           0       12.155741   -0.577232    0.691554
      2          6           0      -12.198216    0.013359   -0.795384
      3          6           0       13.413725    0.214579    0.543285
      4          6           0      -13.085710   -1.212676   -1.222807
      5          6           0       13.301258    1.784529    0.622036
      6          6           0      -13.433497   -2.060613    0.018383
      7          6           0       11.074148    0.003080   -0.115541
      8          6           0      -10.988194   -0.411121    0.137989
      9          6           0       12.336261    2.081799   -0.539870
     10          6           0      -12.103246   -2.636649    0.560151
     11          6           0       11.195528    1.191824   -0.719502
     12          6           0      -11.024582   -1.635549    0.726536
     13          6           0       11.655134   -0.810838    2.207813
     14          6           0       12.460294   -2.083516    0.168800
     15          6           0      -12.976286    1.203619   -0.029888
     16          6           0      -11.542352    0.595750   -2.092619
     17          6           0        9.856847   -0.804927   -0.326750
     18          6           0       -9.914823    0.473006    0.311356
     19          6           0       10.161402    1.772995   -1.703948
     20          6           0       -9.923204   -2.084247    1.702447
     21          6           0        8.496192   -0.366160   -0.285855
     22          6           0       -8.608125    0.308949    0.234104
     23          6           0        7.394976   -1.241139   -0.387290
     24          6           0       -7.553955    1.251287    0.290151
     25          6           0        7.560085   -2.743643   -0.691611
     26          6           0       -7.904802    2.668200    0.617095
     27          6           0        6.080451   -0.660175   -0.263483
     28          6           0       -6.257072    0.848738    0.227566
     29          6           0        4.900371   -1.331040   -0.491403
     30          6           0       -5.036322    1.634544    0.205435
     31          6           0        3.767630   -0.578978   -0.362411
     32          6           0       -3.792714    1.140893    0.219586
     33          6           0        2.376034   -1.177246   -0.409052
     34          6           0       -2.594347    1.806297    0.438824
     35          6           0        2.334793   -2.613730   -0.711077
     36          6           0       -2.513443    3.339327    0.624171
     37          6           0        1.278470   -0.457087   -0.259944
     38          6           0       -1.399565    1.091776    0.366357
     39          6           0        1.112845    0.952352    0.089353
     40          6           0       -0.042953    1.671016    0.326406
     41          1           0       14.183922   -0.228931   -0.276257
     42          1           0       13.966539   -0.412373    1.395893
     43          1           0      -12.489597   -1.903022   -1.690111
     44          1           0      -13.800723   -0.819201   -1.870730
     45          1           0       14.313026    2.185057    0.307281
     46          1           0       13.047843    1.880727    1.601244
     47          1           0      -14.075490   -2.833337   -0.192560
     48          1           0      -13.896459   -1.478576    0.737962
     49          1           0       12.891511    2.157227   -1.481837
     50          1           0       11.975730    3.020412   -0.476687
     51          1           0      -11.623550   -3.569500    0.184758
     52          1           0      -12.151022   -2.984004    1.423405
     53          1           0       11.087863    0.026295    2.758254
     54          1           0       12.438101   -1.075449    3.042103
     55          1           0       10.871773   -1.537517    2.272671
     56          1           0       12.610120   -1.952185   -0.910086
     57          1           0       11.754443   -2.792767    0.294061
     58          1           0       13.365949   -2.525434    0.818653
     59          1           0      -13.362830    0.563592    0.829079
     60          1           0      -13.835394    1.493707   -0.686906
     61          1           0      -12.222851    1.936041    0.369667
     62          1           0      -10.774674   -0.274788   -2.455983
     63          1           0      -11.117600    1.470321   -2.015738
     64          1           0      -12.266834    1.050127   -2.914547
     65          1           0       10.037505   -1.740379   -0.450027
     66          1           0      -10.175427    1.589189    0.482077
     67          1           0        9.410133    1.062123   -1.937563
     68          1           0       10.668986    2.184375   -2.754722
     69          1           0        9.783349    2.655696   -1.102364
     70          1           0       -9.468865   -1.124629    1.888174
     71          1           0       -9.116922   -2.650174    1.162375
     72          1           0      -10.511473   -2.408091    2.615178
     73          1           0        8.424888    0.759783   -0.081638
     74          1           0       -8.288491   -0.657429   -0.057570
     75          1           0        8.507568   -2.838554   -1.424131
     76          1           0        6.527766   -3.311748   -1.170398
     77          1           0        7.945493   -3.345198    0.015045
     78          1           0       -8.650487    2.614168    1.566138
     79          1           0       -8.688769    3.049534   -0.131832
     80          1           0       -7.189585    3.429263    0.817876
     81          1           0        6.173930    0.331258   -0.140563
     82          1           0       -6.130069   -0.322104    0.043191
     83          1           0        4.824401   -2.347895   -0.642991
     84          1           0       -5.248704    2.688078    0.344975
     85          1           0        3.815329    0.507970   -0.012682
     86          1           0       -3.803325    0.032958    0.137391
     87          1           0        2.624076   -2.988739   -1.772851
     88          1           0        1.365260   -3.109157   -0.649252
     89          1           0        2.764968   -3.026777    0.132408
     90          1           0       -2.990764    3.536971    1.593402
     91          1           0       -2.954763    3.763001   -0.274742
     92          1           0       -1.575750    3.763677    0.720490
     93          1           0        0.319912   -1.109035    0.021624
     94          1           0       -1.542328    0.118168    0.028058
     95          1           0        2.062253    1.516518    0.277275
     96          1           0        0.077454    2.612648    0.168286
 ---------------------------------------------------------------------

 SCF Done:  E(RB3LYP) =  -1557.53791007     A.U. after   15 cycles

 Excitation energies and oscillator strengths:

 Excited State   1:      Singlet-A      2.1571 eV  574.78 nm  f=2.8915  <S**2>=0.000
     148 ->149         0.70924
 This state for optimization and/or second-order correction.
 Total Energy, E(TD-HF/TD-DFT) =  -1557.45863910
 Copying the excited state density for this state as the 1-particle RhoCI density.

 The electronic state is 1-A.
 Alpha  occ. eigenvalues --  -10.20620 -10.20511 -10.20303 -10.20109 -10.19678
 Alpha  occ. eigenvalues --  -10.19672 -10.19511 -10.19495 -10.19486 -10.19342
 Alpha  occ. eigenvalues --  -10.19319 -10.19180 -10.18978 -10.18882 -10.18847
 Alpha  occ. eigenvalues --  -10.18542 -10.18538 -10.18455 -10.18366 -10.18330
 Alpha  occ. eigenvalues --  -10.18284 -10.18257 -10.18222 -10.18180 -10.18054
 Alpha  occ. eigenvalues --  -10.17989 -10.17884 -10.17868 -10.17862 -10.17648
 Alpha  occ. eigenvalues --  -10.17629 -10.17577 -10.17471 -10.17457 -10.17270
 Alpha  occ. eigenvalues --  -10.17259 -10.17124 -10.17032 -10.16551 -10.16451
 Alpha  occ. eigenvalues --   -0.85648  -0.85028  -0.83650  -0.83350  -0.82254
 Alpha  occ. eigenvalues --   -0.81489  -0.78952  -0.78574  -0.78095  -0.77990
 Alpha  occ. eigenvalues --   -0.77183  -0.75554  -0.74622  -0.72195  -0.71051
 Alpha  occ. eigenvalues --   -0.70090  -0.68767  -0.68366  -0.68246  -0.67832
 Alpha  occ. eigenvalues --   -0.67686  -0.67146  -0.67030  -0.66947  -0.66532
 Alpha  occ. eigenvalues --   -0.63309  -0.62777  -0.61242  -0.60066  -0.58161
 Alpha  occ. eigenvalues --   -0.57121  -0.55790  -0.55475  -0.54471  -0.53465
 Alpha  occ. eigenvalues --   -0.52962  -0.51940  -0.50790  -0.50239  -0.49043
 Alpha  occ. eigenvalues --   -0.48587  -0.48050  -0.47525  -0.47210  -0.46294
 Alpha  occ. eigenvalues --   -0.45466  -0.45095  -0.44393  -0.44041  -0.43840
 Alpha  occ. eigenvalues --   -0.43674  -0.43275  -0.43191  -0.42878  -0.42716
 Alpha  occ. eigenvalues --   -0.42511  -0.41831  -0.41573  -0.41440  -0.40981
 Alpha  occ. eigenvalues --   -0.40707  -0.40136  -0.40004  -0.39695  -0.39405
 Alpha  occ. eigenvalues --   -0.39173  -0.38841  -0.38624  -0.38366  -0.38142
 Alpha  occ. eigenvalues --   -0.37821  -0.37229  -0.36863  -0.36759  -0.36559
 Alpha  occ. eigenvalues --   -0.36357  -0.36233  -0.36016  -0.35928  -0.35735
 Alpha  occ. eigenvalues --   -0.35447  -0.34902  -0.34552  -0.34419  -0.34008
 Alpha  occ. eigenvalues --   -0.33449  -0.33368  -0.33278  -0.32740  -0.32704
 Alpha  occ. eigenvalues --   -0.32524  -0.32215  -0.31886  -0.31231  -0.30997
 Alpha  occ. eigenvalues --   -0.30213  -0.29747  -0.29181  -0.28989  -0.28416
 Alpha  occ. eigenvalues --   -0.27830  -0.27696  -0.26363  -0.24044  -0.22866
 Alpha  occ. eigenvalues --   -0.21029  -0.18220  -0.16309
 Alpha virt. eigenvalues --   -0.08033  -0.05592  -0.01611   0.01107   0.02930
 Alpha virt. eigenvalues --    0.04550   0.06008   0.06609   0.07599   0.07714
 Alpha virt. eigenvalues --    0.08397   0.08615   0.08847   0.09103   0.09264

 Mulliken charges:
               1
     1  C   -0.004967
     2  C   -0.017611
     3  C   -0.194652
     4  C   -0.165083
     5  C   -0.191594
     6  C   -0.198437
     7  C    0.106315
     8  C    0.089188
     9  C   -0.211955
    10  C   -0.197833
    11  C    0.049171
    12  C    0.014821
    13  C   -0.310520
    14  C   -0.309030
    15  C   -0.309321
    16  C   -0.275902
    17  C   -0.118475
    18  C   -0.150426
    19  C   -0.350739
    20  C   -0.369800
    21  C   -0.124073
    22  C   -0.081211
    23  C    0.111716
    24  C    0.170863
    25  C   -0.367084
    26  C   -0.390903
    27  C   -0.100934
    28  C   -0.147407
    29  C   -0.047553
    30  C   -0.077994
    31  C   -0.111595
    32  C   -0.108206
    33  C    0.110891
    34  C    0.106871
    35  C   -0.378236
    36  C   -0.367394
    37  C   -0.133530
    38  C   -0.120664
    39  C   -0.105326
    40  C   -0.084305
    41  H    0.075793
    42  H    0.063056
    43  H    0.112819
    44  H    0.090331
    45  H    0.098188
    46  H    0.122876
    47  H    0.094715
    48  H    0.106903
    49  H    0.107612
    50  H    0.105480
    51  H    0.095724
    52  H    0.097201
    53  H    0.085588
    54  H    0.085281
    55  H    0.112992
    56  H    0.107443
    57  H    0.115358
    58  H    0.079918
    59  H    0.097170
    60  H    0.100929
    61  H    0.109790
    62  H    0.080841
    63  H    0.110010
    64  H    0.057888
    65  H    0.055239
    66  H    0.053122
    67  H    0.131978
    68  H    0.076453
    69  H    0.108105
    70  H    0.130009
    71  H    0.116700
    72  H    0.101445
    73  H    0.090097
    74  H    0.070832
    75  H    0.093539
    76  H    0.085479
    77  H    0.141377
    78  H    0.100307
    79  H    0.111933
    80  H    0.118681
    81  H    0.070804
    82  H    0.054853
    83  H    0.089357
    84  H    0.072566
    85  H    0.080078
    86  H    0.077795
    87  H    0.114827
    88  H    0.103228
    89  H    0.133101
    90  H    0.119094
    91  H    0.123355
    92  H    0.118007
    93  H    0.067573
    94  H    0.081412
    95  H    0.074832
    96  H    0.082841
 Sum of Mulliken charges =  -0.00000

 Dipole moment (field-independent basis, Debye):
    X=              0.5741    Y=             -0.3191    Z=              0.2964  Tot=              0.7206
 Quadrupole moment (field-independent basis, Debye-Ang):
   XX=           -225.5435   YY=           -230.5990   ZZ=           -256.3139
   XY=              4.9441   XZ=             -2.5272   YZ=              0.4861

 Normal termination of Gaussian 16 at Wed Jul 31 11:12:30 2019.
