 Gaussian 16, Revision A.03,
 Gaussian 16:  ES64L-G16RevA.03 25-Dec-2016

 ---------------------------------
 # td=(NStates=1) B3LYP/6-31G(d,p)
 ---------------------------------

 --
 TD
 --
 Symbolic Z-matrix:
 Charge =  0 Multiplicity = 1

                         Standard orientation:
 ---------------------------------------------------------------------
 Center     Atomic      Atomic             Coordinates (Angstroms)
 Number     Number       Type             X           Y           Z
 ---------------------------------------------------------------------
      1          6           0       12.187942    0.380548   -0.677615
      2          6           0      -12.152068   -0.101280    0.997274
      3          6           0       13.489073   -0.413774   -0.543297
      4          6           0      -13.015005    1.067816    1.337406
      5          6           0       13.113482   -1.880544   -0.413877
      6          6           0      -13.405149    2.068691    0.309969
      7          6           0       11.077979    0.042110    0.355041
      8          6           0      -11.051159    0.346535   -0.000274
      9          6           0       12.302011   -2.095526    0.860022
     10          6           0      -12.185295    2.685479   -0.405958
     11          6           0       11.170946   -1.141546    1.042318
     12          6           0      -11.099528    1.577207   -0.597404
     13          6           0       11.671125    0.310317   -2.156542
     14          6           0       12.567588    2.001434   -0.461048
     15          6           0      -13.039184   -1.214709    0.152856
     16          6           0      -11.471782   -0.765973    2.166545
     17          6           0        9.878520    0.872411    0.361443
     18          6           0       -9.997420   -0.593852   -0.259306
     19          6           0       10.228326   -1.528614    2.163724
     20          6           0      -10.113290    2.109893   -1.600446
     21          6           0        8.640636    0.542528    0.311247
     22          6           0       -8.609082   -0.280868   -0.193489
     23          6           0        7.360291    1.373298    0.368611
     24          6           0       -7.503462   -1.271101   -0.529120
     25          6           0        7.566489    2.874294    0.693784
     26          6           0       -7.937946   -2.694662   -0.729585
     27          6           0        6.143163    0.767897    0.298215
     28          6           0       -6.237319   -0.889866   -0.330561
     29          6           0        4.929154    1.389730    0.345349
     30          6           0       -5.028263   -1.539789   -0.484193
     31          6           0        3.737878    0.722523    0.148214
     32          6           0       -3.804175   -1.019087   -0.458737
     33          6           0        2.321366    1.334859    0.091182
     34          6           0       -2.518893   -1.838872   -0.528815
     35          6           0        2.227967    2.810614    0.261589
     36          6           0       -2.564807   -3.265229   -0.606602
     37          6           0        1.273925    0.564608   -0.161444
     38          6           0       -1.274142   -1.155946   -0.471310
     39          6           0        1.127650   -0.875599   -0.314783
     40          6           0        0.091031   -1.617872   -0.420453
     41          1           0       14.100979    0.035696    0.421133
     42          1           0       13.973962   -0.267313   -1.488217
     43          1           0      -12.281230    1.560382    2.170209
     44          1           0      -13.933660    0.708918    1.655883
     45          1           0       14.129066   -2.324301   -0.364440
     46          1           0       12.675160   -2.377947   -1.350145
     47          1           0      -14.089836    2.943384    0.777060
     48          1           0      -13.996378    1.544237   -0.306866
     49          1           0       13.187164   -1.810200    1.689732
     50          1           0       11.815122   -3.155440    0.771924
     51          1           0      -11.743349    3.480171    0.124771
     52          1           0      -12.546850    3.029947   -1.439273
     53          1           0       11.607342   -0.663460   -2.422360
     54          1           0       12.478720    0.741631   -2.885610
     55          1           0       10.711633    1.011431   -2.234963
     56          1           0       12.800420    2.275149    0.552327
     57          1           0       11.832557    2.696205   -0.798592
     58          1           0       13.423381    2.177028   -1.059743
     59          1           0      -13.543405   -0.724160   -0.541713
     60          1           0      -13.854390   -1.511615    0.818627
     61          1           0      -12.422170   -2.163940   -0.227152
     62          1           0      -11.036575    0.066073    2.621923
     63          1           0      -10.731898   -1.514085    1.871740
     64          1           0      -12.208889   -1.163747    2.859132
     65          1           0       10.170230    1.895727    0.503347
     66          1           0      -10.285591   -1.631802   -0.347801
     67          1           0        9.515460   -0.788663    2.466002
     68          1           0       10.745990   -1.943266    3.118614
     69          1           0        9.542519   -2.397934    1.993991
     70          1           0       -9.442773    1.540299   -2.084153
     71          1           0       -9.383290    2.833528   -1.373479
     72          1           0      -10.480602    2.415543   -2.487271
     73          1           0        8.344271   -0.501068    0.317497
     74          1           0       -8.095131    0.664822   -0.044179
     75          1           0        8.161414    2.929267    1.498354
     76          1           0        6.475325    3.373591    0.902451
     77          1           0        8.268610    3.374341   -0.089854
     78          1           0       -8.430278   -2.653741   -1.681107
     79          1           0       -8.675068   -3.078514    0.022860
     80          1           0       -7.062555   -3.326767   -0.731229
     81          1           0        5.973081   -0.320656    0.353208
     82          1           0       -6.080831    0.241126   -0.194823
     83          1           0        4.912354    2.471896    0.603403
     84          1           0       -5.025602   -2.644247   -0.777306
     85          1           0        3.848071   -0.417115   -0.020268
     86          1           0       -3.799149    0.115750   -0.133862
     87          1           0        2.528845    3.078886    1.360475
     88          1           0        1.209895    3.295345    0.030237
     89          1           0        3.031635    3.282791   -0.436095
     90          1           0       -2.882014   -3.758992   -1.638562
     91          1           0       -3.104151   -3.774082    0.251303
     92          1           0       -1.674581   -3.796324   -0.747763
     93          1           0        0.195912    1.077406   -0.211690
     94          1           0       -1.627250   -0.047262   -0.339631
     95          1           0        2.080037   -1.405853   -0.365246
     96          1           0        0.106910   -2.646583   -0.452389
 ---------------------------------------------------------------------

 SCF Done:  E(RB3LYP) =  -1557.61705705     A.U. after   14 cycles

 Excitation energies and oscillator strengths:

 Excited State   1:      Singlet-A      2.5335 eV  489.39 nm  f=2.6929  <S**2>=0.000
     148 ->149         0.70306
 This state for optimization and/or second-order correction.
 Total Energy, E(TD-HF/TD-DFT) =  -1557.52395398
 Copying the excited state density for this state as the 1-particle RhoCI density.

 The electronic state is 1-A.
 Alpha  occ. eigenvalues --  -10.20823 -10.20698 -10.20656 -10.20322 -10.20258
 Alpha  occ. eigenvalues --  -10.20246 -10.20212 -10.19756 -10.19684 -10.19503
 Alpha  occ. eigenvalues --  -10.19487 -10.19463 -10.19393 -10.19294 -10.19176
 Alpha  occ. eigenvalues --  -10.19092 -10.19029 -10.18826 -10.18787 -10.18644
 Alpha  occ. eigenvalues --  -10.18523 -10.18454 -10.18445 -10.18444 -10.18370
 Alpha  occ. eigenvalues --  -10.18355 -10.18310 -10.18210 -10.18191 -10.18088
 Alpha  occ. eigenvalues --  -10.17909 -10.17832 -10.17814 -10.17778 -10.17637
 Alpha  occ. eigenvalues --  -10.17627 -10.17323 -10.16384 -10.16139 -10.14420
 Alpha  occ. eigenvalues --   -0.84990  -0.84678  -0.83591  -0.83080  -0.82343
 Alpha  occ. eigenvalues --   -0.80990  -0.79470  -0.78452  -0.78137  -0.77590
 Alpha  occ. eigenvalues --   -0.77283  -0.75552  -0.75005  -0.72350  -0.72244
 Alpha  occ. eigenvalues --   -0.69741  -0.68988  -0.68815  -0.68550  -0.68128
 Alpha  occ. eigenvalues --   -0.67590  -0.67460  -0.67192  -0.66526  -0.66288
 Alpha  occ. eigenvalues --   -0.62748  -0.62003  -0.59943  -0.58795  -0.57758
 Alpha  occ. eigenvalues --   -0.56406  -0.56025  -0.54880  -0.53781  -0.53292
 Alpha  occ. eigenvalues --   -0.52632  -0.51893  -0.49725  -0.49304  -0.48559
 Alpha  occ. eigenvalues --   -0.48335  -0.47776  -0.47682  -0.46905  -0.46039
 Alpha  occ. eigenvalues --   -0.45680  -0.44879  -0.44808  -0.44223  -0.43910
 Alpha  occ. eigenvalues --   -0.43661  -0.43422  -0.42879  -0.42381  -0.41891
 Alpha  occ. eigenvalues --   -0.41818  -0.41768  -0.41593  -0.41128  -0.40964
 Alpha  occ. eigenvalues --   -0.40828  -0.40298  -0.39799  -0.39630  -0.39540
 Alpha  occ. eigenvalues --   -0.39104  -0.38963  -0.38760  -0.38635  -0.38238
 Alpha  occ. eigenvalues --   -0.38225  -0.37740  -0.37539  -0.37173  -0.36928
 Alpha  occ. eigenvalues --   -0.36799  -0.36469  -0.36215  -0.35711  -0.35433
 Alpha  occ. eigenvalues --   -0.35023  -0.34414  -0.34369  -0.34258  -0.34061
 Alpha  occ. eigenvalues --   -0.33904  -0.33128  -0.33037  -0.32967  -0.32893
 Alpha  occ. eigenvalues --   -0.32308  -0.31725  -0.31143  -0.31017  -0.30754
 Alpha  occ. eigenvalues --   -0.30304  -0.30111  -0.30043  -0.28920  -0.28336
 Alpha  occ. eigenvalues --   -0.27948  -0.27328  -0.26278  -0.24121  -0.22461
 Alpha  occ. eigenvalues --   -0.21289  -0.19214  -0.17325
 Alpha virt. eigenvalues --   -0.07276  -0.04985  -0.01815   0.00698   0.02491
 Alpha virt. eigenvalues --    0.04355   0.06154   0.06539   0.06590   0.06977
 Alpha virt. eigenvalues --    0.07488   0.08023   0.08702   0.09120   0.09184

 Mulliken charges:
               1
     1  C    0.000609
     2  C   -0.019356
     3  C   -0.169508
     4  C   -0.161163
     5  C   -0.194819
     6  C   -0.179973
     7  C    0.073488
     8  C    0.107286
     9  C   -0.205404
    10  C   -0.210084
    11  C    0.081756
    12  C    0.034491
    13  C   -0.288437
    14  C   -0.334987
    15  C   -0.315717
    16  C   -0.285284
    17  C   -0.133185
    18  C   -0.167258
    19  C   -0.371492
    20  C   -0.373385
    21  C   -0.069011
    22  C   -0.074501
    23  C    0.083904
    24  C    0.101547
    25  C   -0.361015
    26  C   -0.369282
    27  C   -0.111554
    28  C   -0.129329
    29  C   -0.050077
    30  C   -0.052193
    31  C   -0.139803
    32  C   -0.128216
    33  C    0.139802
    34  C    0.112610
    35  C   -0.370608
    36  C   -0.390301
    37  C   -0.137717
    38  C   -0.110949
    39  C   -0.050011
    40  C   -0.086187
    41  H    0.076142
    42  H    0.097083
    43  H    0.061492
    44  H    0.090593
    45  H    0.092269
    46  H    0.092166
    47  H    0.068299
    48  H    0.109187
    49  H    0.084853
    50  H    0.095345
    51  H    0.119897
    52  H    0.094058
    53  H    0.110716
    54  H    0.078064
    55  H    0.098450
    56  H    0.098630
    57  H    0.099855
    58  H    0.099256
    59  H    0.115476
    60  H    0.091485
    61  H    0.085277
    62  H    0.106568
    63  H    0.105779
    64  H    0.094326
    65  H    0.077185
    66  H    0.088037
    67  H    0.120526
    68  H    0.093340
    69  H    0.101701
    70  H    0.109706
    71  H    0.108726
    72  H    0.104912
    73  H    0.074305
    74  H    0.080030
    75  H    0.143197
    76  H    0.089458
    77  H    0.107492
    78  H    0.128705
    79  H    0.115136
    80  H    0.107558
    81  H    0.079384
    82  H    0.058343
    83  H    0.073043
    84  H    0.075348
    85  H    0.075985
    86  H    0.071919
    87  H    0.112736
    88  H    0.109729
    89  H    0.113517
    90  H    0.095941
    91  H    0.119965
    92  H    0.117252
    93  H    0.067536
    94  H    0.065738
    95  H    0.070508
    96  H    0.083089
 Sum of Mulliken charges =  -0.00000

 Dipole moment (field-independent basis, Debye):
    X=              0.2409    Y=             -0.4311    Z=             -0.0428  Tot=              0.4957
 Quadrupole moment (field-independent basis, Debye-Ang):
   XX=           -219.6773   YY=           -234.4631   ZZ=           -255.5293
   XY=             -0.4282   XZ=              2.1537   YZ=              2.5816

 Normal termination of Gaussian 16 at Mon Jul 29 11:53:05 2019.
