 Gaussian 16, Revision A.03,
 Gaussian 16:  ES64L-G16RevA.03 25-Dec-2016

 ---------------------------------
 # td=(NStates=1) B3LYP/6-31G(d,p)
 ---------------------------------

 --
 TD
 --
 Symbolic Z-matrix:
 Charge =  0 Multiplicity = 1

                         Standard orientation:
 ---------------------------------------------------------------------
 Center     Atomic      Atomic             Coordinates (Angstroms)
 Number     Number       Type             X           Y           Z
 ---------------------------------------------------------------------
      1          6           0       12.104858    0.525715   -0.746677
      2          6           0      -12.100493   -0.087158    0.817550
      3          6           0       13.423395   -0.381885   -0.652715
      4          6           0      -12.930429    1.055609    1.283705
      5          6           0       13.083301   -1.779891   -0.630660
      6          6           0      -13.480345    1.933015    0.116018
      7          6           0       10.974155   -0.096106    0.235837
      8          6           0      -11.036986    0.406985   -0.129729
      9          6           0       12.404630   -2.174791    0.661691
     10          6           0      -12.204841    2.574057   -0.445370
     11          6           0       11.146114   -1.197605    0.900897
     12          6           0      -11.160685    1.529196   -0.789102
     13          6           0       11.672436    0.646867   -2.203913
     14          6           0       12.574894    1.893107   -0.243672
     15          6           0      -12.975684   -1.150504    0.105956
     16          6           0      -11.491419   -0.581617    2.054470
     17          6           0        9.813986    0.866587    0.366310
     18          6           0       -9.874690   -0.568295   -0.336416
     19          6           0       10.186601   -1.707084    2.041900
     20          6           0      -10.096702    2.019643   -1.792884
     21          6           0        8.558170    0.437143    0.323801
     22          6           0       -8.599058   -0.267983   -0.262050
     23          6           0        7.377233    1.246542    0.397546
     24          6           0       -7.523942   -1.206091   -0.330879
     25          6           0        7.614741    2.778511    0.570792
     26          6           0       -7.950291   -2.715187   -0.614549
     27          6           0        6.134880    0.653608    0.295546
     28          6           0       -6.204068   -0.805867   -0.148368
     29          6           0        4.904912    1.326380    0.365312
     30          6           0       -4.980987   -1.584568   -0.407132
     31          6           0        3.724033    0.710945    0.145911
     32          6           0       -3.840597   -1.049858   -0.218966
     33          6           0        2.453399    1.370214    0.277530
     34          6           0       -2.525832   -1.712817   -0.425323
     35          6           0        2.349742    2.837820    0.614924
     36          6           0       -2.541760   -3.259901   -0.714610
     37          6           0        1.349100    0.673692    0.025285
     38          6           0       -1.443321   -1.035168   -0.130791
     39          6           0        1.133742   -0.796062   -0.292030
     40          6           0       -0.093488   -1.482312   -0.324784
     41          1           0       13.833917   -0.027959    0.276520
     42          1           0       14.113836   -0.299340   -1.307631
     43          1           0      -12.163426    1.551695    1.983935
     44          1           0      -13.863810    0.586216    1.813451
     45          1           0       13.990155   -2.276994   -0.760052
     46          1           0       12.505465   -2.159360   -1.705536
     47          1           0      -14.212111    2.692651    0.674625
     48          1           0      -13.998668    1.224670   -0.509256
     49          1           0       13.050803   -2.237208    1.589055
     50          1           0       11.821060   -3.185108    0.649713
     51          1           0      -11.888495    3.321570    0.271598
     52          1           0      -12.354271    3.150476   -1.321835
     53          1           0       11.659260   -0.294082   -2.589471
     54          1           0       12.433439    1.166837   -2.782335
     55          1           0       10.633309    1.108327   -2.178875
     56          1           0       12.826916    1.747074    0.786044
     57          1           0       11.628283    2.622867   -0.165694
     58          1           0       13.591666    2.351800   -0.773690
     59          1           0      -13.421450   -0.752044   -0.749371
     60          1           0      -13.561494   -1.676677    0.866754
     61          1           0      -12.358444   -1.920455   -0.063412
     62          1           0      -10.878729    0.174058    2.546978
     63          1           0      -10.821211   -1.506192    1.995758
     64          1           0      -12.229940   -1.088752    2.619862
     65          1           0       10.083001    1.984751    0.238066
     66          1           0      -10.093276   -1.649031   -0.425941
     67          1           0        9.623409   -0.826974    2.352474
     68          1           0       10.666872   -2.143998    2.804689
     69          1           0        9.370752   -2.395534    1.533562
     70          1           0       -9.439870    1.139204   -1.974213
     71          1           0       -9.444525    2.772349   -1.495194
     72          1           0      -10.773596    2.370523   -2.765981
     73          1           0        8.428202   -0.699951    0.251906
     74          1           0       -8.181697    0.656528   -0.162044
     75          1           0        7.874454    2.956729    1.564583
     76          1           0        6.662531    3.368581    0.743768
     77          1           0        8.394808    3.327506   -0.251263
     78          1           0       -8.514977   -2.909117   -1.429982
     79          1           0       -8.257047   -3.076871    0.364422
     80          1           0       -7.007378   -3.403598   -0.752011
     81          1           0        6.339361   -0.485031    0.158571
     82          1           0       -5.933784    0.231044    0.079973
     83          1           0        5.004503    2.347551    0.748755
     84          1           0       -5.222144   -2.721591   -0.673693
     85          1           0        3.777320   -0.318886   -0.238830
     86          1           0       -3.768593    0.009763   -0.068638
     87          1           0        2.548150    2.944813    1.784558
     88          1           0        1.280149    3.262665    0.465826
     89          1           0        3.038932    3.618332    0.141007
     90          1           0       -2.823042   -3.581569   -1.630694
     91          1           0       -3.131919   -3.795982   -0.062717
     92          1           0       -1.485016   -3.716579   -0.802364
     93          1           0        0.354130    1.080152    0.395068
     94          1           0       -1.470955    0.014176    0.141972
     95          1           0        2.027844   -1.326605   -0.227198
     96          1           0        0.165121   -2.376755   -0.537736
 ---------------------------------------------------------------------

 SCF Done:  E(RB3LYP) =  -1557.59050419     A.U. after   14 cycles

 Excitation energies and oscillator strengths:

 Excited State   1:      Singlet-A      2.5337 eV  489.35 nm  f=2.8026  <S**2>=0.000
     148 ->149         0.70513
 This state for optimization and/or second-order correction.
 Total Energy, E(TD-HF/TD-DFT) =  -1557.49739384
 Copying the excited state density for this state as the 1-particle RhoCI density.

 The electronic state is 1-A.
 Alpha  occ. eigenvalues --  -10.20336 -10.20320 -10.20263 -10.19907 -10.19770
 Alpha  occ. eigenvalues --  -10.19672 -10.19609 -10.19489 -10.19206 -10.19112
 Alpha  occ. eigenvalues --  -10.19072 -10.19048 -10.18843 -10.18767 -10.18689
 Alpha  occ. eigenvalues --  -10.18689 -10.18635 -10.18602 -10.18597 -10.18550
 Alpha  occ. eigenvalues --  -10.18539 -10.18440 -10.18438 -10.18174 -10.18153
 Alpha  occ. eigenvalues --  -10.18135 -10.18096 -10.18078 -10.17972 -10.17864
 Alpha  occ. eigenvalues --  -10.17825 -10.17745 -10.17734 -10.17633 -10.17470
 Alpha  occ. eigenvalues --  -10.17261 -10.16458 -10.15902 -10.15730 -10.15226
 Alpha  occ. eigenvalues --   -0.86190  -0.84415  -0.83837  -0.83358  -0.82183
 Alpha  occ. eigenvalues --   -0.81620  -0.79406  -0.78900  -0.78280  -0.77119
 Alpha  occ. eigenvalues --   -0.76445  -0.75594  -0.74493  -0.71878  -0.71694
 Alpha  occ. eigenvalues --   -0.70341  -0.69859  -0.69025  -0.68340  -0.67996
 Alpha  occ. eigenvalues --   -0.67858  -0.67765  -0.67083  -0.66426  -0.66355
 Alpha  occ. eigenvalues --   -0.62780  -0.61932  -0.59569  -0.58441  -0.57784
 Alpha  occ. eigenvalues --   -0.56240  -0.55635  -0.54945  -0.53833  -0.53685
 Alpha  occ. eigenvalues --   -0.52641  -0.52102  -0.50764  -0.50441  -0.48795
 Alpha  occ. eigenvalues --   -0.48386  -0.47369  -0.46952  -0.46916  -0.46341
 Alpha  occ. eigenvalues --   -0.45620  -0.45511  -0.44568  -0.44467  -0.44294
 Alpha  occ. eigenvalues --   -0.43917  -0.43641  -0.42723  -0.42531  -0.42348
 Alpha  occ. eigenvalues --   -0.42032  -0.41682  -0.41396  -0.41056  -0.40943
 Alpha  occ. eigenvalues --   -0.40814  -0.40336  -0.40219  -0.39992  -0.39477
 Alpha  occ. eigenvalues --   -0.39124  -0.38663  -0.38256  -0.38063  -0.37991
 Alpha  occ. eigenvalues --   -0.37775  -0.37471  -0.37377  -0.37100  -0.36191
 Alpha  occ. eigenvalues --   -0.36128  -0.35887  -0.35706  -0.35452  -0.35060
 Alpha  occ. eigenvalues --   -0.34859  -0.34573  -0.34394  -0.34137  -0.33977
 Alpha  occ. eigenvalues --   -0.33894  -0.33604  -0.33435  -0.33103  -0.32773
 Alpha  occ. eigenvalues --   -0.32349  -0.32158  -0.31963  -0.31474  -0.31081
 Alpha  occ. eigenvalues --   -0.30863  -0.29835  -0.29648  -0.28965  -0.28529
 Alpha  occ. eigenvalues --   -0.27964  -0.26917  -0.26280  -0.24563  -0.23645
 Alpha  occ. eigenvalues --   -0.21870  -0.19361  -0.17221
 Alpha virt. eigenvalues --   -0.07265  -0.04732  -0.01535   0.01948   0.03431
 Alpha virt. eigenvalues --    0.04991   0.06021   0.06983   0.07068   0.07907
 Alpha virt. eigenvalues --    0.08110   0.08129   0.08584   0.08945   0.09419

 Mulliken charges:
               1
     1  C   -0.012329
     2  C   -0.019595
     3  C   -0.148023
     4  C   -0.149944
     5  C   -0.172049
     6  C   -0.190087
     7  C    0.071937
     8  C    0.101972
     9  C   -0.210452
    10  C   -0.196667
    11  C    0.024201
    12  C    0.028879
    13  C   -0.281626
    14  C   -0.287797
    15  C   -0.299481
    16  C   -0.301564
    17  C   -0.133685
    18  C   -0.169399
    19  C   -0.356721
    20  C   -0.350543
    21  C   -0.096507
    22  C   -0.026523
    23  C    0.122449
    24  C    0.088622
    25  C   -0.369821
    26  C   -0.380385
    27  C   -0.117957
    28  C   -0.153874
    29  C   -0.081617
    30  C   -0.044970
    31  C   -0.109850
    32  C   -0.110916
    33  C    0.153028
    34  C    0.125655
    35  C   -0.374028
    36  C   -0.381598
    37  C   -0.151139
    38  C   -0.108780
    39  C   -0.121551
    40  C   -0.059070
    41  H    0.089298
    42  H    0.086610
    43  H    0.075798
    44  H    0.064954
    45  H    0.091069
    46  H    0.058081
    47  H    0.074205
    48  H    0.101818
    49  H    0.102321
    50  H    0.089110
    51  H    0.111442
    52  H    0.086493
    53  H    0.104314
    54  H    0.094621
    55  H    0.091856
    56  H    0.109371
    57  H    0.070052
    58  H    0.078772
    59  H    0.111304
    60  H    0.091103
    61  H    0.109660
    62  H    0.107759
    63  H    0.074408
    64  H    0.099309
    65  H    0.076393
    66  H    0.087788
    67  H    0.124349
    68  H    0.115178
    69  H    0.095469
    70  H    0.113237
    71  H    0.122362
    72  H    0.072762
    73  H    0.079795
    74  H    0.071014
    75  H    0.137236
    76  H    0.089923
    77  H    0.100323
    78  H    0.135751
    79  H    0.135906
    80  H    0.081326
    81  H    0.070204
    82  H    0.072439
    83  H    0.084121
    84  H    0.071917
    85  H    0.088883
    86  H    0.080517
    87  H    0.101051
    88  H    0.106808
    89  H    0.117108
    90  H    0.131027
    91  H    0.130691
    92  H    0.095533
    93  H    0.065007
    94  H    0.079374
    95  H    0.082069
    96  H    0.062517
 Sum of Mulliken charges =  -0.00000

 Dipole moment (field-independent basis, Debye):
    X=             -0.1121    Y=             -0.8102    Z=              0.7841  Tot=              1.1330
 Quadrupole moment (field-independent basis, Debye-Ang):
   XX=           -227.6320   YY=           -234.1441   ZZ=           -255.3835
   XY=              4.8836   XZ=              3.5300   YZ=              4.1312

 Normal termination of Gaussian 16 at Mon Jul 29 13:08:39 2019.
