 Gaussian 16, Revision A.03,
 Gaussian 16:  ES64L-G16RevA.03 25-Dec-2016

 ---------------------------------
 # td=(NStates=1) B3LYP/6-31G(d,p)
 ---------------------------------

 --
 TD
 --
 Symbolic Z-matrix:
 Charge =  0 Multiplicity = 1

                         Standard orientation:
 ---------------------------------------------------------------------
 Center     Atomic      Atomic             Coordinates (Angstroms)
 Number     Number       Type             X           Y           Z
 ---------------------------------------------------------------------
      1          6           0      -12.148637   -0.645705   -0.618291
      2          6           0       12.123999   -0.065538    0.961901
      3          6           0      -13.418185    0.303665   -0.461596
      4          6           0       12.952639   -1.332952    1.305777
      5          6           0      -13.152685    1.710568   -0.564138
      6          6           0       13.267803   -2.287441    0.206636
      7          6           0      -11.054913   -0.103085    0.293271
      8          6           0       10.927412   -0.482130   -0.115789
      9          6           0      -12.332899    2.009482    0.669359
     10          6           0       11.979136   -2.609713   -0.538491
     11          6           0      -11.137075    1.119695    0.906069
     12          6           0       10.945145   -1.619943   -0.702462
     13          6           0      -11.660444   -0.637326   -2.026505
     14          6           0      -12.493673   -2.039221   -0.325557
     15          6           0       12.991549    0.908809    0.279023
     16          6           0       11.601242    0.633915    2.272699
     17          6           0       -9.836504   -0.898984    0.341370
     18          6           0        9.923515    0.529793   -0.163450
     19          6           0      -10.260264    1.689972    2.015986
     20          6           0        9.903374   -2.019133   -1.798342
     21          6           0       -8.593657   -0.531380    0.270485
     22          6           0        8.580027    0.268868   -0.157759
     23          6           0       -7.427881   -1.350587    0.371429
     24          6           0        7.540650    1.332475   -0.364824
     25          6           0       -7.545963   -2.880926    0.459262
     26          6           0        7.924603    2.794080   -0.625449
     27          6           0       -6.129284   -0.809200    0.221506
     28          6           0        6.247881    0.977606   -0.366342
     29          6           0       -4.864339   -1.317269    0.381953
     30          6           0        5.098880    1.760990   -0.608252
     31          6           0       -3.611765   -0.689366    0.307272
     32          6           0        3.813862    1.237930   -0.484153
     33          6           0       -2.380020   -1.134857    0.219386
     34          6           0        2.602950    1.931211   -0.582377
     35          6           0       -2.076608   -2.613531    0.437613
     36          6           0        2.523939    3.454182   -0.677520
     37          6           0       -1.249299   -0.388443    0.054449
     38          6           0        1.357458    1.253032   -0.345643
     39          6           0       -1.120821    1.088416   -0.178514
     40          6           0        0.038947    1.759010   -0.451785
     41          1           0      -14.001637    0.008578    0.472678
     42          1           0      -13.982803   -0.136149   -1.388273
     43          1           0       12.394278   -2.010693    2.006224
     44          1           0       13.868824   -1.004613    1.726902
     45          1           0      -14.083806    2.254433   -0.210797
     46          1           0      -12.543325    2.068597   -1.538620
     47          1           0       13.843586   -3.222339    0.463221
     48          1           0       14.090145   -1.816391   -0.655707
     49          1           0      -12.975362    1.915565    1.398720
     50          1           0      -11.932421    3.070677    0.732593
     51          1           0       11.522882   -3.402311    0.015051
     52          1           0       12.287536   -3.055423   -1.438943
     53          1           0      -11.191987    0.429641   -2.150050
     54          1           0      -12.581475   -0.820532   -2.439963
     55          1           0      -10.845257   -1.176707   -2.201235
     56          1           0      -12.576801   -2.365888    0.717417
     57          1           0      -11.710870   -2.862137   -0.491814
     58          1           0      -13.451593   -2.213738   -0.688624
     59          1           0       13.630539    0.550356   -0.625508
     60          1           0       13.702374    1.195284    1.069787
     61          1           0       12.276508    1.753568   -0.071547
     62          1           0       10.691663    0.088777    2.878915
     63          1           0       11.204067    1.668883    1.836484
     64          1           0       12.457818    0.887527    2.925031
     65          1           0      -10.062783   -1.853331    0.532801
     66          1           0       10.192300    1.557174   -0.198874
     67          1           0       -9.382304    1.186468    2.302265
     68          1           0      -11.026126    1.991383    3.009794
     69          1           0       -9.835109    2.738790    1.682854
     70          1           0        9.108733   -1.289745   -1.894626
     71          1           0        9.398420   -2.981769   -1.687152
     72          1           0       10.572266   -2.164929   -2.696882
     73          1           0       -8.541343    0.451190    0.270353
     74          1           0        8.074608   -0.622603    0.165884
     75          1           0       -8.188915   -3.044990    1.277343
     76          1           0       -6.714326   -3.317285    0.526158
     77          1           0       -8.239059   -3.294888   -0.297452
     78          1           0        8.759799    2.782429   -1.305074
     79          1           0        8.085209    3.253707    0.330638
     80          1           0        7.034231    3.478648   -1.164064
     81          1           0       -6.126349    0.282962    0.077697
     82          1           0        6.144829   -0.092673   -0.044578
     83          1           0       -4.819537   -2.446799    0.513367
     84          1           0        5.443403    2.849265   -0.728693
     85          1           0       -3.486333    0.285669    0.259404
     86          1           0        3.691009    0.145440   -0.518799
     87          1           0       -2.603691   -3.016810    1.413244
     88          1           0       -0.934242   -2.742919    0.472105
     89          1           0       -2.642419   -3.363851   -0.300432
     90          1           0        2.954705    3.925654   -1.554723
     91          1           0        3.077703    4.006488    0.100988
     92          1           0        1.516912    3.874655   -0.462562
     93          1           0       -0.255009   -0.846590   -0.016995
     94          1           0        1.714738    0.291720   -0.098249
     95          1           0       -2.045784    1.601399   -0.507107
     96          1           0       -0.058981    2.729360   -0.709815
 ---------------------------------------------------------------------

 SCF Done:  E(RB3LYP) =  -1557.57044601     A.U. after   16 cycles

 Excitation energies and oscillator strengths:

 Excited State   1:      Singlet-A      1.9696 eV  629.48 nm  f=3.2779  <S**2>=0.000
     148 ->149         0.71499
     148 <-149        -0.13947
 This state for optimization and/or second-order correction.
 Total Energy, E(TD-HF/TD-DFT) =  -1557.49806384
 Copying the excited state density for this state as the 1-particle RhoCI density.

 The electronic state is 1-A.
 Alpha  occ. eigenvalues --  -10.20537 -10.20273 -10.20187 -10.20082 -10.19925
 Alpha  occ. eigenvalues --  -10.19640 -10.19573 -10.19568 -10.19487 -10.19460
 Alpha  occ. eigenvalues --  -10.19371 -10.19271 -10.19179 -10.19092 -10.19053
 Alpha  occ. eigenvalues --  -10.19020 -10.19005 -10.18997 -10.18948 -10.18658
 Alpha  occ. eigenvalues --  -10.18599 -10.18532 -10.18516 -10.18411 -10.18213
 Alpha  occ. eigenvalues --  -10.18210 -10.17985 -10.17927 -10.17898 -10.17707
 Alpha  occ. eigenvalues --  -10.17537 -10.17523 -10.17036 -10.16887 -10.16777
 Alpha  occ. eigenvalues --  -10.16725 -10.16708 -10.16610 -10.16514 -10.15746
 Alpha  occ. eigenvalues --   -0.86545  -0.85521  -0.84201  -0.83180  -0.82687
 Alpha  occ. eigenvalues --   -0.81748  -0.80247  -0.79415  -0.79116  -0.78531
 Alpha  occ. eigenvalues --   -0.77530  -0.75492  -0.74369  -0.73181  -0.72061
 Alpha  occ. eigenvalues --   -0.69591  -0.69404  -0.68900  -0.68653  -0.68291
 Alpha  occ. eigenvalues --   -0.68015  -0.67768  -0.67079  -0.66341  -0.66058
 Alpha  occ. eigenvalues --   -0.64152  -0.62709  -0.59980  -0.59318  -0.57482
 Alpha  occ. eigenvalues --   -0.57272  -0.55899  -0.55084  -0.54109  -0.53540
 Alpha  occ. eigenvalues --   -0.52768  -0.51539  -0.51274  -0.50709  -0.49709
 Alpha  occ. eigenvalues --   -0.49093  -0.48242  -0.47941  -0.47695  -0.46983
 Alpha  occ. eigenvalues --   -0.46317  -0.46087  -0.45397  -0.44829  -0.44671
 Alpha  occ. eigenvalues --   -0.44388  -0.43860  -0.43268  -0.42970  -0.42325
 Alpha  occ. eigenvalues --   -0.42258  -0.41660  -0.41398  -0.41262  -0.40875
 Alpha  occ. eigenvalues --   -0.40638  -0.40315  -0.40202  -0.39883  -0.39691
 Alpha  occ. eigenvalues --   -0.39460  -0.39394  -0.39176  -0.38821  -0.38776
 Alpha  occ. eigenvalues --   -0.38470  -0.37867  -0.37730  -0.37365  -0.36642
 Alpha  occ. eigenvalues --   -0.36225  -0.36070  -0.35956  -0.35781  -0.35066
 Alpha  occ. eigenvalues --   -0.35003  -0.34620  -0.34420  -0.34189  -0.34179
 Alpha  occ. eigenvalues --   -0.33727  -0.33213  -0.33049  -0.32721  -0.32583
 Alpha  occ. eigenvalues --   -0.32341  -0.32297  -0.31914  -0.31402  -0.30875
 Alpha  occ. eigenvalues --   -0.30699  -0.30150  -0.30007  -0.29365  -0.29130
 Alpha  occ. eigenvalues --   -0.27595  -0.27279  -0.26187  -0.24886  -0.22722
 Alpha  occ. eigenvalues --   -0.21621  -0.18747  -0.15846
 Alpha virt. eigenvalues --   -0.08933  -0.05631  -0.01338   0.00686   0.03068
 Alpha virt. eigenvalues --    0.04786   0.06555   0.06798   0.07051   0.07406
 Alpha virt. eigenvalues --    0.07903   0.08464   0.08851   0.08948   0.09368

 Mulliken charges:
               1
     1  C   -0.030359
     2  C   -0.015972
     3  C   -0.168442
     4  C   -0.159429
     5  C   -0.178014
     6  C   -0.174790
     7  C    0.058258
     8  C    0.088096
     9  C   -0.214144
    10  C   -0.223931
    11  C    0.057663
    12  C    0.065579
    13  C   -0.245939
    14  C   -0.311964
    15  C   -0.272731
    16  C   -0.280551
    17  C   -0.116897
    18  C   -0.146204
    19  C   -0.339876
    20  C   -0.363100
    21  C   -0.051778
    22  C   -0.098127
    23  C    0.085257
    24  C    0.101791
    25  C   -0.353155
    26  C   -0.375192
    27  C   -0.110556
    28  C   -0.108247
    29  C   -0.089044
    30  C   -0.075844
    31  C   -0.085535
    32  C   -0.140538
    33  C    0.180718
    34  C    0.120901
    35  C   -0.373530
    36  C   -0.386299
    37  C   -0.157885
    38  C   -0.095488
    39  C   -0.099653
    40  C   -0.089564
    41  H    0.093459
    42  H    0.062594
    43  H    0.087673
    44  H    0.084937
    45  H    0.093775
    46  H    0.095287
    47  H    0.093658
    48  H    0.036364
    49  H    0.115304
    50  H    0.083895
    51  H    0.111917
    52  H    0.103201
    53  H    0.075432
    54  H    0.098693
    55  H    0.117118
    56  H    0.097971
    57  H    0.093778
    58  H    0.105244
    59  H    0.099391
    60  H    0.093443
    61  H    0.085363
    62  H    0.092614
    63  H    0.079173
    64  H    0.105416
    65  H    0.059465
    66  H    0.089189
    67  H    0.122639
    68  H    0.073224
    69  H    0.093640
    70  H    0.121519
    71  H    0.108187
    72  H    0.102705
    73  H    0.061628
    74  H    0.089588
    75  H    0.121890
    76  H    0.110285
    77  H    0.114850
    78  H    0.123380
    79  H    0.137203
    80  H    0.082990
    81  H    0.065827
    82  H    0.056806
    83  H    0.063098
    84  H    0.075799
    85  H    0.049983
    86  H    0.086347
    87  H    0.100307
    88  H    0.099598
    89  H    0.094647
    90  H    0.115726
    91  H    0.115775
    92  H    0.107048
    93  H    0.087522
    94  H    0.069477
    95  H    0.085030
    96  H    0.083443
 Sum of Mulliken charges =  -0.00000

 Dipole moment (field-independent basis, Debye):
    X=              0.1328    Y=             -0.1785    Z=              0.6565  Tot=              0.6931
 Quadrupole moment (field-independent basis, Debye-Ang):
   XX=           -201.7570   YY=           -234.3281   ZZ=           -257.3010
   XY=             -1.7515   XZ=             -2.9699   YZ=             -1.2741

 Normal termination of Gaussian 16 at Thu Aug  1 11:52:04 2019.
