 Gaussian 16, Revision A.03,
 Gaussian 16:  ES64L-G16RevA.03 25-Dec-2016

 ---------------------------------
 # td=(NStates=1) B3LYP/6-31G(d,p)
 ---------------------------------

 --
 TD
 --
 Symbolic Z-matrix:
 Charge =  0 Multiplicity = 1

                         Standard orientation:
 ---------------------------------------------------------------------
 Center     Atomic      Atomic             Coordinates (Angstroms)
 Number     Number       Type             X           Y           Z
 ---------------------------------------------------------------------
      1          6           0       12.075019    0.374895   -0.734928
      2          6           0      -12.008639   -0.155570    0.955691
      3          6           0       13.298141   -0.598170   -0.745795
      4          6           0      -13.069222    0.960309    1.304221
      5          6           0       12.966662   -2.018541   -0.496427
      6          6           0      -13.484817    1.780554    0.084886
      7          6           0       10.988206   -0.006644    0.289568
      8          6           0      -10.989859    0.359814   -0.114614
      9          6           0       12.155852   -2.208138    0.765954
     10          6           0      -12.207295    2.577061   -0.406716
     11          6           0       11.016067   -1.217567    1.000503
     12          6           0      -11.074645    1.553437   -0.667578
     13          6           0       11.462112    0.402317   -2.192934
     14          6           0       12.572717    1.784302   -0.368524
     15          6           0      -12.784142   -1.384095    0.237767
     16          6           0      -11.204932   -0.609623    2.217808
     17          6           0        9.943470    0.876452    0.440696
     18          6           0       -9.837855   -0.462214   -0.403012
     19          6           0       10.022790   -1.500141    2.078029
     20          6           0      -10.136029    2.178210   -1.812751
     21          6           0        8.573315    0.603059    0.321898
     22          6           0       -8.523384   -0.279746   -0.301031
     23          6           0        7.414905    1.480247    0.373798
     24          6           0       -7.392579   -1.175882   -0.471396
     25          6           0        7.657555    2.998077    0.441357
     26          6           0       -7.802517   -2.599480   -0.903473
     27          6           0        6.142592    0.940977    0.178724
     28          6           0       -6.084752   -0.904141   -0.185581
     29          6           0        4.813164    1.609820    0.270955
     30          6           0       -4.949168   -1.641536   -0.408932
     31          6           0        3.675629    0.796124    0.151563
     32          6           0       -3.733475   -1.127211   -0.240931
     33          6           0        2.386263    1.395161    0.247832
     34          6           0       -2.517251   -1.803682   -0.460176
     35          6           0        2.195509    2.804052    0.652453
     36          6           0       -2.466453   -3.252528   -0.617984
     37          6           0        1.188850    0.683287    0.136458
     38          6           0       -1.303849   -1.032630   -0.296026
     39          6           0        1.174100   -0.690343   -0.150326
     40          6           0        0.070281   -1.518679   -0.298861
     41          1           0       14.006646   -0.392110    0.179670
     42          1           0       13.810424   -0.365486   -1.630255
     43          1           0      -12.657856    1.590236    2.008406
     44          1           0      -13.864594    0.421637    1.869855
     45          1           0       13.971578   -2.623701   -0.515609
     46          1           0       12.349548   -2.595672   -1.417628
     47          1           0      -14.269194    2.534393    0.365390
     48          1           0      -13.850387    1.299498   -0.660397
     49          1           0       12.810788   -2.069600    1.746496
     50          1           0       11.745589   -3.270887    1.024988
     51          1           0      -11.973701    3.270265    0.523744
     52          1           0      -12.459718    3.222702   -1.399421
     53          1           0       11.398601   -0.524821   -2.493131
     54          1           0       12.235785    0.856121   -2.882503
     55          1           0       10.507215    1.024783   -2.474291
     56          1           0       12.729054    1.831012    0.740258
     57          1           0       11.796283    2.418132   -0.514069
     58          1           0       13.435054    1.955425   -0.806206
     59          1           0      -13.200271   -1.302515   -0.915847
     60          1           0      -13.730616   -1.654746    0.726694
     61          1           0      -12.092798   -2.267497    0.112167
     62          1           0      -10.706079    0.380812    2.809993
     63          1           0      -10.275123   -1.383413    1.943042
     64          1           0      -12.045090   -1.082070    2.972159
     65          1           0        9.997825    1.897898    0.551188
     66          1           0       -9.999166   -1.447099   -0.591699
     67          1           0        9.424751   -0.569497    2.173475
     68          1           0       10.332702   -1.811624    3.136337
     69          1           0        9.446319   -2.175426    1.743435
     70          1           0       -9.199744    1.268208   -2.068633
     71          1           0       -9.710627    3.112770   -1.310912
     72          1           0      -10.593338    2.471731   -2.761098
     73          1           0        8.210379   -0.416945    0.283686
     74          1           0       -8.136310    0.695456   -0.024203
     75          1           0        7.610561    3.280704    1.569176
     76          1           0        6.620351    3.807066    0.002261
     77          1           0        8.864602    3.100560   -0.202284
     78          1           0       -8.150956   -2.675873   -2.050931
     79          1           0       -8.390717   -3.004434   -0.047359
     80          1           0       -6.788367   -3.185974   -0.650446
     81          1           0        6.319934   -0.166642    0.129060
     82          1           0       -5.941674    0.017548   -0.001161
     83          1           0        4.604436    2.602012    0.547789
     84          1           0       -4.918477   -2.888517   -0.416498
     85          1           0        3.809099   -0.369025    0.012679
     86          1           0       -3.659152   -0.113863    0.000756
     87          1           0        2.537738    3.022119    1.619741
     88          1           0        1.096905    2.930740    0.428488
     89          1           0        2.771480    3.333993    0.046283
     90          1           0       -3.410429   -3.476668   -1.380522
     91          1           0       -3.020488   -3.635500    0.222179
     92          1           0       -1.692889   -3.900969   -0.964541
     93          1           0        0.142705    1.030500   -0.108005
     94          1           0       -1.470875   -0.026079   -0.037743
     95          1           0        2.060554   -1.225635   -0.122464
     96          1           0        0.227712   -2.583585   -0.274543
 ---------------------------------------------------------------------

 SCF Done:  E(RB3LYP) =  -1557.46077954     A.U. after   16 cycles

 Excitation energies and oscillator strengths:

 Excited State   1:      Singlet-A      2.0078 eV  617.50 nm  f=3.0345  <S**2>=0.000
     148 ->149         0.71027
     148 <-149        -0.11986
 This state for optimization and/or second-order correction.
 Total Energy, E(TD-HF/TD-DFT) =  -1557.38699293
 Copying the excited state density for this state as the 1-particle RhoCI density.

 The electronic state is 1-A.
 Alpha  occ. eigenvalues --  -10.23559 -10.21643 -10.21573 -10.20460 -10.20359
 Alpha  occ. eigenvalues --  -10.20335 -10.20291 -10.20277 -10.20189 -10.20168
 Alpha  occ. eigenvalues --  -10.20120 -10.20084 -10.19963 -10.19735 -10.19660
 Alpha  occ. eigenvalues --  -10.19500 -10.19361 -10.19295 -10.19169 -10.19029
 Alpha  occ. eigenvalues --  -10.18975 -10.18932 -10.18928 -10.18914 -10.18900
 Alpha  occ. eigenvalues --  -10.18541 -10.18250 -10.18202 -10.17924 -10.17870
 Alpha  occ. eigenvalues --  -10.17783 -10.17764 -10.17753 -10.17357 -10.17057
 Alpha  occ. eigenvalues --  -10.16990 -10.16906 -10.16866 -10.16256 -10.15327
 Alpha  occ. eigenvalues --   -0.85239  -0.84627  -0.84169  -0.83810  -0.81820
 Alpha  occ. eigenvalues --   -0.81509  -0.79356  -0.78662  -0.78130  -0.77616
 Alpha  occ. eigenvalues --   -0.76229  -0.75336  -0.74713  -0.72358  -0.71728
 Alpha  occ. eigenvalues --   -0.70780  -0.69162  -0.68411  -0.68262  -0.67092
 Alpha  occ. eigenvalues --   -0.66755  -0.66451  -0.66282  -0.65987  -0.65059
 Alpha  occ. eigenvalues --   -0.62948  -0.62134  -0.59988  -0.59367  -0.57563
 Alpha  occ. eigenvalues --   -0.56754  -0.56095  -0.55219  -0.54136  -0.53476
 Alpha  occ. eigenvalues --   -0.52272  -0.51774  -0.50410  -0.49939  -0.49709
 Alpha  occ. eigenvalues --   -0.48403  -0.48002  -0.47316  -0.46773  -0.46504
 Alpha  occ. eigenvalues --   -0.46138  -0.45029  -0.44517  -0.43852  -0.43488
 Alpha  occ. eigenvalues --   -0.43192  -0.42852  -0.42625  -0.42509  -0.42381
 Alpha  occ. eigenvalues --   -0.42003  -0.41748  -0.41544  -0.41338  -0.41131
 Alpha  occ. eigenvalues --   -0.40675  -0.40450  -0.40034  -0.39600  -0.39475
 Alpha  occ. eigenvalues --   -0.39366  -0.38832  -0.38207  -0.38070  -0.37842
 Alpha  occ. eigenvalues --   -0.37792  -0.37517  -0.36960  -0.36555  -0.36363
 Alpha  occ. eigenvalues --   -0.36304  -0.36130  -0.35786  -0.35650  -0.35230
 Alpha  occ. eigenvalues --   -0.34668  -0.34459  -0.34357  -0.33987  -0.33849
 Alpha  occ. eigenvalues --   -0.33677  -0.33333  -0.33134  -0.32824  -0.32084
 Alpha  occ. eigenvalues --   -0.31941  -0.31734  -0.31405  -0.31324  -0.30719
 Alpha  occ. eigenvalues --   -0.30353  -0.30275  -0.30261  -0.29229  -0.28608
 Alpha  occ. eigenvalues --   -0.28082  -0.27285  -0.25957  -0.24139  -0.22827
 Alpha  occ. eigenvalues --   -0.21061  -0.18776  -0.16051
 Alpha virt. eigenvalues --   -0.08700  -0.05456  -0.01924   0.00406   0.02656
 Alpha virt. eigenvalues --    0.03563   0.04005   0.05516   0.06147   0.06601
 Alpha virt. eigenvalues --    0.06971   0.07765   0.07796   0.08441   0.08676

 Mulliken charges:
               1
     1  C   -0.011967
     2  C    0.006855
     3  C   -0.168340
     4  C   -0.174414
     5  C   -0.168848
     6  C   -0.175429
     7  C    0.103832
     8  C    0.112685
     9  C   -0.212928
    10  C   -0.224286
    11  C    0.058652
    12  C    0.053021
    13  C   -0.302229
    14  C   -0.291515
    15  C   -0.309466
    16  C   -0.276459
    17  C   -0.153787
    18  C   -0.146346
    19  C   -0.365441
    20  C   -0.339444
    21  C   -0.105344
    22  C   -0.066334
    23  C    0.129232
    24  C    0.087121
    25  C   -0.326653
    26  C   -0.370946
    27  C   -0.129531
    28  C   -0.091536
    29  C   -0.101254
    30  C   -0.064965
    31  C   -0.067861
    32  C   -0.105898
    33  C    0.073118
    34  C    0.145221
    35  C   -0.364369
    36  C   -0.403808
    37  C   -0.123002
    38  C   -0.128653
    39  C   -0.062961
    40  C   -0.111951
    41  H    0.081618
    42  H    0.100519
    43  H    0.101011
    44  H    0.083684
    45  H    0.084917
    46  H    0.063560
    47  H    0.078469
    48  H    0.114543
    49  H    0.090334
    50  H    0.090918
    51  H    0.092767
    52  H    0.078612
    53  H    0.118346
    54  H    0.081007
    55  H    0.098026
    56  H    0.090704
    57  H    0.109112
    58  H    0.104000
    59  H    0.081813
    60  H    0.103681
    61  H    0.103333
    62  H    0.082926
    63  H    0.096587
    64  H    0.079867
    65  H    0.072539
    66  H    0.073726
    67  H    0.119701
    68  H    0.093339
    69  H    0.131801
    70  H    0.069270
    71  H    0.107660
    72  H    0.115565
    73  H    0.068123
    74  H    0.058835
    75  H    0.124623
    76  H    0.059180
    77  H    0.075314
    78  H    0.114418
    79  H    0.120931
    80  H    0.080751
    81  H    0.073986
    82  H    0.057384
    83  H    0.090046
    84  H    0.060978
    85  H    0.089469
    86  H    0.078081
    87  H    0.131040
    88  H    0.107421
    89  H    0.125085
    90  H    0.089633
    91  H    0.140065
    92  H    0.127195
    93  H    0.088634
    94  H    0.072581
    95  H    0.065279
    96  H    0.083216
 Sum of Mulliken charges =  -0.00000

 Dipole moment (field-independent basis, Debye):
    X=              0.4931    Y=             -0.2916    Z=              0.8529  Tot=              1.0274
 Quadrupole moment (field-independent basis, Debye-Ang):
   XX=           -217.1079   YY=           -239.1312   ZZ=           -254.9894
   XY=             -6.2965   XZ=             -1.2135   YZ=              1.7825

 Normal termination of Gaussian 16 at Mon Jul 29 17:05:38 2019.
