 Gaussian 16, Revision A.03,
 Gaussian 16:  ES64L-G16RevA.03 25-Dec-2016

 ---------------------------------
 # td=(NStates=1) B3LYP/6-31G(d,p)
 ---------------------------------

 --
 TD
 --
 Symbolic Z-matrix:
 Charge =  0 Multiplicity = 1

                         Standard orientation:
 ---------------------------------------------------------------------
 Center     Atomic      Atomic             Coordinates (Angstroms)
 Number     Number       Type             X           Y           Z
 ---------------------------------------------------------------------
      1          6           0       12.274507    0.425293   -0.583443
      2          6           0      -12.132698   -0.123612    0.984136
      3          6           0       13.407630   -0.508819   -0.502508
      4          6           0      -13.026627    0.986399    1.515217
      5          6           0       13.030457   -1.981685   -0.521559
      6          6           0      -13.464435    1.905830    0.389682
      7          6           0       11.119815   -0.066133    0.352079
      8          6           0      -11.034292    0.349040   -0.126815
      9          6           0       12.179409   -2.276874    0.799713
     10          6           0      -12.276842    2.473593   -0.323451
     11          6           0       11.144495   -1.255451    0.955484
     12          6           0      -11.170244    1.565156   -0.703664
     13          6           0       11.597583    0.439058   -2.086644
     14          6           0       12.570114    1.866151   -0.316850
     15          6           0      -13.110927   -1.220686    0.338585
     16          6           0      -11.454500   -0.816711    2.220561
     17          6           0        9.926995    0.914835    0.453766
     18          6           0       -9.898156   -0.547815   -0.251347
     19          6           0       10.252188   -1.766580    2.103977
     20          6           0      -10.226155    2.042373   -1.723846
     21          6           0        8.669061    0.556289    0.304371
     22          6           0       -8.666514   -0.262708   -0.354429
     23          6           0        7.474463    1.370715    0.390736
     24          6           0       -7.516121   -1.231489   -0.497962
     25          6           0        7.635897    2.890936    0.618059
     26          6           0       -7.871522   -2.667204   -0.887503
     27          6           0        6.246926    0.897150    0.348980
     28          6           0       -6.130109   -0.795258   -0.398349
     29          6           0        4.925181    1.481919    0.236672
     30          6           0       -4.969200   -1.502685   -0.589080
     31          6           0        3.781091    0.795315    0.085570
     32          6           0       -3.796585   -0.995751   -0.408574
     33          6           0        2.446129    1.384137    0.101910
     34          6           0       -2.507700   -1.738050   -0.523327
     35          6           0        2.424453    2.956990    0.180431
     36          6           0       -2.568180   -3.184842   -0.747926
     37          6           0        1.308743    0.647280    0.121633
     38          6           0       -1.419119   -0.952932   -0.312032
     39          6           0        1.087213   -0.774963   -0.220677
     40          6           0       -0.035193   -1.340150   -0.391334
     41          1           0       14.006161   -0.307539    0.475010
     42          1           0       13.998359   -0.064322   -1.398710
     43          1           0      -12.447427    1.439789    2.150913
     44          1           0      -13.879465    0.414920    1.913038
     45          1           0       13.747641   -2.779515   -0.628472
     46          1           0       12.296974   -2.247051   -1.529130
     47          1           0      -14.162058    2.758186    0.554983
     48          1           0      -13.851775    1.305290   -0.265315
     49          1           0       12.935358   -2.152402    1.511585
     50          1           0       11.767520   -3.332049    0.897735
     51          1           0      -11.793250    3.426205    0.114087
     52          1           0      -12.730693    3.141581   -1.305613
     53          1           0       11.641304   -0.670855   -2.437488
     54          1           0       12.211261    1.046965   -2.609635
     55          1           0       10.519601    0.775463   -2.086504
     56          1           0       12.682068    1.843146    0.571467
     57          1           0       11.849202    2.558711   -0.394252
     58          1           0       13.505571    2.008713   -0.942050
     59          1           0      -13.511286   -0.816095   -0.548455
     60          1           0      -13.907895   -1.677939    0.798669
     61          1           0      -12.638101   -2.233961    0.121373
     62          1           0      -10.630515   -0.355278    2.691858
     63          1           0      -10.936607   -1.693395    1.863218
     64          1           0      -12.244975   -1.018896    2.840418
     65          1           0       10.289699    1.916091    0.694751
     66          1           0      -10.006177   -1.811136   -0.388429
     67          1           0        9.417494   -0.974716    2.233685
     68          1           0       11.000193   -1.692119    3.039297
     69          1           0        9.983137   -2.710292    1.936320
     70          1           0       -9.538890    1.148997   -1.993694
     71          1           0       -9.493071    2.775284   -1.143550
     72          1           0      -10.658297    2.420469   -2.464389
     73          1           0        8.468658   -0.486903   -0.215771
     74          1           0       -8.338390    0.783602    0.009947
     75          1           0        7.801179    3.112053    1.776317
     76          1           0        6.659941    3.416808    0.224332
     77          1           0        8.585201    3.228291    0.188964
     78          1           0       -8.474956   -2.616760   -1.815057
     79          1           0       -8.585639   -3.049478   -0.072890
     80          1           0       -6.928384   -3.222276   -0.973740
     81          1           0        6.056279   -0.149697   -0.036806
     82          1           0       -6.055984    0.173683    0.010657
     83          1           0        4.842577    2.538511    0.443942
     84          1           0       -5.151365   -2.498624   -0.655893
     85          1           0        3.785240   -0.367255   -0.123001
     86          1           0       -3.675808    0.010641   -0.179752
     87          1           0        3.135784    3.341761    0.903501
     88          1           0        1.323364    3.330212    0.416762
     89          1           0        2.817923    3.475314   -0.735803
     90          1           0       -3.158194   -3.305435   -1.625246
     91          1           0       -2.928291   -3.967928    0.115817
     92          1           0       -1.531384   -3.493718   -1.004093
     93          1           0        0.282251    1.104498   -0.084242
     94          1           0       -1.728796    0.177453   -0.047823
     95          1           0        1.970018   -1.295120   -0.064877
     96          1           0        0.044312   -2.310260   -0.909425
 ---------------------------------------------------------------------

 SCF Done:  E(RB3LYP) =  -1557.50756695     A.U. after   14 cycles

 Excitation energies and oscillator strengths:

 Excited State   1:      Singlet-A      2.5446 eV  487.25 nm  f=2.7592  <S**2>=0.000
     148 ->149         0.70339
 This state for optimization and/or second-order correction.
 Total Energy, E(TD-HF/TD-DFT) =  -1557.41405487
 Copying the excited state density for this state as the 1-particle RhoCI density.

 The electronic state is 1-A.
 Alpha  occ. eigenvalues --  -10.20942 -10.20653 -10.20390 -10.20232 -10.19979
 Alpha  occ. eigenvalues --  -10.19898 -10.19853 -10.19825 -10.19816 -10.19648
 Alpha  occ. eigenvalues --  -10.19512 -10.19475 -10.19470 -10.19383 -10.19228
 Alpha  occ. eigenvalues --  -10.19178 -10.19143 -10.18979 -10.18930 -10.18926
 Alpha  occ. eigenvalues --  -10.18918 -10.18789 -10.18522 -10.18355 -10.18327
 Alpha  occ. eigenvalues --  -10.18274 -10.18077 -10.18061 -10.17944 -10.17793
 Alpha  occ. eigenvalues --  -10.17773 -10.17700 -10.16887 -10.16879 -10.16662
 Alpha  occ. eigenvalues --  -10.16648 -10.16217 -10.16145 -10.15552 -10.14871
 Alpha  occ. eigenvalues --   -0.85424  -0.85202  -0.84434  -0.83314  -0.82364
 Alpha  occ. eigenvalues --   -0.81455  -0.80231  -0.79619  -0.78989  -0.78173
 Alpha  occ. eigenvalues --   -0.76936  -0.75958  -0.74452  -0.73065  -0.72416
 Alpha  occ. eigenvalues --   -0.70110  -0.69337  -0.68576  -0.68455  -0.68310
 Alpha  occ. eigenvalues --   -0.67440  -0.67339  -0.67201  -0.66841  -0.66677
 Alpha  occ. eigenvalues --   -0.62864  -0.62076  -0.60653  -0.59665  -0.57406
 Alpha  occ. eigenvalues --   -0.56565  -0.55906  -0.55054  -0.54533  -0.52945
 Alpha  occ. eigenvalues --   -0.52185  -0.51968  -0.49952  -0.49725  -0.49406
 Alpha  occ. eigenvalues --   -0.48661  -0.48597  -0.47758  -0.47340  -0.46187
 Alpha  occ. eigenvalues --   -0.45974  -0.45531  -0.44703  -0.44539  -0.44058
 Alpha  occ. eigenvalues --   -0.44001  -0.43199  -0.43068  -0.42865  -0.42440
 Alpha  occ. eigenvalues --   -0.42321  -0.42004  -0.41623  -0.41546  -0.41066
 Alpha  occ. eigenvalues --   -0.40941  -0.40389  -0.40098  -0.39975  -0.39870
 Alpha  occ. eigenvalues --   -0.39767  -0.39537  -0.39421  -0.38769  -0.38562
 Alpha  occ. eigenvalues --   -0.38001  -0.37857  -0.37518  -0.37432  -0.37196
 Alpha  occ. eigenvalues --   -0.36967  -0.36173  -0.35925  -0.35752  -0.35453
 Alpha  occ. eigenvalues --   -0.35215  -0.34835  -0.34695  -0.34287  -0.33777
 Alpha  occ. eigenvalues --   -0.33704  -0.33345  -0.32949  -0.32825  -0.32518
 Alpha  occ. eigenvalues --   -0.32313  -0.32057  -0.31699  -0.31336  -0.30702
 Alpha  occ. eigenvalues --   -0.29840  -0.29678  -0.29569  -0.29205  -0.28533
 Alpha  occ. eigenvalues --   -0.27871  -0.27201  -0.26451  -0.24192  -0.22776
 Alpha  occ. eigenvalues --   -0.21617  -0.19431  -0.17455
 Alpha virt. eigenvalues --   -0.07402  -0.04966  -0.01522   0.00903   0.02383
 Alpha virt. eigenvalues --    0.04200   0.06298   0.06714   0.07141   0.07432
 Alpha virt. eigenvalues --    0.07591   0.07699   0.08214   0.08409   0.09035

 Mulliken charges:
               1
     1  C   -0.010524
     2  C   -0.032163
     3  C   -0.165472
     4  C   -0.152384
     5  C   -0.178680
     6  C   -0.173577
     7  C    0.046570
     8  C    0.062598
     9  C   -0.226764
    10  C   -0.226885
    11  C    0.053134
    12  C    0.081093
    13  C   -0.298516
    14  C   -0.274351
    15  C   -0.323880
    16  C   -0.303896
    17  C   -0.135941
    18  C   -0.117359
    19  C   -0.335557
    20  C   -0.337843
    21  C   -0.083575
    22  C   -0.078207
    23  C    0.121430
    24  C    0.060610
    25  C   -0.361513
    26  C   -0.376723
    27  C   -0.122846
    28  C   -0.125150
    29  C   -0.078622
    30  C   -0.043998
    31  C   -0.100020
    32  C   -0.095388
    33  C    0.123878
    34  C    0.130997
    35  C   -0.373429
    36  C   -0.372212
    37  C   -0.150847
    38  C   -0.116311
    39  C   -0.079283
    40  C   -0.095246
    41  H    0.083106
    42  H    0.076656
    43  H    0.101601
    44  H    0.090661
    45  H    0.096933
    46  H    0.056985
    47  H    0.086136
    48  H    0.118491
    49  H    0.119965
    50  H    0.091554
    51  H    0.097942
    52  H    0.048063
    53  H    0.083275
    54  H    0.100314
    55  H    0.106563
    56  H    0.106724
    57  H    0.108652
    58  H    0.085371
    59  H    0.107764
    60  H    0.106313
    61  H    0.080437
    62  H    0.103278
    63  H    0.097936
    64  H    0.103118
    65  H    0.080530
    66  H    0.053176
    67  H    0.106457
    68  H    0.089289
    69  H    0.118586
    70  H    0.113924
    71  H    0.093132
    72  H    0.113624
    73  H    0.083592
    74  H    0.074070
    75  H    0.104611
    76  H    0.103720
    77  H    0.113485
    78  H    0.131146
    79  H    0.117814
    80  H    0.108432
    81  H    0.061229
    82  H    0.067465
    83  H    0.068024
    84  H    0.072301
    85  H    0.074150
    86  H    0.070437
    87  H    0.124843
    88  H    0.097012
    89  H    0.118089
    90  H    0.130515
    91  H    0.110356
    92  H    0.107565
    93  H    0.071063
    94  H    0.070424
    95  H    0.082039
    96  H    0.077910
 Sum of Mulliken charges =  -0.00000

 Dipole moment (field-independent basis, Debye):
    X=              0.0603    Y=             -0.1877    Z=              0.1791  Tot=              0.2664
 Quadrupole moment (field-independent basis, Debye-Ang):
   XX=           -217.7346   YY=           -233.8035   ZZ=           -256.9741
   XY=              0.7560   XZ=              3.7146   YZ=              1.6477

 Normal termination of Gaussian 16 at Thu Aug  1 22:06:55 2019.
