 Gaussian 16, Revision A.03,
 Gaussian 16:  ES64L-G16RevA.03 25-Dec-2016

 ---------------------------------
 # td=(NStates=1) B3LYP/6-31G(d,p)
 ---------------------------------

 --
 TD
 --
 Symbolic Z-matrix:
 Charge =  0 Multiplicity = 1

                         Standard orientation:
 ---------------------------------------------------------------------
 Center     Atomic      Atomic             Coordinates (Angstroms)
 Number     Number       Type             X           Y           Z
 ---------------------------------------------------------------------
      1          6           0      -12.133371   -0.536164   -0.681144
      2          6           0       12.030160    0.003724    0.970353
      3          6           0      -13.450931    0.315027   -0.432995
      4          6           0       12.998426   -1.190294    1.445561
      5          6           0      -13.163935    1.721815   -0.530644
      6          6           0       13.512238   -1.914226    0.192441
      7          6           0      -11.114798    0.013598    0.261305
      8          6           0       11.073189   -0.326260   -0.008340
      9          6           0      -12.373727    2.081660    0.725259
     10          6           0       12.287105   -2.621534   -0.467480
     11          6           0      -11.171793    1.185786    0.932774
     12          6           0       11.126684   -1.504205   -0.763649
     13          6           0      -11.658967   -0.617556   -2.163019
     14          6           0      -12.588451   -2.003867   -0.231061
     15          6           0       12.948850    1.161439    0.478467
     16          6           0       11.316310    0.506213    2.305623
     17          6           0       -9.949322   -0.898642    0.276112
     18          6           0       10.002659    0.722663   -0.248728
     19          6           0      -10.182273    1.756467    1.899124
     20          6           0       10.244680   -1.987437   -1.955586
     21          6           0       -8.609358   -0.415026    0.263773
     22          6           0        8.650770    0.289432   -0.267025
     23          6           0       -7.394873   -1.290193    0.360814
     24          6           0        7.533827    1.197158   -0.578322
     25          6           0       -7.678139   -2.678896    0.738624
     26          6           0        7.901262    2.690811   -0.828376
     27          6           0       -6.154362   -0.672290    0.171310
     28          6           0        6.193045    0.775547   -0.402064
     29          6           0       -4.877032   -1.368169    0.287816
     30          6           0        5.017921    1.551190   -0.447385
     31          6           0       -3.745166   -0.627289    0.131430
     32          6           0        3.778358    1.043084   -0.427784
     33          6           0       -2.428469   -1.261879    0.330359
     34          6           0        2.577937    1.766637   -0.528463
     35          6           0       -2.408259   -2.812330    0.529460
     36          6           0        2.659812    3.187027   -0.723057
     37          6           0       -1.250899   -0.561226    0.071977
     38          6           0        1.415113    1.077496   -0.344890
     39          6           0       -1.064934    0.880615   -0.054272
     40          6           0        0.007609    1.549205   -0.294927
     41          1           0      -13.877831    0.125128    0.536044
     42          1           0      -14.147470   -0.131051   -1.278899
     43          1           0       12.480208   -2.005255    1.986612
     44          1           0       13.747650   -0.536467    2.094717
     45          1           0      -13.909198    2.296008   -0.431635
     46          1           0      -12.694337    2.085310   -1.423381
     47          1           0       14.328302   -2.709325    0.529346
     48          1           0       14.045195   -1.431130   -0.616246
     49          1           0      -12.855490    2.239303    1.678849
     50          1           0      -11.855926    3.269978    0.603390
     51          1           0       11.626779   -3.424218   -0.086889
     52          1           0       12.670814   -3.080355   -1.338596
     53          1           0      -11.524161    0.417124   -2.609345
     54          1           0      -12.284669   -1.147539   -2.782242
     55          1           0      -10.848095   -1.346109   -2.199639
     56          1           0      -12.755972   -2.003943    0.679263
     57          1           0      -11.697206   -2.789745   -0.240034
     58          1           0      -13.377944   -2.230690   -1.008754
     59          1           0       13.140233    0.892236   -0.625753
     60          1           0       13.733748    1.572464    1.207581
     61          1           0       12.397332    2.143745    0.173465
     62          1           0       10.664726   -0.156753    2.711399
     63          1           0       10.644052    1.539483    2.408140
     64          1           0       12.063672    0.816927    3.138805
     65          1           0      -10.208303   -1.890669    0.346550
     66          1           0       10.244208    1.565824   -0.556571
     67          1           0       -9.298840    0.951746    2.101466
     68          1           0      -10.437528    2.250127    2.871890
     69          1           0       -9.752077    2.687516    1.477641
     70          1           0        9.542880   -1.093891   -2.045204
     71          1           0        9.871498   -3.125725   -1.685236
     72          1           0       10.916692   -2.147938   -3.073494
     73          1           0       -8.495933    0.687276    0.201318
     74          1           0        8.538019   -0.692156   -0.093057
     75          1           0       -8.483236   -2.649674    1.473908
     76          1           0       -6.786946   -3.237635    0.945319
     77          1           0       -8.211959   -2.997374   -0.060524
     78          1           0        8.522420    2.603601   -1.765525
     79          1           0        8.434509    3.332042    0.041650
     80          1           0        7.077663    3.479532   -1.093241
     81          1           0       -6.280171    0.357834    0.058763
     82          1           0        6.010206   -0.342282   -0.143103
     83          1           0       -4.725037   -2.406212    0.602299
     84          1           0        5.037604    2.637771   -0.610564
     85          1           0       -3.788819    0.429342   -0.177779
     86          1           0        3.891540   -0.065173   -0.316231
     87          1           0       -2.859398   -3.158040    1.539171
     88          1           0       -1.417984   -3.041407    0.529162
     89          1           0       -2.926590   -3.084924   -0.328800
     90          1           0        3.306108    3.574783   -1.611757
     91          1           0        3.020539    3.751152    0.146048
     92          1           0        1.619639    3.665625   -1.026706
     93          1           0       -0.380283   -1.181552   -0.109047
     94          1           0        1.388993   -0.078403   -0.286261
     95          1           0       -2.092367    1.204049    0.057487
     96          1           0       -0.252831    2.475045   -0.475987
 ---------------------------------------------------------------------

 SCF Done:  E(RB3LYP) =  -1557.50686031     A.U. after   15 cycles

 Excitation energies and oscillator strengths:

 Excited State   1:      Singlet-A      2.3052 eV  537.83 nm  f=2.8708  <S**2>=0.000
     148 ->149         0.70486
 This state for optimization and/or second-order correction.
 Total Energy, E(TD-HF/TD-DFT) =  -1557.42214403
 Copying the excited state density for this state as the 1-particle RhoCI density.

 The electronic state is 1-A.
 Alpha  occ. eigenvalues --  -10.21348 -10.20843 -10.20367 -10.20352 -10.20138
 Alpha  occ. eigenvalues --  -10.20064 -10.19922 -10.19849 -10.19776 -10.19735
 Alpha  occ. eigenvalues --  -10.19661 -10.19507 -10.19474 -10.19272 -10.19234
 Alpha  occ. eigenvalues --  -10.19177 -10.19074 -10.18976 -10.18940 -10.18876
 Alpha  occ. eigenvalues --  -10.18719 -10.18681 -10.18511 -10.18345 -10.18343
 Alpha  occ. eigenvalues --  -10.18323 -10.18135 -10.18085 -10.18068 -10.18063
 Alpha  occ. eigenvalues --  -10.17896 -10.17880 -10.17822 -10.17672 -10.17581
 Alpha  occ. eigenvalues --  -10.17319 -10.17257 -10.17100 -10.16918 -10.15825
 Alpha  occ. eigenvalues --   -0.85622  -0.84555  -0.84151  -0.83015  -0.81784
 Alpha  occ. eigenvalues --   -0.80697  -0.79464  -0.78525  -0.77718  -0.77043
 Alpha  occ. eigenvalues --   -0.76408  -0.75232  -0.74359  -0.72017  -0.70781
 Alpha  occ. eigenvalues --   -0.70121  -0.69341  -0.69036  -0.67968  -0.67442
 Alpha  occ. eigenvalues --   -0.67007  -0.66740  -0.66338  -0.66259  -0.65512
 Alpha  occ. eigenvalues --   -0.62632  -0.62038  -0.59694  -0.58756  -0.57851
 Alpha  occ. eigenvalues --   -0.57540  -0.56064  -0.55757  -0.54829  -0.53292
 Alpha  occ. eigenvalues --   -0.52823  -0.52642  -0.50703  -0.50058  -0.49361
 Alpha  occ. eigenvalues --   -0.48524  -0.48189  -0.47455  -0.46715  -0.46258
 Alpha  occ. eigenvalues --   -0.45518  -0.44673  -0.44239  -0.43842  -0.43398
 Alpha  occ. eigenvalues --   -0.43026  -0.42900  -0.42710  -0.42427  -0.42125
 Alpha  occ. eigenvalues --   -0.42051  -0.41830  -0.41602  -0.41549  -0.41047
 Alpha  occ. eigenvalues --   -0.40623  -0.40566  -0.40527  -0.40209  -0.39970
 Alpha  occ. eigenvalues --   -0.39566  -0.38688  -0.38534  -0.38247  -0.38167
 Alpha  occ. eigenvalues --   -0.37825  -0.37699  -0.37591  -0.36809  -0.35905
 Alpha  occ. eigenvalues --   -0.35841  -0.35643  -0.35423  -0.35338  -0.35069
 Alpha  occ. eigenvalues --   -0.34841  -0.34692  -0.34370  -0.34019  -0.33676
 Alpha  occ. eigenvalues --   -0.33567  -0.33358  -0.33257  -0.32987  -0.32613
 Alpha  occ. eigenvalues --   -0.32470  -0.32230  -0.31860  -0.31359  -0.30980
 Alpha  occ. eigenvalues --   -0.30626  -0.30413  -0.29360  -0.28451  -0.27786
 Alpha  occ. eigenvalues --   -0.26575  -0.26366  -0.25593  -0.23899  -0.22342
 Alpha  occ. eigenvalues --   -0.21172  -0.18477  -0.16607
 Alpha virt. eigenvalues --   -0.07633  -0.05154  -0.01668   0.00600   0.01927
 Alpha virt. eigenvalues --    0.03619   0.05537   0.06677   0.07099   0.07208
 Alpha virt. eigenvalues --    0.08298   0.08387   0.08581   0.08691   0.09184

 Mulliken charges:
               1
     1  C   -0.037763
     2  C   -0.004965
     3  C   -0.171052
     4  C   -0.146196
     5  C   -0.152530
     6  C   -0.189889
     7  C    0.074414
     8  C    0.062092
     9  C   -0.241538
    10  C   -0.220100
    11  C    0.109066
    12  C    0.023164
    13  C   -0.294356
    14  C   -0.283240
    15  C   -0.305785
    16  C   -0.297487
    17  C   -0.121324
    18  C   -0.084945
    19  C   -0.382873
    20  C   -0.322976
    21  C   -0.133264
    22  C   -0.092425
    23  C    0.101533
    24  C    0.084700
    25  C   -0.371687
    26  C   -0.362135
    27  C   -0.123362
    28  C   -0.134897
    29  C   -0.095918
    30  C   -0.054589
    31  C   -0.090146
    32  C   -0.098514
    33  C    0.048049
    34  C    0.166427
    35  C   -0.363722
    36  C   -0.401538
    37  C   -0.124541
    38  C   -0.131937
    39  C   -0.069125
    40  C   -0.066055
    41  H    0.099939
    42  H    0.057767
    43  H    0.104262
    44  H    0.075480
    45  H    0.099104
    46  H    0.102598
    47  H    0.065045
    48  H    0.113847
    49  H    0.113668
    50  H    0.035715
    51  H    0.103851
    52  H    0.102430
    53  H    0.098663
    54  H    0.104540
    55  H    0.109263
    56  H    0.116305
    57  H    0.066300
    58  H    0.100103
    59  H    0.099599
    60  H    0.104664
    61  H    0.087437
    62  H    0.116125
    63  H    0.068679
    64  H    0.075893
    65  H    0.069608
    66  H    0.074448
    67  H    0.102314
    68  H    0.104890
    69  H    0.111129
    70  H    0.120828
    71  H    0.092919
    72  H    0.069075
    73  H    0.092889
    74  H    0.085436
    75  H    0.125579
    76  H    0.107129
    77  H    0.139502
    78  H    0.118506
    79  H    0.106587
    80  H    0.098174
    81  H    0.079387
    82  H    0.071713
    83  H    0.093830
    84  H    0.068389
    85  H    0.088905
    86  H    0.068317
    87  H    0.112309
    88  H    0.115674
    89  H    0.139543
    90  H    0.113106
    91  H    0.132950
    92  H    0.098654
    93  H    0.064404
    94  H    0.078559
    95  H    0.071634
    96  H    0.063761
 Sum of Mulliken charges =  -0.00000

 Dipole moment (field-independent basis, Debye):
    X=             -1.6277    Y=              0.0179    Z=             -0.1822  Tot=              1.6379
 Quadrupole moment (field-independent basis, Debye-Ang):
   XX=           -226.0626   YY=           -232.7379   ZZ=           -254.5144
   XY=              1.3727   XZ=             -3.5006   YZ=             -1.4287

 Normal termination of Gaussian 16 at Sat Jul 27 08:40:37 2019.
