 Gaussian 16, Revision A.03,
 Gaussian 16:  ES64L-G16RevA.03 25-Dec-2016

 ---------------------------------
 # td=(NStates=1) B3LYP/6-31G(d,p)
 ---------------------------------

 --
 TD
 --
 Symbolic Z-matrix:
 Charge =  0 Multiplicity = 1

                         Standard orientation:
 ---------------------------------------------------------------------
 Center     Atomic      Atomic             Coordinates (Angstroms)
 Number     Number       Type             X           Y           Z
 ---------------------------------------------------------------------
      1          6           0      -12.168936   -0.705297   -0.598752
      2          6           0       12.125286   -0.066157    0.886075
      3          6           0      -13.429494    0.183898   -0.534498
      4          6           0       12.915596   -1.319313    1.209551
      5          6           0      -13.158380    1.669987   -0.601214
      6          6           0       13.450606   -2.075518   -0.051754
      7          6           0      -11.064272    0.066895    0.094194
      8          6           0       10.913804   -0.442871   -0.071251
      9          6           0      -12.343221    2.142363    0.522507
     10          6           0       12.201051   -2.570912   -0.788056
     11          6           0      -11.110194    1.270073    0.700057
     12          6           0       11.041703   -1.587221   -0.840528
     13          6           0      -11.817779   -0.776819   -2.085410
     14          6           0      -12.453754   -2.102872   -0.161703
     15          6           0       13.051279    1.058571    0.325692
     16          6           0       11.583810    0.514783    2.140868
     17          6           0       -9.881486   -0.865424    0.303275
     18          6           0        9.883963    0.485958   -0.143799
     19          6           0      -10.110704    1.825920    1.591985
     20          6           0       10.065822   -1.976699   -1.908704
     21          6           0       -8.593512   -0.422910    0.162337
     22          6           0        8.475909    0.356279   -0.103837
     23          6           0       -7.407645   -1.262902    0.398726
     24          6           0        7.509049    1.373552   -0.331941
     25          6           0       -7.651383   -2.639961    0.912219
     26          6           0        7.960051    2.701270   -0.603134
     27          6           0       -6.159194   -0.741785    0.270088
     28          6           0        6.260194    0.927173   -0.275958
     29          6           0       -4.865955   -1.431485    0.425325
     30          6           0        5.073503    1.754349   -0.396472
     31          6           0       -3.791360   -0.705722    0.265931
     32          6           0        3.762877    1.144509   -0.369299
     33          6           0       -2.364323   -1.234754    0.252274
     34          6           0        2.501887    1.903739   -0.391593
     35          6           0       -2.251054   -2.631602    0.629409
     36          6           0        2.633121    3.426038   -0.685483
     37          6           0       -1.233769   -0.581407    0.242083
     38          6           0        1.322286    1.159276   -0.233614
     39          6           0       -1.133321    0.862580   -0.062555
     40          6           0        0.093395    1.564887   -0.267678
     41          1           0      -14.074383    0.176555    0.581175
     42          1           0      -14.282717    0.091564   -1.379687
     43          1           0       12.212682   -1.826880    2.053669
     44          1           0       13.800634   -1.228588    1.872540
     45          1           0      -14.134864    2.052378   -0.534008
     46          1           0      -12.632745    2.058859   -1.536942
     47          1           0       14.142504   -2.919230    0.292566
     48          1           0       14.152424   -1.385952   -0.458327
     49          1           0      -12.925836    2.127300    1.512613
     50          1           0      -11.880443    3.230816    0.609902
     51          1           0       11.810881   -3.578178   -0.259660
     52          1           0       12.441843   -2.961326   -1.893733
     53          1           0      -11.663361    0.265542   -2.441994
     54          1           0      -12.504871   -1.148956   -2.729560
     55          1           0      -10.817677   -1.260643   -2.069612
     56          1           0      -12.680101   -2.210220    0.901190
     57          1           0      -11.659289   -2.717036   -0.493755
     58          1           0      -13.365626   -2.313515   -0.811262
     59          1           0       13.701829    0.851267   -0.729549
     60          1           0       13.965447    1.239472    1.236756
     61          1           0       12.618522    2.041695   -0.027411
     62          1           0       10.940916   -0.009631    2.856152
     63          1           0       11.040713    1.493972    2.083319
     64          1           0       12.365354    0.769682    2.752868
     65          1           0      -10.147444   -1.864601    0.630821
     66          1           0        9.953764    1.546851   -0.301812
     67          1           0       -9.239650    1.223667    1.755058
     68          1           0      -10.676643    2.045096    2.552298
     69          1           0       -9.807646    2.850719    1.267024
     70          1           0        9.502763   -1.276980   -2.244299
     71          1           0        9.352262   -3.009027   -1.701625
     72          1           0       10.703014   -2.138303   -2.891090
     73          1           0       -8.300136    0.535312   -0.415193
     74          1           0        8.051352   -0.547106    0.164659
     75          1           0       -8.276924   -2.623447    1.804056
     76          1           0       -6.742147   -3.147861    1.211032
     77          1           0       -8.145453   -3.151916    0.078878
     78          1           0        8.733278    2.704443   -1.432949
     79          1           0        8.355132    3.260505    0.190319
     80          1           0        7.380984    3.217805   -0.980414
     81          1           0       -5.980959    0.230468   -0.076474
     82          1           0        6.078986   -0.135777    0.237486
     83          1           0       -5.102785   -2.515616    0.496031
     84          1           0        5.005265    2.795456   -0.416273
     85          1           0       -3.879710    0.362041    0.211200
     86          1           0        3.695299    0.187666   -0.103126
     87          1           0       -2.578708   -2.724324    1.573413
     88          1           0       -1.255698   -3.009037    0.617283
     89          1           0       -2.784013   -3.446802    0.003217
     90          1           0        2.990807    3.772743   -1.687863
     91          1           0        3.063266    3.960444    0.116081
     92          1           0        1.522111    3.562189   -0.659579
     93          1           0       -0.387627   -1.053415    0.338101
     94          1           0        1.440397    0.089058   -0.081980
     95          1           0       -2.008853    1.419115   -0.055127
     96          1           0       -0.098846    2.538866   -0.538586
 ---------------------------------------------------------------------

 SCF Done:  E(RB3LYP) =  -1557.53319009     A.U. after   16 cycles

 Excitation energies and oscillator strengths:

 Excited State   1:      Singlet-A      2.2054 eV  562.17 nm  f=2.9608  <S**2>=0.000
     146 ->149         0.10344
     148 ->149         0.69392
     148 ->150         0.10129
     148 <-149        -0.11775
 This state for optimization and/or second-order correction.
 Total Energy, E(TD-HF/TD-DFT) =  -1557.45214158
 Copying the excited state density for this state as the 1-particle RhoCI density.

 The electronic state is 1-A.
 Alpha  occ. eigenvalues --  -10.20836 -10.20564 -10.20330 -10.20177 -10.20156
 Alpha  occ. eigenvalues --  -10.19483 -10.19457 -10.19427 -10.19209 -10.19205
 Alpha  occ. eigenvalues --  -10.19072 -10.19046 -10.18955 -10.18922 -10.18891
 Alpha  occ. eigenvalues --  -10.18836 -10.18793 -10.18764 -10.18643 -10.18569
 Alpha  occ. eigenvalues --  -10.18459 -10.18435 -10.18433 -10.18068 -10.18067
 Alpha  occ. eigenvalues --  -10.17985 -10.17965 -10.17907 -10.17832 -10.17742
 Alpha  occ. eigenvalues --  -10.17447 -10.17425 -10.17417 -10.17310 -10.17306
 Alpha  occ. eigenvalues --  -10.17031 -10.16446 -10.16209 -10.15729 -10.15621
 Alpha  occ. eigenvalues --   -0.85869  -0.84868  -0.84202  -0.83796  -0.82900
 Alpha  occ. eigenvalues --   -0.81956  -0.79915  -0.78734  -0.78322  -0.77792
 Alpha  occ. eigenvalues --   -0.76842  -0.76384  -0.74132  -0.72965  -0.72659
 Alpha  occ. eigenvalues --   -0.71206  -0.70179  -0.68776  -0.68635  -0.67915
 Alpha  occ. eigenvalues --   -0.67689  -0.66631  -0.66433  -0.66184  -0.65443
 Alpha  occ. eigenvalues --   -0.63027  -0.62142  -0.60225  -0.58690  -0.57169
 Alpha  occ. eigenvalues --   -0.56984  -0.55579  -0.55124  -0.54395  -0.54033
 Alpha  occ. eigenvalues --   -0.53518  -0.52987  -0.51300  -0.50600  -0.48871
 Alpha  occ. eigenvalues --   -0.48267  -0.47593  -0.47311  -0.46750  -0.46657
 Alpha  occ. eigenvalues --   -0.46258  -0.45950  -0.45287  -0.44824  -0.44252
 Alpha  occ. eigenvalues --   -0.43538  -0.43480  -0.43325  -0.42899  -0.42758
 Alpha  occ. eigenvalues --   -0.42741  -0.42310  -0.42185  -0.41845  -0.41448
 Alpha  occ. eigenvalues --   -0.41031  -0.40561  -0.40452  -0.40406  -0.39480
 Alpha  occ. eigenvalues --   -0.39205  -0.38912  -0.38744  -0.38001  -0.37844
 Alpha  occ. eigenvalues --   -0.37796  -0.37371  -0.37035  -0.36820  -0.36290
 Alpha  occ. eigenvalues --   -0.36210  -0.35880  -0.35657  -0.35586  -0.35144
 Alpha  occ. eigenvalues --   -0.34862  -0.34575  -0.34469  -0.34101  -0.33943
 Alpha  occ. eigenvalues --   -0.33839  -0.33691  -0.33382  -0.32557  -0.32393
 Alpha  occ. eigenvalues --   -0.32129  -0.31639  -0.31335  -0.31179  -0.30957
 Alpha  occ. eigenvalues --   -0.30920  -0.29717  -0.29607  -0.29479  -0.28897
 Alpha  occ. eigenvalues --   -0.28225  -0.27491  -0.26306  -0.23982  -0.23040
 Alpha  occ. eigenvalues --   -0.20507  -0.19069  -0.16070
 Alpha virt. eigenvalues --   -0.08111  -0.04569  -0.02127   0.00881   0.02231
 Alpha virt. eigenvalues --    0.04196   0.05721   0.06976   0.07055   0.07619
 Alpha virt. eigenvalues --    0.07777   0.08732   0.08833   0.09229   0.09521

 Mulliken charges:
               1
     1  C   -0.015580
     2  C    0.021097
     3  C   -0.160117
     4  C   -0.180835
     5  C   -0.178300
     6  C   -0.189279
     7  C    0.057186
     8  C    0.095372
     9  C   -0.206468
    10  C   -0.194473
    11  C    0.102271
    12  C    0.071388
    13  C   -0.288459
    14  C   -0.286324
    15  C   -0.270406
    16  C   -0.307050
    17  C   -0.160329
    18  C   -0.159239
    19  C   -0.367186
    20  C   -0.325546
    21  C   -0.102766
    22  C   -0.096676
    23  C    0.102526
    24  C    0.167920
    25  C   -0.376078
    26  C   -0.345393
    27  C   -0.133399
    28  C   -0.157240
    29  C   -0.036701
    30  C   -0.104075
    31  C   -0.135327
    32  C   -0.089078
    33  C    0.122561
    34  C    0.067102
    35  C   -0.382007
    36  C   -0.377924
    37  C   -0.094870
    38  C   -0.078195
    39  C   -0.112298
    40  C   -0.091303
    41  H    0.041512
    42  H    0.069991
    43  H    0.070895
    44  H    0.080953
    45  H    0.097182
    46  H    0.092507
    47  H    0.082511
    48  H    0.117881
    49  H    0.088711
    50  H    0.076219
    51  H    0.096259
    52  H    0.077791
    53  H    0.094679
    54  H    0.106816
    55  H    0.098464
    56  H    0.104307
    57  H    0.103315
    58  H    0.097642
    59  H    0.065121
    60  H    0.061308
    61  H    0.106349
    62  H    0.099402
    63  H    0.093354
    64  H    0.102718
    65  H    0.100332
    66  H    0.075366
    67  H    0.125693
    68  H    0.101560
    69  H    0.103984
    70  H    0.126342
    71  H    0.075042
    72  H    0.080884
    73  H    0.087489
    74  H    0.059626
    75  H    0.124906
    76  H    0.103038
    77  H    0.122567
    78  H    0.103403
    79  H    0.130458
    80  H    0.097859
    81  H    0.065229
    82  H    0.082391
    83  H    0.089304
    84  H    0.082508
    85  H    0.085434
    86  H    0.061724
    87  H    0.136943
    88  H    0.101943
    89  H    0.090866
    90  H    0.126885
    91  H    0.133284
    92  H    0.103584
    93  H    0.066531
    94  H    0.076439
    95  H    0.076330
    96  H    0.071665
 Sum of Mulliken charges =  -0.00000

 Dipole moment (field-independent basis, Debye):
    X=             -1.2135    Y=              0.5690    Z=              0.4405  Tot=              1.4108
 Quadrupole moment (field-independent basis, Debye-Ang):
   XX=           -231.2818   YY=           -235.1053   ZZ=           -252.7474
   XY=              7.2449   XZ=             -0.4927   YZ=             -3.5384

 Normal termination of Gaussian 16 at Tue Jul 30 21:59:45 2019.
