 Gaussian 16, Revision A.03,
 Gaussian 16:  ES64L-G16RevA.03 25-Dec-2016

 ---------------------------------
 # td=(NStates=1) B3LYP/6-31G(d,p)
 ---------------------------------

 --
 TD
 --
 Symbolic Z-matrix:
 Charge =  0 Multiplicity = 1

                         Standard orientation:
 ---------------------------------------------------------------------
 Center     Atomic      Atomic             Coordinates (Angstroms)
 Number     Number       Type             X           Y           Z
 ---------------------------------------------------------------------
      1          6           0      -12.098953   -0.454339   -0.752160
      2          6           0       12.006146    0.017996    0.967720
      3          6           0      -13.283397    0.446441   -0.636267
      4          6           0       12.891967   -1.290493    1.443226
      5          6           0      -12.930135    1.937254   -0.542682
      6          6           0       13.246250   -2.045733    0.223595
      7          6           0      -11.039467    0.020458    0.249243
      8          6           0       11.034695   -0.374196   -0.086371
      9          6           0      -12.330587    2.193196    0.756239
     10          6           0       12.061039   -2.641879   -0.595145
     11          6           0      -11.125012    1.091789    0.986691
     12          6           0       11.015635   -1.492768   -0.911979
     13          6           0      -11.609997   -0.459303   -2.238699
     14          6           0      -12.480372   -1.890792   -0.322612
     15          6           0       12.919198    1.229584    0.521484
     16          6           0       11.100394    0.448229    2.250660
     17          6           0       -9.813055   -0.857329    0.268462
     18          6           0        9.908833    0.697171   -0.367723
     19          6           0      -10.162186    1.504847    1.980167
     20          6           0       10.191714   -1.737919   -2.104903
     21          6           0       -8.520867   -0.508756    0.251539
     22          6           0        8.492916    0.319341   -0.363016
     23          6           0       -7.283764   -1.337433    0.325170
     24          6           0        7.535961    1.324370   -0.463496
     25          6           0       -7.626938   -2.761005    0.466605
     26          6           0        7.933491    2.798119   -0.747978
     27          6           0       -6.023536   -0.684469    0.338741
     28          6           0        6.172342    0.909233   -0.335131
     29          6           0       -4.844897   -1.452045    0.402618
     30          6           0        4.994562    1.685477   -0.465980
     31          6           0       -3.611342   -0.791927    0.217557
     32          6           0        3.839057    1.053790   -0.294489
     33          6           0       -2.381713   -1.410542    0.423942
     34          6           0        2.547279    1.787379   -0.399494
     35          6           0       -2.174762   -2.932232    0.497549
     36          6           0        2.507959    3.318863   -0.585963
     37          6           0       -1.157640   -0.681500    0.233641
     38          6           0        1.402132    1.040462   -0.236984
     39          6           0       -1.166486    0.738073   -0.081726
     40          6           0       -0.039607    1.487302   -0.245243
     41          1           0      -13.943921    0.055334    0.366419
     42          1           0      -13.738329    0.379133   -1.512042
     43          1           0       12.203628   -1.716868    2.081180
     44          1           0       13.770086   -1.038132    1.928550
     45          1           0      -13.826971    2.643866   -0.719632
     46          1           0      -12.205167    2.337523   -1.382603
     47          1           0       13.729165   -3.048190    0.541875
     48          1           0       14.107823   -1.648074   -0.441235
     49          1           0      -12.933343    2.020783    1.648206
     50          1           0      -11.965109    3.161746    1.162492
     51          1           0       11.588929   -3.391203    0.047905
     52          1           0       12.362727   -2.931359   -1.373679
     53          1           0      -11.269797    0.532798   -2.584308
     54          1           0      -12.446757   -0.969054   -2.803586
     55          1           0      -10.902983   -1.205726   -2.280711
     56          1           0      -12.570358   -1.824862    0.826433
     57          1           0      -11.694050   -2.726586   -0.434033
     58          1           0      -13.400289   -2.290677   -0.874552
     59          1           0       13.363513    1.057733   -0.563559
     60          1           0       13.754976    1.368104    1.241594
     61          1           0       12.512180    2.204318    0.252460
     62          1           0       10.176869   -0.299095    2.345505
     63          1           0       10.719122    1.352725    2.013902
     64          1           0       11.592329    0.699608    3.368989
     65          1           0      -10.176723   -1.779854    0.110841
     66          1           0       10.322828    1.762205   -0.577531
     67          1           0       -9.670803    0.621555    2.259949
     68          1           0      -10.768006    2.000197    2.853019
     69          1           0       -9.277402    2.198012    1.718222
     70          1           0        9.667620   -0.836578   -2.659272
     71          1           0        9.301458   -2.371133   -1.921803
     72          1           0       10.981777   -2.095117   -2.819538
     73          1           0       -8.473563    0.579514    0.095088
     74          1           0        7.989124   -0.597178   -0.288636
     75          1           0       -8.286035   -3.176051    1.363609
     76          1           0       -6.710424   -3.227571    0.809915
     77          1           0       -8.037696   -3.275439   -0.548443
     78          1           0        8.607109    2.908527   -1.562441
     79          1           0        8.383562    3.334672    0.001108
     80          1           0        6.994290    3.055580   -1.024378
     81          1           0       -5.959357    0.316438   -0.039039
     82          1           0        6.058476   -0.170933   -0.431499
     83          1           0       -4.918831   -2.428416    0.664096
     84          1           0        5.016796    2.792884   -0.932552
     85          1           0       -3.696047    0.190559   -0.061700
     86          1           0        3.601909    0.077421    0.282928
     87          1           0       -2.581890   -2.990991    1.460812
     88          1           0       -1.114399   -3.097660    0.393606
     89          1           0       -2.814950   -3.414388   -0.389935
     90          1           0        3.110157    3.662741   -1.474414
     91          1           0        2.652255    3.858546    0.414723
     92          1           0        1.477448    3.711791   -0.674383
     93          1           0       -0.382609   -1.406175    0.367475
     94          1           0        1.461533   -0.113194   -0.193649
     95          1           0       -2.197745    1.156248   -0.028320
     96          1           0       -0.125272    2.561661   -0.184289
 ---------------------------------------------------------------------

 SCF Done:  E(RB3LYP) =  -1557.51821187     A.U. after   16 cycles

 Excitation energies and oscillator strengths:

 Excited State   1:      Singlet-A      2.0791 eV  596.35 nm  f=2.7326  <S**2>=0.000
     148 ->149         0.70490
     148 <-149        -0.10289
 This state for optimization and/or second-order correction.
 Total Energy, E(TD-HF/TD-DFT) =  -1557.44180809
 Copying the excited state density for this state as the 1-particle RhoCI density.

 The electronic state is 1-A.
 Alpha  occ. eigenvalues --  -10.20964 -10.20725 -10.20677 -10.20338 -10.19951
 Alpha  occ. eigenvalues --  -10.19610 -10.19547 -10.19522 -10.19492 -10.19455
 Alpha  occ. eigenvalues --  -10.19432 -10.19413 -10.19243 -10.19237 -10.19141
 Alpha  occ. eigenvalues --  -10.19034 -10.19018 -10.18898 -10.18850 -10.18695
 Alpha  occ. eigenvalues --  -10.18657 -10.18620 -10.18611 -10.18507 -10.18485
 Alpha  occ. eigenvalues --  -10.18399 -10.18369 -10.18203 -10.18144 -10.17965
 Alpha  occ. eigenvalues --  -10.17871 -10.17777 -10.17727 -10.17297 -10.17045
 Alpha  occ. eigenvalues --  -10.16934 -10.16783 -10.16761 -10.16225 -10.16218
 Alpha  occ. eigenvalues --   -0.85404  -0.83569  -0.83513  -0.82829  -0.81635
 Alpha  occ. eigenvalues --   -0.80851  -0.78844  -0.78197  -0.77476  -0.77310
 Alpha  occ. eigenvalues --   -0.76150  -0.75457  -0.74478  -0.72002  -0.71130
 Alpha  occ. eigenvalues --   -0.69311  -0.68770  -0.68321  -0.68286  -0.68242
 Alpha  occ. eigenvalues --   -0.67350  -0.67198  -0.66950  -0.66528  -0.65352
 Alpha  occ. eigenvalues --   -0.62563  -0.61267  -0.59225  -0.58376  -0.57218
 Alpha  occ. eigenvalues --   -0.56736  -0.56096  -0.55190  -0.54295  -0.52987
 Alpha  occ. eigenvalues --   -0.52503  -0.51779  -0.50604  -0.49064  -0.48231
 Alpha  occ. eigenvalues --   -0.47882  -0.47572  -0.47252  -0.46911  -0.45829
 Alpha  occ. eigenvalues --   -0.45243  -0.44726  -0.44356  -0.44188  -0.43906
 Alpha  occ. eigenvalues --   -0.43574  -0.43370  -0.42923  -0.42837  -0.42483
 Alpha  occ. eigenvalues --   -0.42230  -0.41985  -0.41396  -0.41085  -0.40967
 Alpha  occ. eigenvalues --   -0.40606  -0.40535  -0.39897  -0.39525  -0.39320
 Alpha  occ. eigenvalues --   -0.39173  -0.38702  -0.38629  -0.38465  -0.38376
 Alpha  occ. eigenvalues --   -0.37700  -0.37626  -0.37514  -0.36875  -0.36647
 Alpha  occ. eigenvalues --   -0.36080  -0.35726  -0.35678  -0.35203  -0.35032
 Alpha  occ. eigenvalues --   -0.34930  -0.34860  -0.34069  -0.33730  -0.33449
 Alpha  occ. eigenvalues --   -0.33252  -0.32857  -0.32773  -0.32265  -0.32153
 Alpha  occ. eigenvalues --   -0.32006  -0.31854  -0.31558  -0.31214  -0.30974
 Alpha  occ. eigenvalues --   -0.30900  -0.30621  -0.30464  -0.28799  -0.28144
 Alpha  occ. eigenvalues --   -0.26505  -0.25912  -0.25634  -0.23537  -0.22178
 Alpha  occ. eigenvalues --   -0.21092  -0.18154  -0.15959
 Alpha virt. eigenvalues --   -0.08159  -0.05601  -0.01650   0.01166   0.02637
 Alpha virt. eigenvalues --    0.03860   0.05563   0.06377   0.07452   0.07796
 Alpha virt. eigenvalues --    0.08051   0.08105   0.08181   0.08908   0.09056

 Mulliken charges:
               1
     1  C   -0.006016
     2  C   -0.009353
     3  C   -0.129738
     4  C   -0.149794
     5  C   -0.194143
     6  C   -0.208405
     7  C    0.066100
     8  C    0.063929
     9  C   -0.201547
    10  C   -0.157336
    11  C    0.050137
    12  C    0.036838
    13  C   -0.296802
    14  C   -0.318361
    15  C   -0.315071
    16  C   -0.300122
    17  C   -0.096239
    18  C   -0.174219
    19  C   -0.369187
    20  C   -0.352081
    21  C   -0.102120
    22  C   -0.070421
    23  C    0.104981
    24  C    0.104746
    25  C   -0.368337
    26  C   -0.358407
    27  C   -0.116855
    28  C   -0.157381
    29  C   -0.071674
    30  C   -0.083467
    31  C   -0.086192
    32  C   -0.104904
    33  C    0.028895
    34  C    0.111689
    35  C   -0.342298
    36  C   -0.377010
    37  C   -0.093711
    38  C   -0.130876
    39  C   -0.091632
    40  C   -0.099538
    41  H    0.065459
    42  H    0.091423
    43  H    0.108143
    44  H    0.096248
    45  H    0.077970
    46  H    0.087274
    47  H    0.066631
    48  H    0.089644
    49  H    0.103268
    50  H    0.090500
    51  H    0.105849
    52  H    0.084552
    53  H    0.108230
    54  H    0.089056
    55  H    0.112680
    56  H    0.103855
    57  H    0.097636
    58  H    0.092168
    59  H    0.084526
    60  H    0.104995
    61  H    0.102972
    62  H    0.092778
    63  H    0.119999
    64  H    0.060904
    65  H    0.052532
    66  H    0.093027
    67  H    0.128325
    68  H    0.077649
    69  H    0.103848
    70  H    0.101779
    71  H    0.116729
    72  H    0.101259
    73  H    0.069946
    74  H    0.077245
    75  H    0.108982
    76  H    0.103322
    77  H    0.111885
    78  H    0.116822
    79  H    0.128060
    80  H    0.108399
    81  H    0.089954
    82  H    0.084096
    83  H    0.079151
    84  H    0.092435
    85  H    0.077104
    86  H    0.094375
    87  H    0.137642
    88  H    0.110704
    89  H    0.110623
    90  H    0.118958
    91  H    0.120668
    92  H    0.110126
    93  H    0.070021
    94  H    0.069771
    95  H    0.091716
    96  H    0.072006
 Sum of Mulliken charges =  -0.00000

 Dipole moment (field-independent basis, Debye):
    X=              0.1938    Y=             -0.1973    Z=             -0.6307  Tot=              0.6887
 Quadrupole moment (field-independent basis, Debye-Ang):
   XX=           -232.2791   YY=           -233.9948   ZZ=           -254.4792
   XY=              4.6900   XZ=             -1.1214   YZ=             -1.7181

 Normal termination of Gaussian 16 at Wed Jul 31 13:31:47 2019.
