 Gaussian 16, Revision A.03,
 Gaussian 16:  ES64L-G16RevA.03 25-Dec-2016

 ---------------------------------
 # td=(NStates=1) B3LYP/6-31G(d,p)
 ---------------------------------

 --
 TD
 --
 Symbolic Z-matrix:
 Charge =  0 Multiplicity = 1

                         Standard orientation:
 ---------------------------------------------------------------------
 Center     Atomic      Atomic             Coordinates (Angstroms)
 Number     Number       Type             X           Y           Z
 ---------------------------------------------------------------------
      1          6           0       12.184421    0.646078   -0.641955
      2          6           0      -12.201392   -0.043623    0.946761
      3          6           0       13.502432   -0.223648   -0.533094
      4          6           0      -13.029180    1.228488    1.376318
      5          6           0       13.274519   -1.699307   -0.520508
      6          6           0      -13.395238    2.120901    0.271466
      7          6           0       11.094864    0.009859    0.256774
      8          6           0      -11.010560    0.391069   -0.050670
      9          6           0       12.360243   -2.117587    0.709081
     10          6           0      -12.253595    2.513270   -0.567356
     11          6           0       11.177147   -1.211906    0.937292
     12          6           0      -11.090802    1.563179   -0.741132
     13          6           0       11.692275    0.567440   -2.163677
     14          6           0       12.494549    2.061746   -0.316498
     15          6           0      -13.023494   -1.167724    0.162882
     16          6           0      -11.468902   -0.651805    2.088414
     17          6           0        9.857796    0.866402    0.427993
     18          6           0       -9.933122   -0.600920   -0.332338
     19          6           0       10.168882   -1.849877    1.869420
     20          6           0      -10.141207    2.044198   -1.856469
     21          6           0        8.629803    0.527037    0.263722
     22          6           0       -8.590626   -0.258109   -0.234303
     23          6           0        7.356241    1.364686    0.405106
     24          6           0       -7.589745   -1.229106   -0.431241
     25          6           0        7.526388    2.834518    0.508301
     26          6           0       -7.937332   -2.626633   -0.633877
     27          6           0        6.157996    0.661271    0.154490
     28          6           0       -6.217164   -0.812153   -0.264788
     29          6           0        4.855201    1.369715    0.291402
     30          6           0       -5.023154   -1.567182   -0.519835
     31          6           0        3.685026    0.649817    0.259867
     32          6           0       -3.746152   -1.019822   -0.386521
     33          6           0        2.429596    1.234830    0.323226
     34          6           0       -2.557423   -1.838498   -0.383190
     35          6           0        2.253814    2.678262    0.643811
     36          6           0       -2.649519   -3.296061   -0.746020
     37          6           0        1.303663    0.482679    0.194251
     38          6           0       -1.435585   -1.192357   -0.320556
     39          6           0        1.140815   -1.072531   -0.184891
     40          6           0       -0.009925   -1.602726   -0.335545
     41          1           0       13.840320   -0.005636    0.588476
     42          1           0       14.167624    0.047104   -1.197796
     43          1           0      -12.170382    1.970882    1.913307
     44          1           0      -13.796478    0.889985    2.100693
     45          1           0       14.224698   -2.129791   -0.312508
     46          1           0       12.956392   -2.181948   -1.475628
     47          1           0      -13.833890    3.017880    0.732286
     48          1           0      -14.107329    1.746869   -0.470929
     49          1           0       13.074943   -1.878331    1.459935
     50          1           0       11.951201   -3.096659    0.718635
     51          1           0      -11.630555    3.207252    0.114784
     52          1           0      -12.637017    2.892275   -1.506516
     53          1           0       11.699095   -0.357573   -2.539851
     54          1           0       12.563611    0.927178   -2.565114
     55          1           0       10.869079    1.162927   -2.262643
     56          1           0       12.698128    2.226024    0.711613
     57          1           0       11.767721    3.000451   -0.690538
     58          1           0       13.380478    2.377792   -0.954163
     59          1           0      -13.348217   -0.765754   -0.844691
     60          1           0      -13.864385   -1.483373    0.915471
     61          1           0      -12.132046   -1.885740    0.107590
     62          1           0      -10.651649   -0.022337    2.523031
     63          1           0      -10.708806   -1.500763    1.683860
     64          1           0      -12.058659   -1.075606    2.969809
     65          1           0       10.161350    1.783493    0.515633
     66          1           0      -10.090710   -1.643407   -0.625447
     67          1           0        9.495470   -1.108032    2.251286
     68          1           0       10.810634   -2.525233    2.588846
     69          1           0        9.460890   -2.619379    1.398760
     70          1           0       -9.422861    1.093631   -1.995858
     71          1           0       -9.535457    2.938598   -1.218377
     72          1           0      -10.738551    2.431533   -2.713895
     73          1           0        8.416306   -0.631029    0.209915
     74          1           0       -8.321258    0.832452    0.091839
     75          1           0        8.223926    3.026383    1.290509
     76          1           0        6.625990    3.240610    0.762111
     77          1           0        7.969580    3.280692   -0.411734
     78          1           0       -8.586690   -3.005408   -1.620060
     79          1           0       -8.572438   -3.093698    0.040413
     80          1           0       -6.915486   -3.151535   -0.702688
     81          1           0        6.319111   -0.453792   -0.035933
     82          1           0       -5.971307    0.219295   -0.246483
     83          1           0        4.771998    2.414758    0.384089
     84          1           0       -4.932150   -2.676135   -0.444016
     85          1           0        3.721909   -0.485124   -0.005657
     86          1           0       -3.725785   -0.087301   -0.029911
     87          1           0        2.801298    2.750072    1.615945
     88          1           0        1.249234    3.054753    0.905741
     89          1           0        2.683023    3.393219   -0.060761
     90          1           0       -3.199490   -3.681420   -1.784396
     91          1           0       -3.139608   -3.743577    0.152099
     92          1           0       -1.576887   -3.817709   -0.782898
     93          1           0        0.271890    0.845842    0.256448
     94          1           0       -1.534481    0.076570   -0.260581
     95          1           0        2.081710   -1.532236   -0.166247
     96          1           0       -0.104367   -2.613219   -0.634476
 ---------------------------------------------------------------------

 SCF Done:  E(RB3LYP) =  -1557.55792725     A.U. after   15 cycles

 Excitation energies and oscillator strengths:

 Excited State   1:      Singlet-A      2.4325 eV  509.69 nm  f=2.3058  <S**2>=0.000
     147 ->149        -0.18425
     148 ->149         0.68051
 This state for optimization and/or second-order correction.
 Total Energy, E(TD-HF/TD-DFT) =  -1557.46853373
 Copying the excited state density for this state as the 1-particle RhoCI density.

 The electronic state is 1-A.
 Alpha  occ. eigenvalues --  -10.21141 -10.20273 -10.20157 -10.20078 -10.20073
 Alpha  occ. eigenvalues --  -10.20049 -10.20038 -10.19785 -10.19771 -10.19379
 Alpha  occ. eigenvalues --  -10.19192 -10.19146 -10.19142 -10.19118 -10.19095
 Alpha  occ. eigenvalues --  -10.19092 -10.19059 -10.18932 -10.18865 -10.18830
 Alpha  occ. eigenvalues --  -10.18775 -10.18751 -10.18725 -10.18591 -10.18565
 Alpha  occ. eigenvalues --  -10.18353 -10.18274 -10.18224 -10.18210 -10.18178
 Alpha  occ. eigenvalues --  -10.18093 -10.18042 -10.17955 -10.17779 -10.17739
 Alpha  occ. eigenvalues --  -10.17426 -10.17353 -10.17250 -10.15930 -10.14656
 Alpha  occ. eigenvalues --   -0.84789  -0.84316  -0.84091  -0.83174  -0.82356
 Alpha  occ. eigenvalues --   -0.81117  -0.79066  -0.78517  -0.78358  -0.77463
 Alpha  occ. eigenvalues --   -0.77158  -0.75390  -0.74369  -0.72827  -0.71781
 Alpha  occ. eigenvalues --   -0.69123  -0.69109  -0.68504  -0.68283  -0.67410
 Alpha  occ. eigenvalues --   -0.67172  -0.66722  -0.66562  -0.66456  -0.65984
 Alpha  occ. eigenvalues --   -0.62581  -0.61399  -0.59609  -0.58879  -0.56937
 Alpha  occ. eigenvalues --   -0.56406  -0.55104  -0.54423  -0.54006  -0.52782
 Alpha  occ. eigenvalues --   -0.52245  -0.51735  -0.50005  -0.49409  -0.48853
 Alpha  occ. eigenvalues --   -0.48790  -0.48670  -0.47390  -0.46791  -0.46189
 Alpha  occ. eigenvalues --   -0.45819  -0.45443  -0.45101  -0.45001  -0.44356
 Alpha  occ. eigenvalues --   -0.44027  -0.42906  -0.42731  -0.42639  -0.42043
 Alpha  occ. eigenvalues --   -0.41800  -0.41786  -0.41529  -0.41351  -0.41136
 Alpha  occ. eigenvalues --   -0.40764  -0.40440  -0.39997  -0.39927  -0.39387
 Alpha  occ. eigenvalues --   -0.39109  -0.39077  -0.38289  -0.38211  -0.38036
 Alpha  occ. eigenvalues --   -0.37664  -0.37345  -0.37272  -0.37110  -0.36653
 Alpha  occ. eigenvalues --   -0.36490  -0.36264  -0.36151  -0.35679  -0.35384
 Alpha  occ. eigenvalues --   -0.34981  -0.34729  -0.34302  -0.33882  -0.33738
 Alpha  occ. eigenvalues --   -0.33574  -0.33438  -0.33295  -0.33118  -0.32690
 Alpha  occ. eigenvalues --   -0.32189  -0.31967  -0.31552  -0.31300  -0.30762
 Alpha  occ. eigenvalues --   -0.29786  -0.29476  -0.28984  -0.28190  -0.27840
 Alpha  occ. eigenvalues --   -0.27559  -0.27429  -0.25913  -0.24114  -0.22032
 Alpha  occ. eigenvalues --   -0.20863  -0.18286  -0.16879
 Alpha virt. eigenvalues --   -0.07355  -0.04993  -0.00869   0.01216   0.02704
 Alpha virt. eigenvalues --    0.03936   0.05320   0.06332   0.06534   0.07140
 Alpha virt. eigenvalues --    0.07916   0.08089   0.08162   0.08522   0.08990

 Mulliken charges:
               1
     1  C   -0.015607
     2  C   -0.000894
     3  C   -0.158886
     4  C   -0.158389
     5  C   -0.199772
     6  C   -0.166554
     7  C    0.034722
     8  C    0.058350
     9  C   -0.226897
    10  C   -0.206824
    11  C    0.074728
    12  C    0.036540
    13  C   -0.283067
    14  C   -0.300184
    15  C   -0.277907
    16  C   -0.290294
    17  C   -0.117146
    18  C   -0.172748
    19  C   -0.367665
    20  C   -0.327566
    21  C   -0.080931
    22  C   -0.090721
    23  C    0.089205
    24  C    0.144130
    25  C   -0.365381
    26  C   -0.386937
    27  C   -0.118384
    28  C   -0.143976
    29  C   -0.107186
    30  C   -0.088493
    31  C   -0.102132
    32  C   -0.098087
    33  C    0.153272
    34  C    0.133940
    35  C   -0.386214
    36  C   -0.375755
    37  C   -0.166867
    38  C   -0.110231
    39  C   -0.073735
    40  C   -0.075878
    41  H    0.069817
    42  H    0.090701
    43  H    0.053670
    44  H    0.087741
    45  H    0.097095
    46  H    0.089362
    47  H    0.098798
    48  H    0.087923
    49  H    0.112973
    50  H    0.100690
    51  H    0.098051
    52  H    0.098380
    53  H    0.107063
    54  H    0.094456
    55  H    0.113611
    56  H    0.115082
    57  H    0.070121
    58  H    0.093229
    59  H    0.105525
    60  H    0.089325
    61  H    0.099699
    62  H    0.106955
    63  H    0.076622
    64  H    0.082870
    65  H    0.063490
    66  H    0.095191
    67  H    0.127099
    68  H    0.092414
    69  H    0.104842
    70  H    0.115916
    71  H    0.082858
    72  H    0.111045
    73  H    0.059099
    74  H    0.084314
    75  H    0.122390
    76  H    0.114315
    77  H    0.125278
    78  H    0.087358
    79  H    0.137964
    80  H    0.105309
    81  H    0.086455
    82  H    0.083062
    83  H    0.091617
    84  H    0.078873
    85  H    0.075422
    86  H    0.078910
    87  H    0.115048
    88  H    0.113674
    89  H    0.118742
    90  H    0.115338
    91  H    0.127722
    92  H    0.100225
    93  H    0.072408
    94  H    0.044633
    95  H    0.082131
    96  H    0.063519
 Sum of Mulliken charges =  -0.00000

 Dipole moment (field-independent basis, Debye):
    X=              0.2231    Y=              0.3114    Z=             -0.0850  Tot=              0.3924
 Quadrupole moment (field-independent basis, Debye-Ang):
   XX=           -206.6104   YY=           -233.9501   ZZ=           -256.2595
   XY=             -1.8578   XZ=             -1.0838   YZ=              1.9400

 Normal termination of Gaussian 16 at Wed Jul 31 00:48:58 2019.
