 Gaussian 16, Revision A.03,
 Gaussian 16:  ES64L-G16RevA.03 25-Dec-2016

 ---------------------------------
 # td=(NStates=1) B3LYP/6-31G(d,p)
 ---------------------------------

 --
 TD
 --
 Symbolic Z-matrix:
 Charge =  0 Multiplicity = 1

                         Standard orientation:
 ---------------------------------------------------------------------
 Center     Atomic      Atomic             Coordinates (Angstroms)
 Number     Number       Type             X           Y           Z
 ---------------------------------------------------------------------
      1          6           0      -12.215648   -0.633116   -0.691654
      2          6           0       12.046944   -0.072631    0.961244
      3          6           0      -13.577799    0.234125   -0.454756
      4          6           0       12.702478   -1.323562    1.401034
      5          6           0      -13.172834    1.717104   -0.372701
      6          6           0       13.306175   -2.296323    0.366262
      7          6           0      -11.000869   -0.039881    0.222753
      8          6           0       10.839910   -0.500943    0.015064
      9          6           0      -12.339434    1.941193    0.835320
     10          6           0       12.086685   -2.723868   -0.457576
     11          6           0      -11.103622    1.111667    0.993934
     12          6           0       10.917071   -1.619779   -0.760672
     13          6           0      -11.824018   -0.629149   -2.106422
     14          6           0      -12.557614   -2.172281   -0.214082
     15          6           0       13.029563    0.844624    0.251423
     16          6           0       11.545984    0.700646    2.193740
     17          6           0       -9.867493   -0.948406    0.293577
     18          6           0        9.823723    0.586098   -0.229557
     19          6           0      -10.155680    1.588604    2.069444
     20          6           0        9.949814   -2.219622   -1.711201
     21          6           0       -8.588745   -0.518740    0.209766
     22          6           0        8.499984    0.380170   -0.215031
     23          6           0       -7.335085   -1.347828    0.330953
     24          6           0        7.526395    1.342062   -0.439841
     25          6           0       -7.368793   -2.747863    0.430915
     26          6           0        8.071835    2.710469   -0.909111
     27          6           0       -6.134437   -0.711425    0.254685
     28          6           0        6.293973    0.921961   -0.409094
     29          6           0       -4.870489   -1.279145    0.342563
     30          6           0        5.085995    1.754187   -0.552622
     31          6           0       -3.706235   -0.557747    0.212393
     32          6           0        3.783272    1.202297   -0.318074
     33          6           0       -2.360001   -1.112757    0.216012
     34          6           0        2.602165    2.056577   -0.435809
     35          6           0       -2.076462   -2.583442    0.521207
     36          6           0        2.684546    3.517264   -0.731779
     37          6           0       -1.232288   -0.376159   -0.030717
     38          6           0        1.463433    1.298527   -0.387581
     39          6           0       -1.178019    1.120877   -0.326499
     40          6           0        0.089196    1.808239   -0.347166
     41          1           0      -14.092546   -0.082035    0.447270
     42          1           0      -14.393374   -0.005510   -1.319814
     43          1           0       12.031949   -1.770401    2.158888
     44          1           0       13.616743   -0.870769    2.131262
     45          1           0      -14.125102    2.249252   -0.163252
     46          1           0      -12.580269    1.852319   -1.211698
     47          1           0       13.980499   -3.128438    0.756672
     48          1           0       14.114269   -1.783321   -0.310681
     49          1           0      -12.876269    1.833637    1.817163
     50          1           0      -12.088016    3.000910    0.845594
     51          1           0       11.455330   -3.317302    0.070017
     52          1           0       12.398346   -3.342259   -1.414053
     53          1           0      -11.771380    0.371622   -2.465562
     54          1           0      -12.577602   -1.158492   -2.718689
     55          1           0      -10.639840   -1.054010   -2.389417
     56          1           0      -12.723583   -2.383903    0.770193
     57          1           0      -11.909809   -2.912248   -0.805876
     58          1           0      -13.463052   -2.377395   -0.806370
     59          1           0       13.322803    0.419224   -0.777599
     60          1           0       13.755956    1.192515    0.927895
     61          1           0       12.636447    1.889002   -0.029625
     62          1           0       10.788169    0.066907    2.764668
     63          1           0       10.875547    1.505326    1.836540
     64          1           0       12.313492    0.984382    2.937283
     65          1           0      -10.031797   -1.900641    0.373713
     66          1           0       10.417378    1.749951   -0.467666
     67          1           0       -9.296731    0.844909    2.298091
     68          1           0      -10.585116    2.343602    2.833356
     69          1           0       -9.320077    2.277070    1.651154
     70          1           0        9.229237   -1.464471   -2.186817
     71          1           0        9.394883   -3.138698   -1.311347
     72          1           0       10.434211   -2.631955   -2.696474
     73          1           0       -8.371184    0.697723    0.056689
     74          1           0        8.238732   -0.680421    0.138221
     75          1           0       -7.894837   -2.948547    1.483710
     76          1           0       -6.308095   -3.146670    0.446888
     77          1           0       -7.992502   -3.152207   -0.473570
     78          1           0        8.681075    2.511128   -2.020908
     79          1           0        8.568292    3.372418   -0.135209
     80          1           0        7.131529    3.300993   -1.061158
     81          1           0       -6.134398    0.496457    0.389324
     82          1           0        6.108147   -0.203834   -0.315217
     83          1           0       -4.739315   -2.403718    0.299923
     84          1           0        5.159699    2.893533   -0.839245
     85          1           0       -4.096143    0.492698    0.099129
     86          1           0        3.822505    0.104135   -0.118573
     87          1           0       -2.648346   -2.871950    1.256226
     88          1           0       -0.981259   -2.670198    0.374619
     89          1           0       -2.464043   -3.172389   -0.239469
     90          1           0        3.373194    3.832814   -1.513475
     91          1           0        3.317339    3.782648    0.220555
     92          1           0        1.704573    3.968849   -0.679980
     93          1           0       -0.293030   -0.901687    0.236349
     94          1           0        1.468201    0.301759   -0.552891
     95          1           0       -2.095320    1.577745   -0.303484
     96          1           0        0.053030    3.027817   -0.415331
 ---------------------------------------------------------------------

 SCF Done:  E(RB3LYP) =  -1557.54896177     A.U. after   16 cycles

 Excitation energies and oscillator strengths:

 Excited State   1:      Singlet-A      2.2494 eV  551.20 nm  f=2.9028  <S**2>=0.000
     148 ->149         0.70726
 This state for optimization and/or second-order correction.
 Total Energy, E(TD-HF/TD-DFT) =  -1557.46629919
 Copying the excited state density for this state as the 1-particle RhoCI density.

 The electronic state is 1-A.
 Alpha  occ. eigenvalues --  -10.21204 -10.20748 -10.20739 -10.20636 -10.20250
 Alpha  occ. eigenvalues --  -10.20125 -10.19946 -10.19928 -10.19865 -10.19810
 Alpha  occ. eigenvalues --  -10.19703 -10.19595 -10.19586 -10.19583 -10.19583
 Alpha  occ. eigenvalues --  -10.19554 -10.19505 -10.19497 -10.19484 -10.19195
 Alpha  occ. eigenvalues --  -10.19012 -10.19011 -10.18961 -10.18953 -10.18944
 Alpha  occ. eigenvalues --  -10.18849 -10.18716 -10.18684 -10.18663 -10.18555
 Alpha  occ. eigenvalues --  -10.18321 -10.18135 -10.17832 -10.17824 -10.17560
 Alpha  occ. eigenvalues --  -10.17501 -10.17405 -10.17380 -10.17162 -10.16789
 Alpha  occ. eigenvalues --   -0.84573  -0.84374  -0.83595  -0.83477  -0.82505
 Alpha  occ. eigenvalues --   -0.81640  -0.78444  -0.78199  -0.77941  -0.76971
 Alpha  occ. eigenvalues --   -0.76219  -0.75238  -0.73821  -0.72761  -0.71336
 Alpha  occ. eigenvalues --   -0.70619  -0.68312  -0.67976  -0.67778  -0.67455
 Alpha  occ. eigenvalues --   -0.67366  -0.67040  -0.66447  -0.66048  -0.65855
 Alpha  occ. eigenvalues --   -0.62286  -0.61500  -0.59646  -0.58661  -0.56654
 Alpha  occ. eigenvalues --   -0.56381  -0.54973  -0.54508  -0.53047  -0.52458
 Alpha  occ. eigenvalues --   -0.52259  -0.51121  -0.50513  -0.49969  -0.49091
 Alpha  occ. eigenvalues --   -0.47809  -0.47132  -0.46456  -0.46244  -0.45881
 Alpha  occ. eigenvalues --   -0.45565  -0.44929  -0.44298  -0.44211  -0.43930
 Alpha  occ. eigenvalues --   -0.43655  -0.42988  -0.42708  -0.42447  -0.42321
 Alpha  occ. eigenvalues --   -0.42008  -0.41678  -0.41598  -0.41238  -0.40924
 Alpha  occ. eigenvalues --   -0.40490  -0.40478  -0.40368  -0.39736  -0.39464
 Alpha  occ. eigenvalues --   -0.39385  -0.38710  -0.38526  -0.38110  -0.37985
 Alpha  occ. eigenvalues --   -0.37673  -0.37400  -0.36853  -0.36746  -0.36532
 Alpha  occ. eigenvalues --   -0.36184  -0.35572  -0.35226  -0.35066  -0.34775
 Alpha  occ. eigenvalues --   -0.34567  -0.34253  -0.34144  -0.33743  -0.33304
 Alpha  occ. eigenvalues --   -0.33163  -0.32815  -0.32694  -0.32614  -0.32488
 Alpha  occ. eigenvalues --   -0.32268  -0.32147  -0.31941  -0.31601  -0.30561
 Alpha  occ. eigenvalues --   -0.30507  -0.30183  -0.29512  -0.28728  -0.27853
 Alpha  occ. eigenvalues --   -0.27660  -0.27162  -0.26054  -0.24060  -0.22455
 Alpha  occ. eigenvalues --   -0.21016  -0.18829  -0.16360
 Alpha virt. eigenvalues --   -0.07717  -0.04905  -0.01324   0.00740   0.02062
 Alpha virt. eigenvalues --    0.04132   0.05947   0.06573   0.06761   0.07159
 Alpha virt. eigenvalues --    0.07373   0.07436   0.07559   0.07923   0.08507

 Mulliken charges:
               1
     1  C    0.007135
     2  C    0.011743
     3  C   -0.174577
     4  C   -0.150256
     5  C   -0.182389
     6  C   -0.179706
     7  C    0.018330
     8  C    0.029415
     9  C   -0.227526
    10  C   -0.209746
    11  C    0.114514
    12  C    0.065449
    13  C   -0.279003
    14  C   -0.326644
    15  C   -0.282228
    16  C   -0.308737
    17  C   -0.098976
    18  C   -0.134820
    19  C   -0.384660
    20  C   -0.366227
    21  C   -0.102822
    22  C   -0.098977
    23  C    0.138310
    24  C    0.157084
    25  C   -0.369499
    26  C   -0.354470
    27  C   -0.127648
    28  C   -0.134255
    29  C   -0.077393
    30  C   -0.107339
    31  C   -0.109080
    32  C   -0.112912
    33  C    0.086114
    34  C    0.108704
    35  C   -0.360142
    36  C   -0.361842
    37  C   -0.140067
    38  C   -0.092759
    39  C   -0.090403
    40  C   -0.110781
    41  H    0.095607
    42  H    0.060080
    43  H    0.095603
    44  H    0.033010
    45  H    0.093296
    46  H    0.112396
    47  H    0.092633
    48  H    0.088713
    49  H    0.098396
    50  H    0.098872
    51  H    0.129348
    52  H    0.074766
    53  H    0.110136
    54  H    0.096654
    55  H    0.069579
    56  H    0.118123
    57  H    0.091333
    58  H    0.098062
    59  H    0.100030
    60  H    0.106774
    61  H    0.078441
    62  H    0.088184
    63  H    0.106175
    64  H    0.101786
    65  H    0.080110
    66  H    0.066738
    67  H    0.119824
    68  H    0.108303
    69  H    0.102551
    70  H    0.113741
    71  H    0.112265
    72  H    0.097359
    73  H    0.063958
    74  H    0.081613
    75  H    0.108407
    76  H    0.106228
    77  H    0.111086
    78  H    0.104299
    79  H    0.121700
    80  H    0.095936
    81  H    0.059978
    82  H    0.079630
    83  H    0.070927
    84  H    0.072034
    85  H    0.078786
    86  H    0.088507
    87  H    0.125134
    88  H    0.108270
    89  H    0.126263
    90  H    0.139327
    91  H    0.113380
    92  H    0.120167
    93  H    0.077207
    94  H    0.084291
    95  H    0.092693
    96  H    0.050377
 Sum of Mulliken charges =  -0.00000

 Dipole moment (field-independent basis, Debye):
    X=             -0.7341    Y=             -0.1351    Z=             -0.0362  Tot=              0.7474
 Quadrupole moment (field-independent basis, Debye-Ang):
   XX=           -224.8891   YY=           -233.8998   ZZ=           -256.3958
   XY=             -1.6442   XZ=             -5.1713   YZ=              0.5104

 Normal termination of Gaussian 16 at Wed Jul 31 14:00:59 2019.
