 Gaussian 16, Revision A.03,
 Gaussian 16:  ES64L-G16RevA.03 25-Dec-2016

 ---------------------------------
 # td=(NStates=1) B3LYP/6-31G(d,p)
 ---------------------------------

 --
 TD
 --
 Symbolic Z-matrix:
 Charge =  0 Multiplicity = 1

                         Standard orientation:
 ---------------------------------------------------------------------
 Center     Atomic      Atomic             Coordinates (Angstroms)
 Number     Number       Type             X           Y           Z
 ---------------------------------------------------------------------
      1          6           0      -12.094023   -0.675169   -0.642425
      2          6           0       12.023834   -0.002110    0.876341
      3          6           0      -13.358621    0.237608   -0.559532
      4          6           0       12.875803   -1.251571    1.350810
      5          6           0      -12.947891    1.743035   -0.644123
      6          6           0       13.283405   -2.119607    0.209141
      7          6           0      -10.994343   -0.014715    0.294967
      8          6           0       10.897599   -0.480474   -0.112671
      9          6           0      -12.222332    2.189645    0.693789
     10          6           0       12.009141   -2.737023   -0.433539
     11          6           0      -11.021391    1.222304    0.794001
     12          6           0       10.901781   -1.660502   -0.644677
     13          6           0      -11.651652   -0.681895   -2.090437
     14          6           0      -12.386600   -2.197889   -0.124352
     15          6           0       13.042169    1.009805    0.258513
     16          6           0       11.405494    0.542609    2.123514
     17          6           0       -9.858368   -0.871138    0.502172
     18          6           0        9.881577    0.554101   -0.304345
     19          6           0      -10.124639    1.802682    1.863581
     20          6           0        9.900283   -2.223913   -1.609926
     21          6           0       -8.560303   -0.378822    0.411526
     22          6           0        8.621682    0.378075   -0.355083
     23          6           0       -7.347042   -1.271513    0.413852
     24          6           0        7.535924    1.455953   -0.538896
     25          6           0       -7.519445   -2.719508    0.785802
     26          6           0        7.852997    2.893693   -0.619902
     27          6           0       -6.154112   -0.690129    0.195845
     28          6           0        6.262690    1.015593   -0.537728
     29          6           0       -4.847104   -1.334524    0.255791
     30          6           0        4.954400    1.827327   -0.463391
     31          6           0       -3.716889   -0.723155    0.012637
     32          6           0        3.751420    1.236588   -0.341957
     33          6           0       -2.319666   -1.332677    0.109532
     34          6           0        2.472917    1.943334   -0.380270
     35          6           0       -2.173449   -2.841788    0.255943
     36          6           0        2.487510    3.484452   -0.540686
     37          6           0       -1.235950   -0.572509    0.038189
     38          6           0        1.293594    1.168671   -0.264272
     39          6           0       -1.208760    0.941002   -0.150609
     40          6           0       -0.029639    1.660480   -0.257771
     41          1           0      -14.013205   -0.126523    0.394967
     42          1           0      -13.966507   -0.124264   -1.585806
     43          1           0       12.409513   -1.860044    1.899960
     44          1           0       13.736787   -0.934512    1.805826
     45          1           0      -13.943895    2.250790   -0.614417
     46          1           0      -12.333130    1.883034   -1.392289
     47          1           0       13.824165   -2.896526    0.529301
     48          1           0       13.948782   -1.611955   -0.565061
     49          1           0      -12.743128    2.177164    1.598584
     50          1           0      -11.657718    3.136257    0.501275
     51          1           0       11.497457   -3.533735    0.118587
     52          1           0       12.340598   -3.339670   -1.391401
     53          1           0      -11.189143    0.266182   -2.382445
     54          1           0      -12.493999   -0.755738   -2.871403
     55          1           0      -10.801123   -1.474820   -2.247112
     56          1           0      -12.701365   -2.183075    1.033618
     57          1           0      -11.614662   -2.826955   -0.394858
     58          1           0      -13.170710   -2.238230   -0.656548
     59          1           0       13.586568    0.645975   -0.570524
     60          1           0       13.790830    1.423397    0.995335
     61          1           0       12.316543    1.878856   -0.380279
     62          1           0       10.789193   -0.251635    2.695744
     63          1           0       10.692214    1.454887    1.955751
     64          1           0       12.306672    0.617221    2.760505
     65          1           0      -10.090761   -2.033422    0.560812
     66          1           0       10.363700    1.764974   -0.451543
     67          1           0       -9.298157    0.978992    2.128741
     68          1           0      -10.553047    1.998103    2.788746
     69          1           0       -9.645799    2.751976    1.483585
     70          1           0        9.396855   -1.407062   -2.090567
     71          1           0        9.024281   -2.969484   -1.156281
     72          1           0       10.257330   -2.808296   -2.526020
     73          1           0       -8.322281    0.635320    0.234873
     74          1           0        8.256717   -0.598916   -0.048257
     75          1           0       -7.946324   -2.700279    1.993752
     76          1           0       -6.539496   -3.398781    0.618626
     77          1           0       -8.202536   -3.349637    0.216822
     78          1           0        8.641006    3.037186   -1.405024
     79          1           0        8.526011    3.276181    0.251099
     80          1           0        7.088470    3.596196   -0.714462
     81          1           0       -5.986836    0.355354    0.121011
     82          1           0        6.324512    0.020661   -0.417600
     83          1           0       -4.857283   -2.367321    0.415267
     84          1           0        5.120518    3.020692   -0.573094
     85          1           0       -3.871307    0.363587    0.064985
     86          1           0        3.832144    0.069119   -0.318059
     87          1           0       -2.817597   -3.400624    1.142328
     88          1           0       -1.183297   -3.195612    0.359441
     89          1           0       -2.743585   -3.522479   -0.680147
     90          1           0        3.191668    3.736396   -1.190907
     91          1           0        2.748005    4.062957    0.520823
     92          1           0        1.439541    4.032127   -0.828450
     93          1           0       -0.192665   -1.081951    0.081845
     94          1           0        1.566052    0.138297   -0.142980
     95          1           0       -2.196988    1.361110   -0.310963
     96          1           0       -0.031599    2.900608   -0.341847
 ---------------------------------------------------------------------

 SCF Done:  E(RB3LYP) =  -1557.52336509     A.U. after   14 cycles

 Excitation energies and oscillator strengths:

 Excited State   1:      Singlet-A      2.5901 eV  478.68 nm  f=2.4028  <S**2>=0.000
     147 ->149         0.11458
     148 ->149         0.69452
 This state for optimization and/or second-order correction.
 Total Energy, E(TD-HF/TD-DFT) =  -1557.42817992
 Copying the excited state density for this state as the 1-particle RhoCI density.

 The electronic state is 1-A.
 Alpha  occ. eigenvalues --  -10.21150 -10.20914 -10.20887 -10.20804 -10.20536
 Alpha  occ. eigenvalues --  -10.20484 -10.20448 -10.20289 -10.20147 -10.20040
 Alpha  occ. eigenvalues --  -10.19946 -10.19924 -10.19904 -10.19881 -10.19480
 Alpha  occ. eigenvalues --  -10.19441 -10.19215 -10.19193 -10.18941 -10.18890
 Alpha  occ. eigenvalues --  -10.18827 -10.18636 -10.18625 -10.18500 -10.18419
 Alpha  occ. eigenvalues --  -10.18337 -10.18327 -10.18277 -10.18162 -10.18055
 Alpha  occ. eigenvalues --  -10.17995 -10.17994 -10.17949 -10.17910 -10.17820
 Alpha  occ. eigenvalues --  -10.17520 -10.17392 -10.17000 -10.16759 -10.15133
 Alpha  occ. eigenvalues --   -0.85347  -0.84576  -0.82972  -0.82614  -0.81733
 Alpha  occ. eigenvalues --   -0.80831  -0.79003  -0.78526  -0.77994  -0.77585
 Alpha  occ. eigenvalues --   -0.76706  -0.75116  -0.74028  -0.72439  -0.71597
 Alpha  occ. eigenvalues --   -0.69292  -0.68884  -0.68825  -0.67684  -0.67637
 Alpha  occ. eigenvalues --   -0.67377  -0.67126  -0.66771  -0.65927  -0.65766
 Alpha  occ. eigenvalues --   -0.61600  -0.61075  -0.59876  -0.58884  -0.56897
 Alpha  occ. eigenvalues --   -0.56647  -0.55542  -0.54298  -0.53898  -0.52864
 Alpha  occ. eigenvalues --   -0.52261  -0.51889  -0.50344  -0.49448  -0.49118
 Alpha  occ. eigenvalues --   -0.48622  -0.47449  -0.47286  -0.46630  -0.46053
 Alpha  occ. eigenvalues --   -0.45159  -0.44966  -0.44665  -0.44590  -0.44352
 Alpha  occ. eigenvalues --   -0.43193  -0.42979  -0.42141  -0.41942  -0.41537
 Alpha  occ. eigenvalues --   -0.41150  -0.41086  -0.40993  -0.40666  -0.40353
 Alpha  occ. eigenvalues --   -0.40276  -0.40111  -0.39975  -0.39391  -0.39095
 Alpha  occ. eigenvalues --   -0.38955  -0.38608  -0.38493  -0.38292  -0.38057
 Alpha  occ. eigenvalues --   -0.37534  -0.37364  -0.37272  -0.37075  -0.36919
 Alpha  occ. eigenvalues --   -0.36158  -0.36018  -0.35804  -0.35583  -0.35391
 Alpha  occ. eigenvalues --   -0.35326  -0.34833  -0.34541  -0.33908  -0.33881
 Alpha  occ. eigenvalues --   -0.33569  -0.32985  -0.32910  -0.32604  -0.32556
 Alpha  occ. eigenvalues --   -0.32276  -0.31943  -0.31694  -0.31083  -0.30761
 Alpha  occ. eigenvalues --   -0.30553  -0.30092  -0.29890  -0.28979  -0.28541
 Alpha  occ. eigenvalues --   -0.27145  -0.26913  -0.25856  -0.24773  -0.23417
 Alpha  occ. eigenvalues --   -0.21682  -0.19160  -0.17302
 Alpha virt. eigenvalues --   -0.07077  -0.04405  -0.01401   0.00914   0.02641
 Alpha virt. eigenvalues --    0.04266   0.05297   0.06422   0.06776   0.06862
 Alpha virt. eigenvalues --    0.07281   0.07572   0.07851   0.08224   0.08534

 Mulliken charges:
               1
     1  C   -0.023366
     2  C   -0.009457
     3  C   -0.165040
     4  C   -0.153974
     5  C   -0.176559
     6  C   -0.190546
     7  C    0.119768
     8  C    0.090842
     9  C   -0.207562
    10  C   -0.228033
    11  C    0.010511
    12  C    0.063450
    13  C   -0.296591
    14  C   -0.295590
    15  C   -0.287305
    16  C   -0.280948
    17  C   -0.149338
    18  C   -0.116445
    19  C   -0.358608
    20  C   -0.369124
    21  C   -0.101081
    22  C   -0.101663
    23  C    0.131268
    24  C    0.133691
    25  C   -0.358384
    26  C   -0.384500
    27  C   -0.131997
    28  C   -0.123659
    29  C   -0.045269
    30  C   -0.091541
    31  C   -0.122458
    32  C   -0.103923
    33  C    0.147241
    34  C    0.099454
    35  C   -0.356674
    36  C   -0.352482
    37  C   -0.142187
    38  C   -0.085061
    39  C   -0.088156
    40  C   -0.097407
    41  H    0.071087
    42  H    0.050823
    43  H    0.098204
    44  H    0.086564
    45  H    0.091092
    46  H    0.111967
    47  H    0.094338
    48  H    0.084392
    49  H    0.117452
    50  H    0.094346
    51  H    0.106775
    52  H    0.083078
    53  H    0.112101
    54  H    0.094627
    55  H    0.090631
    56  H    0.087247
    57  H    0.111131
    58  H    0.118715
    59  H    0.119230
    60  H    0.101389
    61  H    0.051365
    62  H    0.088779
    63  H    0.096342
    64  H    0.093231
    65  H    0.082112
    66  H    0.053422
    67  H    0.092997
    68  H    0.116960
    69  H    0.098587
    70  H    0.122844
    71  H    0.079988
    72  H    0.100738
    73  H    0.096280
    74  H    0.096260
    75  H    0.094730
    76  H    0.091174
    77  H    0.121459
    78  H    0.114798
    79  H    0.103946
    80  H    0.117563
    81  H    0.068804
    82  H    0.060064
    83  H    0.064688
    84  H    0.074234
    85  H    0.073967
    86  H    0.087561
    87  H    0.092469
    88  H    0.120934
    89  H    0.077687
    90  H    0.134748
    91  H    0.096863
    92  H    0.095483
    93  H    0.076277
    94  H    0.077957
    95  H    0.091985
    96  H    0.066220
 Sum of Mulliken charges =  -0.00000

 Dipole moment (field-independent basis, Debye):
    X=              0.1128    Y=             -0.3764    Z=              0.1967  Tot=              0.4394
 Quadrupole moment (field-independent basis, Debye-Ang):
   XX=           -211.6940   YY=           -233.9509   ZZ=           -256.5946
   XY=             -5.8868   XZ=              1.4506   YZ=             -2.1347

 Normal termination of Gaussian 16 at Sun Jul 28 19:12:06 2019.
