 Gaussian 16, Revision A.03,
 Gaussian 16:  ES64L-G16RevA.03 25-Dec-2016

 ---------------------------------
 # td=(NStates=1) B3LYP/6-31G(d,p)
 ---------------------------------

 --
 TD
 --
 Symbolic Z-matrix:
 Charge =  0 Multiplicity = 1

                         Standard orientation:
 ---------------------------------------------------------------------
 Center     Atomic      Atomic             Coordinates (Angstroms)
 Number     Number       Type             X           Y           Z
 ---------------------------------------------------------------------
      1          6           0      -12.159424   -0.551660   -0.726450
      2          6           0       12.081185    0.039706    0.979413
      3          6           0      -13.485614    0.348914   -0.578972
      4          6           0       13.099704   -1.090580    1.241102
      5          6           0      -13.144691    1.788877   -0.680226
      6          6           0       13.468850   -1.964270    0.072718
      7          6           0      -11.059011   -0.070408    0.151676
      8          6           0       10.995488   -0.451036   -0.069842
      9          6           0      -12.247215    2.161815    0.552755
     10          6           0       12.141419   -2.686241   -0.524601
     11          6           0      -11.087800    1.103691    0.864443
     12          6           0       11.134385   -1.593220   -0.865168
     13          6           0      -11.713318   -0.406788   -2.167270
     14          6           0      -12.524620   -1.971925   -0.355700
     15          6           0       12.935150    1.174453    0.220774
     16          6           0       11.380692    0.500255    2.207750
     17          6           0       -9.846239   -0.911434    0.358154
     18          6           0        9.826600    0.506832   -0.320424
     19          6           0      -10.177555    1.692532    1.920830
     20          6           0       10.118785   -1.965272   -1.983355
     21          6           0       -8.535899   -0.539719    0.365068
     22          6           0        8.503297    0.315620   -0.478672
     23          6           0       -7.384283   -1.342365    0.352871
     24          6           0        7.453569    1.277511   -0.529918
     25          6           0       -7.505158   -2.928213    0.684622
     26          6           0        7.890961    2.759841   -0.663385
     27          6           0       -6.127962   -0.767699    0.335712
     28          6           0        6.235861    0.881114   -0.313950
     29          6           0       -4.876035   -1.465496    0.324339
     30          6           0        4.986425    1.695890   -0.333928
     31          6           0       -3.666047   -0.769807    0.230203
     32          6           0        3.777417    1.136798   -0.137667
     33          6           0       -2.334908   -1.307630    0.300768
     34          6           0        2.484928    1.814658   -0.260236
     35          6           0       -2.157701   -2.720534    0.562972
     36          6           0        2.618886    3.310135   -0.656653
     37          6           0       -1.266269   -0.537597    0.193007
     38          6           0        1.332014    1.152782   -0.198861
     39          6           0       -1.151910    0.851961   -0.045425
     40          6           0       -0.019580    1.692968   -0.152346
     41          1           0      -14.019357    0.099726    0.432546
     42          1           0      -14.130780    0.032468   -1.425580
     43          1           0       12.717580   -1.884651    2.097574
     44          1           0       13.966421   -0.535198    1.749370
     45          1           0      -14.109455    2.338071   -0.483438
     46          1           0      -12.639582    1.970635   -1.644768
     47          1           0       14.176695   -2.780083    0.512044
     48          1           0       13.873023   -1.372214   -0.697835
     49          1           0      -12.861896    2.549767    1.515014
     50          1           0      -11.650500    3.005262    0.281100
     51          1           0       11.668137   -3.353482    0.227033
     52          1           0       12.465864   -3.127887   -1.410800
     53          1           0      -12.095858    0.717193   -2.593058
     54          1           0      -12.311644   -1.239122   -2.751444
     55          1           0      -10.619690   -0.626861   -2.342717
     56          1           0      -12.493645   -2.138462    0.746641
     57          1           0      -11.834286   -2.702589   -0.840158
     58          1           0      -13.561563   -1.915158   -0.850087
     59          1           0       13.303021    0.844659   -0.823957
     60          1           0       13.631775    1.282261    0.914356
     61          1           0       12.201613    2.157631   -0.044450
     62          1           0       10.951096   -0.280064    2.679142
     63          1           0       10.473664    1.071052    1.785060
     64          1           0       12.176927    1.195279    2.796352
     65          1           0      -10.125367   -1.984319    0.441668
     66          1           0        9.903663    1.627188   -0.313466
     67          1           0       -9.510497    0.811925    2.132808
     68          1           0      -10.881405    1.800245    3.005066
     69          1           0       -9.549944    2.701887    1.693820
     70          1           0        9.267528   -1.366111   -2.303791
     71          1           0        9.656964   -2.915937   -1.637815
     72          1           0       10.605398   -2.436893   -2.728657
     73          1           0       -8.098449    0.495067    0.324674
     74          1           0        8.029228   -0.753823   -0.457690
     75          1           0       -8.238894   -3.143973    1.608013
     76          1           0       -6.584872   -3.383543    1.119945
     77          1           0       -7.728740   -3.539630   -0.247904
     78          1           0        8.614125    3.055082   -1.427840
     79          1           0        8.366337    3.245513    0.362748
     80          1           0        7.130836    3.477330   -0.838604
     81          1           0       -6.186107    0.302800    0.047662
     82          1           0        6.061750   -0.214499   -0.315627
     83          1           0       -4.961174   -2.454931    0.651003
     84          1           0        5.028038    2.886373   -0.359739
     85          1           0       -3.724143    0.366119    0.174843
     86          1           0        3.653125    0.069570    0.097645
     87          1           0       -2.485658   -2.959598    1.683466
     88          1           0       -1.119333   -3.185894    0.611869
     89          1           0       -2.761838   -3.374903   -0.024068
     90          1           0        2.953601    3.306490   -1.637322
     91          1           0        3.038216    4.128286   -0.011886
     92          1           0        1.633571    3.810633   -0.663409
     93          1           0       -0.147734   -0.892202    0.178703
     94          1           0        1.555673   -0.043717   -0.041946
     95          1           0       -2.179143    1.599512    0.000834
     96          1           0       -0.458580    2.670984   -0.209702
 ---------------------------------------------------------------------

 SCF Done:  E(RB3LYP) =  -1557.58153330     A.U. after   15 cycles

 Excitation energies and oscillator strengths:

 Excited State   1:      Singlet-A      2.2803 eV  543.72 nm  f=2.8943  <S**2>=0.000
     148 ->149         0.70262
 This state for optimization and/or second-order correction.
 Total Energy, E(TD-HF/TD-DFT) =  -1557.49773351
 Copying the excited state density for this state as the 1-particle RhoCI density.

 The electronic state is 1-A.
 Alpha  occ. eigenvalues --  -10.20590 -10.20488 -10.20482 -10.20261 -10.20196
 Alpha  occ. eigenvalues --  -10.20052 -10.20022 -10.20012 -10.19914 -10.19776
 Alpha  occ. eigenvalues --  -10.19734 -10.19657 -10.19637 -10.19622 -10.19466
 Alpha  occ. eigenvalues --  -10.19333 -10.19299 -10.19263 -10.19209 -10.19171
 Alpha  occ. eigenvalues --  -10.19096 -10.19043 -10.19036 -10.18975 -10.18857
 Alpha  occ. eigenvalues --  -10.18838 -10.18759 -10.18711 -10.18702 -10.18672
 Alpha  occ. eigenvalues --  -10.18657 -10.18607 -10.18545 -10.18520 -10.18465
 Alpha  occ. eigenvalues --  -10.18388 -10.18118 -10.18043 -10.17367 -10.16826
 Alpha  occ. eigenvalues --   -0.85121  -0.84092  -0.83961  -0.83233  -0.82308
 Alpha  occ. eigenvalues --   -0.81897  -0.78524  -0.78063  -0.77741  -0.77241
 Alpha  occ. eigenvalues --   -0.76282  -0.75074  -0.74100  -0.71855  -0.71048
 Alpha  occ. eigenvalues --   -0.70087  -0.68887  -0.68395  -0.67943  -0.67708
 Alpha  occ. eigenvalues --   -0.67537  -0.67396  -0.66713  -0.66089  -0.65516
 Alpha  occ. eigenvalues --   -0.62993  -0.61417  -0.59270  -0.58577  -0.56842
 Alpha  occ. eigenvalues --   -0.55735  -0.55214  -0.54757  -0.54054  -0.52626
 Alpha  occ. eigenvalues --   -0.52053  -0.51511  -0.49718  -0.49416  -0.48911
 Alpha  occ. eigenvalues --   -0.48237  -0.47584  -0.47091  -0.46462  -0.46096
 Alpha  occ. eigenvalues --   -0.45434  -0.45198  -0.44809  -0.44102  -0.43887
 Alpha  occ. eigenvalues --   -0.43131  -0.43014  -0.42601  -0.41877  -0.41751
 Alpha  occ. eigenvalues --   -0.41486  -0.41198  -0.40988  -0.40801  -0.40712
 Alpha  occ. eigenvalues --   -0.40340  -0.40305  -0.39586  -0.39207  -0.39107
 Alpha  occ. eigenvalues --   -0.38856  -0.38584  -0.38094  -0.37952  -0.37822
 Alpha  occ. eigenvalues --   -0.37421  -0.37342  -0.37015  -0.36757  -0.36279
 Alpha  occ. eigenvalues --   -0.36113  -0.35524  -0.35387  -0.35081  -0.34929
 Alpha  occ. eigenvalues --   -0.34657  -0.34570  -0.34332  -0.34120  -0.33569
 Alpha  occ. eigenvalues --   -0.33247  -0.33184  -0.33051  -0.32790  -0.32506
 Alpha  occ. eigenvalues --   -0.32265  -0.31874  -0.31640  -0.31317  -0.31017
 Alpha  occ. eigenvalues --   -0.30782  -0.30360  -0.30336  -0.29555  -0.28368
 Alpha  occ. eigenvalues --   -0.28172  -0.27025  -0.26691  -0.24194  -0.22828
 Alpha  occ. eigenvalues --   -0.20944  -0.19006  -0.16921
 Alpha virt. eigenvalues --   -0.08171  -0.04990  -0.01908   0.00834   0.02510
 Alpha virt. eigenvalues --    0.04234   0.05135   0.05848   0.06857   0.06981
 Alpha virt. eigenvalues --    0.07642   0.08215   0.08562   0.08682   0.08900

 Mulliken charges:
               1
     1  C    0.000897
     2  C   -0.003075
     3  C   -0.172631
     4  C   -0.153063
     5  C   -0.190656
     6  C   -0.183598
     7  C    0.093718
     8  C    0.058154
     9  C   -0.211454
    10  C   -0.219731
    11  C    0.054240
    12  C    0.032577
    13  C   -0.282718
    14  C   -0.304237
    15  C   -0.278318
    16  C   -0.278224
    17  C   -0.172773
    18  C   -0.153761
    19  C   -0.338136
    20  C   -0.356344
    21  C   -0.074790
    22  C   -0.098871
    23  C    0.122644
    24  C    0.179886
    25  C   -0.374022
    26  C   -0.391874
    27  C   -0.136228
    28  C   -0.151782
    29  C   -0.073981
    30  C   -0.093188
    31  C   -0.118829
    32  C   -0.100439
    33  C    0.173465
    34  C    0.139305
    35  C   -0.386837
    36  C   -0.391038
    37  C   -0.137865
    38  C   -0.141598
    39  C   -0.086801
    40  C   -0.082341
    41  H    0.084414
    42  H    0.087147
    43  H    0.055541
    44  H    0.072649
    45  H    0.091777
    46  H    0.100409
    47  H    0.081636
    48  H    0.107507
    49  H    0.074907
    50  H    0.107732
    51  H    0.116156
    52  H    0.104636
    53  H    0.075180
    54  H    0.078622
    55  H    0.114313
    56  H    0.108962
    57  H    0.101996
    58  H    0.097298
    59  H    0.103412
    60  H    0.110632
    61  H    0.074681
    62  H    0.119411
    63  H    0.099732
    64  H    0.071664
    65  H    0.086369
    66  H    0.078411
    67  H    0.116999
    68  H    0.070947
    69  H    0.102584
    70  H    0.125558
    71  H    0.099206
    72  H    0.109253
    73  H    0.079098
    74  H    0.057806
    75  H    0.099155
    76  H    0.109278
    77  H    0.117390
    78  H    0.125447
    79  H    0.093749
    80  H    0.113238
    81  H    0.073780
    82  H    0.080730
    83  H    0.083540
    84  H    0.089077
    85  H    0.083344
    86  H    0.069946
    87  H    0.100199
    88  H    0.108828
    89  H    0.123796
    90  H    0.142356
    91  H    0.113589
    92  H    0.098121
    93  H    0.075545
    94  H    0.076125
    95  H    0.041169
    96  H    0.099268
 Sum of Mulliken charges =  -0.00000

 Dipole moment (field-independent basis, Debye):
    X=              0.0248    Y=             -0.4459    Z=             -0.2885  Tot=              0.5317
 Quadrupole moment (field-independent basis, Debye-Ang):
   XX=           -233.4901   YY=           -233.2692   ZZ=           -257.2385
   XY=             -1.9417   XZ=             -2.6814   YZ=             -2.1846

 Normal termination of Gaussian 16 at Wed Jul 31 15:53:22 2019.
