 Gaussian 16, Revision A.03,
 Gaussian 16:  ES64L-G16RevA.03 25-Dec-2016

 ---------------------------------
 # td=(NStates=1) B3LYP/6-31G(d,p)
 ---------------------------------

 --
 TD
 --
 Symbolic Z-matrix:
 Charge =  0 Multiplicity = 1

                         Standard orientation:
 ---------------------------------------------------------------------
 Center     Atomic      Atomic             Coordinates (Angstroms)
 Number     Number       Type             X           Y           Z
 ---------------------------------------------------------------------
      1          6           0       12.140758    0.448704   -0.654384
      2          6           0      -12.159097   -0.072266    0.836548
      3          6           0       13.455775   -0.397034   -0.548462
      4          6           0      -12.942789    1.102113    1.361100
      5          6           0       13.076129   -1.881676   -0.409073
      6          6           0      -13.298106    2.089911    0.207900
      7          6           0       10.982065   -0.032740    0.302596
      8          6           0      -11.013969    0.355306   -0.175493
      9          6           0       12.238024   -2.089333    0.841948
     10          6           0      -11.986054    2.637118   -0.516698
     11          6           0       11.030586   -1.197041    0.975361
     12          6           0      -10.979287    1.652253   -0.782862
     13          6           0       11.629452    0.464356   -2.165220
     14          6           0       12.559442    1.935974   -0.397067
     15          6           0      -13.117501   -1.069853    0.278732
     16          6           0      -11.614285   -0.693226    2.171477
     17          6           0        9.814668    0.871972    0.418178
     18          6           0      -10.010280   -0.604411   -0.202313
     19          6           0       10.064919   -1.660528    2.039698
     20          6           0       -9.903256    2.061631   -1.770153
     21          6           0        8.529574    0.564375    0.273713
     22          6           0       -8.621069   -0.403405   -0.115659
     23          6           0        7.399127    1.424844    0.436839
     24          6           0       -7.521638   -1.279699   -0.374097
     25          6           0        7.620882    2.921404    0.741783
     26          6           0       -7.911813   -2.771062   -0.709882
     27          6           0        6.149365    0.829206    0.229820
     28          6           0       -6.278475   -0.760318   -0.292696
     29          6           0        4.825150    1.465893    0.215825
     30          6           0       -5.018154   -1.497057   -0.483794
     31          6           0        3.737580    0.770738    0.079043
     32          6           0       -3.717899   -1.074613   -0.361760
     33          6           0        2.442982    1.299583    0.215568
     34          6           0       -2.402933   -1.867776   -0.508016
     35          6           0        2.309642    2.781725    0.399878
     36          6           0       -2.549061   -3.351690   -0.717325
     37          6           0        1.259917    0.524995    0.076989
     38          6           0       -1.290295   -1.185388   -0.232746
     39          6           0        1.241111   -0.871887   -0.360203
     40          6           0        0.096403   -1.711523   -0.408676
     41          1           0       14.141828    0.006285    0.253564
     42          1           0       13.909362   -0.215456   -1.564934
     43          1           0      -12.410805    1.700028    2.193765
     44          1           0      -13.865102    0.885719    1.917770
     45          1           0       13.855047   -2.688766   -0.471306
     46          1           0       12.622857   -2.046104   -1.279610
     47          1           0      -13.994071    2.896054    0.535755
     48          1           0      -13.885720    1.525356   -0.360802
     49          1           0       12.862681   -2.065000    1.774139
     50          1           0       11.920908   -3.106400    0.746238
     51          1           0      -11.706157    3.461649    0.082201
     52          1           0      -12.303831    3.133236   -1.513317
     53          1           0       11.484879   -0.436765   -2.472561
     54          1           0       12.288515    0.859701   -2.928456
     55          1           0       10.471135    0.955688   -2.364463
     56          1           0       12.844547    2.272509    0.639570
     57          1           0       11.640505    2.563902   -0.846954
     58          1           0       13.504638    2.329048   -1.062787
     59          1           0      -13.810954   -0.620938   -0.374883
     60          1           0      -13.829787   -1.455751    0.927275
     61          1           0      -12.614630   -1.964885   -0.340660
     62          1           0      -10.720931   -0.018688    2.605966
     63          1           0      -11.049910   -1.677915    1.967890
     64          1           0      -12.621817   -0.610691    2.765664
     65          1           0       10.121492    1.875472    0.816738
     66          1           0      -10.240107   -1.499423   -0.699071
     67          1           0        9.368456   -0.837001    2.582440
     68          1           0       10.591642   -1.990779    2.963152
     69          1           0        9.517895   -2.576821    1.904320
     70          1           0       -9.328145    1.241863   -1.965107
     71          1           0       -9.343742    2.679990   -1.041717
     72          1           0      -10.366584    2.307414   -2.582214
     73          1           0        8.407766   -0.478039   -0.018419
     74          1           0       -8.329477    0.616723    0.360201
     75          1           0        8.099031    3.146631    1.601111
     76          1           0        6.608262    3.331496    0.645223
     77          1           0        8.250376    3.264992    0.077089
     78          1           0       -8.625213   -2.900257   -1.450838
     79          1           0       -8.340486   -3.190934    0.104446
     80          1           0       -6.898354   -3.317981   -0.831659
     81          1           0        6.176605   -0.244298   -0.053136
     82          1           0       -6.070065    0.258893    0.070202
     83          1           0        4.830174    2.469766    0.362779
     84          1           0       -5.089915   -2.480816   -0.721589
     85          1           0        4.022074   -0.304437   -0.208720
     86          1           0       -3.674447    0.046422   -0.451561
     87          1           0        2.704805    2.844180    1.514688
     88          1           0        1.167659    3.052015    0.377939
     89          1           0        2.873154    3.330015   -0.399978
     90          1           0       -3.018064   -3.497889   -1.756815
     91          1           0       -3.270972   -4.015441    0.010781
     92          1           0       -1.561188   -3.875925   -0.636151
     93          1           0        0.343847    0.982827    0.310849
     94          1           0       -1.664359   -0.129983   -0.076914
     95          1           0        2.188724   -1.457882   -0.495376
     96          1           0        0.210433   -2.710072   -0.640265
 ---------------------------------------------------------------------

 SCF Done:  E(RB3LYP) =  -1557.60043923     A.U. after   15 cycles

 Excitation energies and oscillator strengths:

 Excited State   1:      Singlet-A      2.3494 eV  527.72 nm  f=2.7723  <S**2>=0.000
     148 ->149         0.70437
 This state for optimization and/or second-order correction.
 Total Energy, E(TD-HF/TD-DFT) =  -1557.51409864
 Copying the excited state density for this state as the 1-particle RhoCI density.

 The electronic state is 1-A.
 Alpha  occ. eigenvalues --  -10.21199 -10.20296 -10.20287 -10.20245 -10.20192
 Alpha  occ. eigenvalues --  -10.20147 -10.20125 -10.19943 -10.19546 -10.19529
 Alpha  occ. eigenvalues --  -10.19337 -10.19298 -10.19262 -10.19230 -10.19227
 Alpha  occ. eigenvalues --  -10.19129 -10.19083 -10.19077 -10.19058 -10.18847
 Alpha  occ. eigenvalues --  -10.18578 -10.18572 -10.18483 -10.18321 -10.18268
 Alpha  occ. eigenvalues --  -10.18257 -10.18095 -10.18003 -10.17966 -10.17962
 Alpha  occ. eigenvalues --  -10.17733 -10.17711 -10.17624 -10.17614 -10.17349
 Alpha  occ. eigenvalues --  -10.17045 -10.16912 -10.16703 -10.16622 -10.15578
 Alpha  occ. eigenvalues --   -0.84651  -0.84546  -0.83904  -0.82538  -0.81760
 Alpha  occ. eigenvalues --   -0.81354  -0.79466  -0.78312  -0.77867  -0.77367
 Alpha  occ. eigenvalues --   -0.76568  -0.75275  -0.73989  -0.72591  -0.72445
 Alpha  occ. eigenvalues --   -0.69767  -0.69463  -0.68954  -0.68191  -0.67759
 Alpha  occ. eigenvalues --   -0.67491  -0.67397  -0.66664  -0.66181  -0.65495
 Alpha  occ. eigenvalues --   -0.62608  -0.61611  -0.59898  -0.59003  -0.57089
 Alpha  occ. eigenvalues --   -0.56583  -0.55484  -0.55195  -0.54364  -0.53766
 Alpha  occ. eigenvalues --   -0.52805  -0.51912  -0.50650  -0.49955  -0.49006
 Alpha  occ. eigenvalues --   -0.47697  -0.47524  -0.47075  -0.46352  -0.46266
 Alpha  occ. eigenvalues --   -0.45901  -0.45609  -0.45032  -0.44540  -0.43798
 Alpha  occ. eigenvalues --   -0.43690  -0.43184  -0.42901  -0.42446  -0.42237
 Alpha  occ. eigenvalues --   -0.41894  -0.41778  -0.41692  -0.41371  -0.41229
 Alpha  occ. eigenvalues --   -0.40929  -0.40129  -0.39976  -0.39666  -0.39403
 Alpha  occ. eigenvalues --   -0.39100  -0.38896  -0.38714  -0.38408  -0.38143
 Alpha  occ. eigenvalues --   -0.37889  -0.37583  -0.36786  -0.36562  -0.36533
 Alpha  occ. eigenvalues --   -0.36143  -0.35929  -0.35706  -0.35413  -0.35115
 Alpha  occ. eigenvalues --   -0.34960  -0.34819  -0.34351  -0.34161  -0.34056
 Alpha  occ. eigenvalues --   -0.33192  -0.33090  -0.32859  -0.32679  -0.32288
 Alpha  occ. eigenvalues --   -0.32118  -0.31926  -0.31807  -0.31487  -0.31334
 Alpha  occ. eigenvalues --   -0.30639  -0.30318  -0.29973  -0.28994  -0.28532
 Alpha  occ. eigenvalues --   -0.28306  -0.27561  -0.25638  -0.23881  -0.22408
 Alpha  occ. eigenvalues --   -0.20978  -0.18817  -0.16772
 Alpha virt. eigenvalues --   -0.07611  -0.05015  -0.01837   0.00899   0.02367
 Alpha virt. eigenvalues --    0.03591   0.05877   0.07171   0.07820   0.07937
 Alpha virt. eigenvalues --    0.08136   0.08876   0.09136   0.09380   0.09578

 Mulliken charges:
               1
     1  C    0.006436
     2  C    0.010186
     3  C   -0.181886
     4  C   -0.193784
     5  C   -0.185287
     6  C   -0.198740
     7  C    0.048610
     8  C    0.053301
     9  C   -0.222084
    10  C   -0.219109
    11  C    0.089818
    12  C    0.029035
    13  C   -0.301585
    14  C   -0.292878
    15  C   -0.287339
    16  C   -0.267825
    17  C   -0.148786
    18  C   -0.149961
    19  C   -0.376411
    20  C   -0.324756
    21  C   -0.068616
    22  C   -0.104585
    23  C    0.090266
    24  C    0.120811
    25  C   -0.361907
    26  C   -0.373615
    27  C   -0.143654
    28  C   -0.123389
    29  C   -0.062384
    30  C   -0.079196
    31  C   -0.071984
    32  C   -0.143287
    33  C    0.074139
    34  C    0.125200
    35  C   -0.356190
    36  C   -0.368056
    37  C   -0.116668
    38  C   -0.097149
    39  C   -0.080140
    40  C   -0.119330
    41  H    0.089321
    42  H    0.085118
    43  H    0.078509
    44  H    0.085905
    45  H    0.075714
    46  H    0.111865
    47  H    0.075011
    48  H    0.111674
    49  H    0.103309
    50  H    0.100497
    51  H    0.120489
    52  H    0.079434
    53  H    0.116065
    54  H    0.103413
    55  H    0.070786
    56  H    0.097287
    57  H    0.085781
    58  H    0.076110
    59  H    0.101013
    60  H    0.104361
    61  H    0.075894
    62  H    0.080925
    63  H    0.089936
    64  H    0.087564
    65  H    0.079181
    66  H    0.081244
    67  H    0.102376
    68  H    0.102710
    69  H    0.118878
    70  H    0.124852
    71  H    0.121364
    72  H    0.115914
    73  H    0.077480
    74  H    0.063080
    75  H    0.129191
    76  H    0.103652
    77  H    0.135795
    78  H    0.129057
    79  H    0.140718
    80  H    0.098848
    81  H    0.072594
    82  H    0.079992
    83  H    0.073583
    84  H    0.062475
    85  H    0.076771
    86  H    0.070656
    87  H    0.114635
    88  H    0.099104
    89  H    0.128032
    90  H    0.116403
    91  H    0.103543
    92  H    0.107718
    93  H    0.082591
    94  H    0.084098
    95  H    0.082246
    96  H    0.088017
 Sum of Mulliken charges =  -0.00000

 Dipole moment (field-independent basis, Debye):
    X=              0.9442    Y=             -0.0670    Z=             -0.3910  Tot=              1.0242
 Quadrupole moment (field-independent basis, Debye-Ang):
   XX=           -221.0181   YY=           -234.0748   ZZ=           -253.9602
   XY=             -6.6342   XZ=              5.5857   YZ=              4.0380

 Normal termination of Gaussian 16 at Thu Aug  1 19:49:56 2019.
