 Gaussian 16, Revision A.03,
 Gaussian 16:  ES64L-G16RevA.03 25-Dec-2016

 ---------------------------------
 # td=(NStates=1) B3LYP/6-31G(d,p)
 ---------------------------------

 --
 TD
 --
 Symbolic Z-matrix:
 Charge =  0 Multiplicity = 1

                         Standard orientation:
 ---------------------------------------------------------------------
 Center     Atomic      Atomic             Coordinates (Angstroms)
 Number     Number       Type             X           Y           Z
 ---------------------------------------------------------------------
      1          6           0       12.111351   -0.613613    0.795955
      2          6           0      -12.149976   -0.068858   -0.786290
      3          6           0       13.422377    0.230456    0.603550
      4          6           0      -13.086842   -1.235516   -1.157546
      5          6           0       13.269370    1.792120    0.546099
      6          6           0      -13.325213   -2.143687   -0.015896
      7          6           0       10.966058   -0.108725   -0.209013
      8          6           0      -11.005669   -0.492692    0.129831
      9          6           0       12.323971    2.051959   -0.631052
     10          6           0      -12.028703   -2.635362    0.641418
     11          6           0       11.095480    1.182592   -0.753734
     12          6           0      -10.979133   -1.682501    0.830457
     13          6           0       11.571265   -0.501929    2.198483
     14          6           0       12.588578   -2.061037    0.342298
     15          6           0      -12.975043    1.081165    0.003563
     16          6           0      -11.621867    0.495613   -2.099413
     17          6           0        9.870290   -0.962784   -0.346157
     18          6           0       -9.868561    0.526795    0.143244
     19          6           0       10.101572    1.673429   -1.715705
     20          6           0       -9.965313   -2.114240    1.825913
     21          6           0        8.547375   -0.539096   -0.181391
     22          6           0       -8.517932    0.338250    0.304916
     23          6           0        7.374010   -1.492711   -0.437775
     24          6           0       -7.472966    1.411980    0.375703
     25          6           0        7.576489   -2.856628   -0.679819
     26          6           0       -7.980355    2.792376    0.718696
     27          6           0        6.163084   -0.880268   -0.397298
     28          6           0       -6.217528    0.964787    0.196752
     29          6           0        4.842644   -1.371700   -0.558798
     30          6           0       -4.983376    1.777401    0.285663
     31          6           0        3.741135   -0.614115   -0.292424
     32          6           0       -3.756476    1.199932    0.209586
     33          6           0        2.397099   -1.140185   -0.404283
     34          6           0       -2.514776    1.926297    0.267707
     35          6           0        2.169556   -2.638992   -0.632893
     36          6           0       -2.591293    3.420731    0.510868
     37          6           0        1.251703   -0.393146   -0.236072
     38          6           0       -1.309025    1.336239    0.160550
     39          6           0        1.142006    0.984388    0.027591
     40          6           0        0.002215    1.835093    0.222085
     41          1           0       13.932137   -0.146289   -0.286831
     42          1           0       14.132972   -0.181242    1.425968
     43          1           0      -12.475636   -1.788555   -2.047985
     44          1           0      -14.040307   -0.777823   -1.679688
     45          1           0       14.162573    2.299899    0.695837
     46          1           0       12.924836    2.191738    1.485312
     47          1           0      -13.896371   -3.197912   -0.319186
     48          1           0      -14.037120   -1.628605    0.590020
     49          1           0       12.921222    2.011353   -1.446876
     50          1           0       11.999042    3.170285   -0.729455
     51          1           0      -11.604818   -3.471177   -0.077048
     52          1           0      -12.172245   -3.068527    1.639288
     53          1           0       11.301435    0.607051    2.682591
     54          1           0       12.274621   -1.047644    2.844237
     55          1           0       10.578201   -1.194641    2.219797
     56          1           0       12.581461   -2.258641   -0.743968
     57          1           0       11.917203   -2.850392    0.787436
     58          1           0       13.676908   -2.293855    0.886221
     59          1           0      -13.443329    0.468264    0.851370
     60          1           0      -13.707325    1.251486   -0.678607
     61          1           0      -12.167037    1.930054    0.369242
     62          1           0      -10.919842   -0.350960   -2.487841
     63          1           0      -11.043564    1.449721   -2.040787
     64          1           0      -12.347186    0.496217   -2.959832
     65          1           0        9.989968   -1.898098   -0.614352
     66          1           0      -10.173959    1.527478    0.277662
     67          1           0        9.552730    0.799393   -1.937260
     68          1           0       10.429194    2.140257   -2.536430
     69          1           0        9.364554    2.598938   -1.275588
     70          1           0       -9.134573   -1.533979    2.040030
     71          1           0       -9.383727   -2.937141    1.252599
     72          1           0      -10.344756   -2.514965    2.709579
     73          1           0        8.202416    0.353594    0.148952
     74          1           0       -8.140423   -0.686357    0.248645
     75          1           0        8.003016   -2.810790   -1.811913
     76          1           0        6.497396   -3.292321   -0.583467
     77          1           0        8.242837   -3.103663    0.181455
     78          1           0       -8.666346    2.729861    1.400892
     79          1           0       -8.419288    3.235739   -0.261361
     80          1           0       -7.162274    3.510033    1.186784
     81          1           0        6.050961    0.173128    0.027306
     82          1           0       -5.898211   -0.024362    0.056820
     83          1           0        4.660084   -2.417766   -0.489194
     84          1           0       -5.039696    2.833809    0.380556
     85          1           0        3.900058    0.301044    0.144692
     86          1           0       -3.727315    0.084254    0.201963
     87          1           0        2.117610   -2.921966   -1.861398
     88          1           0        1.115857   -2.756225   -0.444667
     89          1           0        2.997991   -3.167455   -0.147524
     90          1           0       -3.086518    3.626683    1.399845
     91          1           0       -3.087999    3.919826   -0.358799
     92          1           0       -1.700862    3.912162    0.495500
     93          1           0        0.229729   -0.934919   -0.182000
     94          1           0       -1.300269    0.166737   -0.162036
     95          1           0        2.123205    1.631263    0.386196
     96          1           0        0.175294    2.993096    0.315063
 ---------------------------------------------------------------------

 SCF Done:  E(RB3LYP) =  -1557.58414785     A.U. after   15 cycles

 Excitation energies and oscillator strengths:

 Excited State   1:      Singlet-A      2.1574 eV  574.70 nm  f=2.9023  <S**2>=0.000
     148 ->149         0.70371
     148 <-149        -0.10644
 This state for optimization and/or second-order correction.
 Total Energy, E(TD-HF/TD-DFT) =  -1557.50486617
 Copying the excited state density for this state as the 1-particle RhoCI density.

 The electronic state is 1-A.
 Alpha  occ. eigenvalues --  -10.20523 -10.20471 -10.20316 -10.20145 -10.20106
 Alpha  occ. eigenvalues --  -10.19956 -10.19782 -10.19628 -10.19597 -10.19569
 Alpha  occ. eigenvalues --  -10.19434 -10.19409 -10.19383 -10.19383 -10.19338
 Alpha  occ. eigenvalues --  -10.19034 -10.18912 -10.18893 -10.18711 -10.18631
 Alpha  occ. eigenvalues --  -10.18616 -10.18533 -10.18531 -10.18487 -10.18450
 Alpha  occ. eigenvalues --  -10.18440 -10.18421 -10.18333 -10.18324 -10.18250
 Alpha  occ. eigenvalues --  -10.18247 -10.18195 -10.18162 -10.18062 -10.17755
 Alpha  occ. eigenvalues --  -10.17664 -10.17376 -10.17064 -10.16833 -10.16820
 Alpha  occ. eigenvalues --   -0.85063  -0.84706  -0.83736  -0.83155  -0.82267
 Alpha  occ. eigenvalues --   -0.81458  -0.79071  -0.78687  -0.78183  -0.77716
 Alpha  occ. eigenvalues --   -0.76714  -0.75685  -0.74172  -0.72901  -0.71964
 Alpha  occ. eigenvalues --   -0.70035  -0.69325  -0.68799  -0.68299  -0.67325
 Alpha  occ. eigenvalues --   -0.67316  -0.66936  -0.66496  -0.66215  -0.65637
 Alpha  occ. eigenvalues --   -0.63076  -0.61551  -0.60363  -0.59095  -0.57541
 Alpha  occ. eigenvalues --   -0.56320  -0.55377  -0.54342  -0.54188  -0.53875
 Alpha  occ. eigenvalues --   -0.52913  -0.51895  -0.51055  -0.49210  -0.48607
 Alpha  occ. eigenvalues --   -0.47881  -0.47331  -0.47008  -0.46475  -0.46183
 Alpha  occ. eigenvalues --   -0.45738  -0.45213  -0.44565  -0.44311  -0.44184
 Alpha  occ. eigenvalues --   -0.43752  -0.43422  -0.43016  -0.42712  -0.42409
 Alpha  occ. eigenvalues --   -0.42139  -0.41817  -0.41803  -0.41486  -0.41259
 Alpha  occ. eigenvalues --   -0.41135  -0.40758  -0.40723  -0.40192  -0.39386
 Alpha  occ. eigenvalues --   -0.39147  -0.38891  -0.38563  -0.38124  -0.37816
 Alpha  occ. eigenvalues --   -0.37553  -0.37281  -0.37249  -0.37070  -0.37049
 Alpha  occ. eigenvalues --   -0.36461  -0.35989  -0.35440  -0.35404  -0.35078
 Alpha  occ. eigenvalues --   -0.34976  -0.34697  -0.34543  -0.34342  -0.34152
 Alpha  occ. eigenvalues --   -0.33764  -0.33483  -0.33183  -0.32704  -0.32664
 Alpha  occ. eigenvalues --   -0.32281  -0.31869  -0.31254  -0.31099  -0.31032
 Alpha  occ. eigenvalues --   -0.30438  -0.29693  -0.29284  -0.29061  -0.28590
 Alpha  occ. eigenvalues --   -0.28344  -0.27080  -0.26002  -0.23709  -0.22256
 Alpha  occ. eigenvalues --   -0.20449  -0.18971  -0.16266
 Alpha virt. eigenvalues --   -0.08227  -0.04644  -0.02009   0.00222   0.02226
 Alpha virt. eigenvalues --    0.03883   0.05308   0.05930   0.06475   0.06627
 Alpha virt. eigenvalues --    0.07532   0.07715   0.08157   0.08494   0.09497

 Mulliken charges:
               1
     1  C    0.026696
     2  C   -0.015388
     3  C   -0.179166
     4  C   -0.168344
     5  C   -0.191471
     6  C   -0.174037
     7  C    0.053278
     8  C    0.065311
     9  C   -0.226287
    10  C   -0.212096
    11  C    0.084420
    12  C    0.082410
    13  C   -0.275146
    14  C   -0.318525
    15  C   -0.283526
    16  C   -0.297110
    17  C   -0.155067
    18  C   -0.125950
    19  C   -0.346710
    20  C   -0.361862
    21  C   -0.054186
    22  C   -0.109718
    23  C    0.097568
    24  C    0.105649
    25  C   -0.357913
    26  C   -0.360942
    27  C   -0.131502
    28  C   -0.117239
    29  C   -0.073977
    30  C   -0.077108
    31  C   -0.095654
    32  C   -0.115670
    33  C    0.107356
    34  C    0.115183
    35  C   -0.350799
    36  C   -0.374282
    37  C   -0.128214
    38  C   -0.106901
    39  C   -0.087504
    40  C   -0.110095
    41  H    0.096682
    42  H    0.064936
    43  H    0.068004
    44  H    0.076882
    45  H    0.093308
    46  H    0.093066
    47  H    0.062120
    48  H    0.106743
    49  H    0.129778
    50  H    0.076448
    51  H    0.095739
    52  H    0.095242
    53  H    0.093716
    54  H    0.098981
    55  H    0.080156
    56  H    0.117996
    57  H    0.092039
    58  H    0.076382
    59  H    0.093073
    60  H    0.113053
    61  H    0.087958
    62  H    0.090945
    63  H    0.098677
    64  H    0.092281
    65  H    0.083624
    66  H    0.070036
    67  H    0.122303
    68  H    0.115782
    69  H    0.061968
    70  H    0.124038
    71  H    0.096571
    72  H    0.114056
    73  H    0.083672
    74  H    0.073852
    75  H    0.118755
    76  H    0.102483
    77  H    0.130559
    78  H    0.140591
    79  H    0.116153
    80  H    0.095100
    81  H    0.066023
    82  H    0.075469
    83  H    0.070006
    84  H    0.076667
    85  H    0.081945
    86  H    0.072959
    87  H    0.085621
    88  H    0.121535
    89  H    0.118418
    90  H    0.127549
    91  H    0.113090
    92  H    0.109300
    93  H    0.079377
    94  H    0.055405
    95  H    0.063725
    96  H    0.083683
 Sum of Mulliken charges =  -0.00000

 Dipole moment (field-independent basis, Debye):
    X=              0.8684    Y=             -0.2777    Z=              0.6384  Tot=              1.1130
 Quadrupole moment (field-independent basis, Debye-Ang):
   XX=           -222.5282   YY=           -236.1351   ZZ=           -254.3544
   XY=              0.2874   XZ=             -4.5791   YZ=              1.4062

 Normal termination of Gaussian 16 at Thu Aug  1 05:10:49 2019.
