 Gaussian 16, Revision A.03,
 Gaussian 16:  ES64L-G16RevA.03 25-Dec-2016

 ---------------------------------
 # td=(NStates=1) B3LYP/6-31G(d,p)
 ---------------------------------

 --
 TD
 --
 Symbolic Z-matrix:
 Charge =  0 Multiplicity = 1

                         Standard orientation:
 ---------------------------------------------------------------------
 Center     Atomic      Atomic             Coordinates (Angstroms)
 Number     Number       Type             X           Y           Z
 ---------------------------------------------------------------------
      1          6           0       12.187846    0.570740   -0.691781
      2          6           0      -12.201849   -0.091447    0.684598
      3          6           0       13.446763   -0.188254   -0.670794
      4          6           0      -13.010225    1.249559    1.137975
      5          6           0       13.156810   -1.650852   -0.520146
      6          6           0      -13.399915    2.312433   -0.005043
      7          6           0       11.028768    0.035425    0.263089
      8          6           0      -10.969596    0.445024   -0.122160
      9          6           0       12.416758   -1.984773    0.719642
     10          6           0      -12.033634    2.701454   -0.487636
     11          6           0       11.133346   -1.219467    0.851424
     12          6           0      -10.914827    1.797702   -0.585281
     13          6           0       11.589651    0.661663   -2.205698
     14          6           0       12.440692    2.126577   -0.361407
     15          6           0      -13.129608   -0.890738   -0.187292
     16          6           0      -11.754274   -0.909296    1.942553
     17          6           0        9.857834    0.853396    0.374608
     18          6           0       -9.968337   -0.540131   -0.166797
     19          6           0       10.154929   -1.743892    1.753543
     20          6           0       -9.613035    2.331128   -1.444373
     21          6           0        8.611625    0.453756    0.223926
     22          6           0       -8.538975   -0.386769   -0.121586
     23          6           0        7.422132    1.383746    0.338737
     24          6           0       -7.507223   -1.357997   -0.304026
     25          6           0        7.543366    2.788037    0.709235
     26          6           0       -7.883359   -2.732870   -0.755720
     27          6           0        6.206888    0.756753    0.199926
     28          6           0       -6.247481   -0.867309   -0.081896
     29          6           0        4.967560    1.419511    0.298473
     30          6           0       -5.008781   -1.704661   -0.294323
     31          6           0        3.770690    0.713676    0.104321
     32          6           0       -3.755687   -1.164428   -0.062359
     33          6           0        2.362995    1.126292    0.354512
     34          6           0       -2.576014   -1.968435   -0.357597
     35          6           0        2.168114    2.485197    0.686565
     36          6           0       -2.719469   -3.444005   -0.689301
     37          6           0        1.315194    0.308534    0.217139
     38          6           0       -1.399640   -1.307325   -0.117332
     39          6           0        1.172855   -1.083681   -0.172434
     40          6           0       -0.024835   -1.771511   -0.357648
     41          1           0       13.967620    0.061780    0.387677
     42          1           0       14.029458   -0.021729   -1.530279
     43          1           0      -12.287689    1.624664    1.845038
     44          1           0      -13.894411    0.892531    1.681763
     45          1           0       14.057614   -2.341530   -0.478040
     46          1           0       12.637410   -2.043740   -1.456199
     47          1           0      -13.983595    3.045084    0.410353
     48          1           0      -13.965509    1.841955   -0.983942
     49          1           0       12.998770   -1.724524    1.752233
     50          1           0       12.392170   -3.063765    0.728583
     51          1           0      -11.734823    3.516789    0.216882
     52          1           0      -12.038398    3.087348   -1.488143
     53          1           0       11.528634   -0.353528   -2.738517
     54          1           0       12.229014    1.170565   -2.879401
     55          1           0       10.647742    1.198329   -2.126077
     56          1           0       12.619573    2.143514    0.879169
     57          1           0       11.562148    2.679344   -0.431591
     58          1           0       13.240586    2.581304   -0.901618
     59          1           0      -13.591110   -0.263942   -1.038117
     60          1           0      -14.015793   -0.955385    0.462394
     61          1           0      -12.768104   -1.874694   -0.883578
     62          1           0      -11.007855   -0.264825    2.537372
     63          1           0      -11.355810   -1.739058    1.638018
     64          1           0      -12.647809   -1.154330    2.458242
     65          1           0        9.982702    1.885890    0.575201
     66          1           0      -10.289521   -1.489233   -0.151946
     67          1           0        9.261703   -1.006199    2.105123
     68          1           0       10.624251   -1.850988    2.817731
     69          1           0        9.587084   -2.523221    1.217478
     70          1           0       -8.989618    1.450168   -1.598743
     71          1           0       -9.133935    3.234161   -1.063013
     72          1           0      -10.103237    2.678232   -2.301531
     73          1           0        8.487177   -0.801020    0.083850
     74          1           0       -8.224142    0.658350    0.135733
     75          1           0        7.924210    3.049398    1.764890
     76          1           0        6.542497    3.400099    0.462145
     77          1           0        8.185341    3.402213   -0.071829
     78          1           0       -8.619145   -2.546007   -1.471708
     79          1           0       -8.397437   -3.338671    0.045449
     80          1           0       -6.916382   -3.370337   -0.900059
     81          1           0        6.465004   -0.330833   -0.136804
     82          1           0       -6.226631    0.116115    0.304639
     83          1           0        4.854910    2.338113    0.696314
     84          1           0       -5.067066   -2.699545   -0.782172
     85          1           0        3.901842   -0.324040   -0.294386
     86          1           0       -3.486008   -0.110286    0.378813
     87          1           0        2.663418    2.636749    1.648066
     88          1           0        1.019545    2.801836    0.983775
     89          1           0        2.445967    3.159145   -0.231344
     90          1           0       -3.358113   -3.760445   -1.482996
     91          1           0       -3.075486   -4.098535    0.102337
     92          1           0       -1.508394   -3.761966   -0.809981
     93          1           0        0.392953    0.794151    0.243124
     94          1           0       -1.480395   -0.276921    0.144254
     95          1           0        2.185623   -1.684671   -0.265353
     96          1           0       -0.056860   -2.750415   -0.795103
 ---------------------------------------------------------------------

 SCF Done:  E(RB3LYP) =  -1557.59245004     A.U. after   15 cycles

 Excitation energies and oscillator strengths:

 Excited State   1:      Singlet-A      2.1608 eV  573.78 nm  f=2.6527  <S**2>=0.000
     148 ->149         0.70494
 This state for optimization and/or second-order correction.
 Total Energy, E(TD-HF/TD-DFT) =  -1557.51304144
 Copying the excited state density for this state as the 1-particle RhoCI density.

 The electronic state is 1-A.
 Alpha  occ. eigenvalues --  -10.20536 -10.20310 -10.20237 -10.20192 -10.20036
 Alpha  occ. eigenvalues --  -10.20013 -10.19921 -10.19905 -10.19760 -10.19668
 Alpha  occ. eigenvalues --  -10.19579 -10.19489 -10.19396 -10.19301 -10.19290
 Alpha  occ. eigenvalues --  -10.19266 -10.19227 -10.18975 -10.18846 -10.18740
 Alpha  occ. eigenvalues --  -10.18674 -10.18649 -10.18607 -10.18585 -10.18520
 Alpha  occ. eigenvalues --  -10.18514 -10.18455 -10.18387 -10.18345 -10.18146
 Alpha  occ. eigenvalues --  -10.17950 -10.17927 -10.17816 -10.17801 -10.17773
 Alpha  occ. eigenvalues --  -10.17676 -10.17473 -10.17053 -10.16914 -10.16460
 Alpha  occ. eigenvalues --   -0.84982  -0.84352  -0.83603  -0.82864  -0.82162
 Alpha  occ. eigenvalues --   -0.81644  -0.78982  -0.78855  -0.78070  -0.77391
 Alpha  occ. eigenvalues --   -0.76305  -0.75063  -0.73573  -0.72323  -0.71541
 Alpha  occ. eigenvalues --   -0.70027  -0.69097  -0.68492  -0.67822  -0.67562
 Alpha  occ. eigenvalues --   -0.67454  -0.66776  -0.66602  -0.66503  -0.65864
 Alpha  occ. eigenvalues --   -0.62701  -0.61827  -0.59764  -0.58853  -0.57116
 Alpha  occ. eigenvalues --   -0.55814  -0.55178  -0.54350  -0.53594  -0.52881
 Alpha  occ. eigenvalues --   -0.52092  -0.51731  -0.50583  -0.49206  -0.48993
 Alpha  occ. eigenvalues --   -0.47706  -0.47549  -0.47276  -0.46648  -0.46545
 Alpha  occ. eigenvalues --   -0.45628  -0.45273  -0.44910  -0.44317  -0.44051
 Alpha  occ. eigenvalues --   -0.43723  -0.43572  -0.43269  -0.43031  -0.42694
 Alpha  occ. eigenvalues --   -0.41815  -0.41737  -0.41640  -0.41455  -0.40862
 Alpha  occ. eigenvalues --   -0.40625  -0.40355  -0.40101  -0.39585  -0.39190
 Alpha  occ. eigenvalues --   -0.39052  -0.38956  -0.38843  -0.38551  -0.38287
 Alpha  occ. eigenvalues --   -0.38191  -0.37672  -0.37397  -0.36958  -0.36583
 Alpha  occ. eigenvalues --   -0.36117  -0.36080  -0.35925  -0.35198  -0.35132
 Alpha  occ. eigenvalues --   -0.34868  -0.34683  -0.34562  -0.33828  -0.33699
 Alpha  occ. eigenvalues --   -0.33573  -0.33075  -0.32615  -0.32345  -0.32273
 Alpha  occ. eigenvalues --   -0.32111  -0.31818  -0.31229  -0.31049  -0.30470
 Alpha  occ. eigenvalues --   -0.29819  -0.29495  -0.29152  -0.28898  -0.28846
 Alpha  occ. eigenvalues --   -0.28243  -0.27466  -0.26174  -0.24039  -0.22311
 Alpha  occ. eigenvalues --   -0.20418  -0.18093  -0.16126
 Alpha virt. eigenvalues --   -0.07746  -0.05069  -0.02146   0.00677   0.02608
 Alpha virt. eigenvalues --    0.04590   0.06297   0.06674   0.06905   0.07352
 Alpha virt. eigenvalues --    0.07543   0.08008   0.08375   0.08639   0.08790

 Mulliken charges:
               1
     1  C    0.013786
     2  C   -0.037867
     3  C   -0.149195
     4  C   -0.203214
     5  C   -0.184974
     6  C   -0.169987
     7  C    0.067976
     8  C    0.087362
     9  C   -0.203770
    10  C   -0.211192
    11  C    0.085439
    12  C    0.030431
    13  C   -0.312143
    14  C   -0.299091
    15  C   -0.276568
    16  C   -0.283898
    17  C   -0.129898
    18  C   -0.140594
    19  C   -0.378399
    20  C   -0.363017
    21  C   -0.091896
    22  C   -0.148183
    23  C    0.128570
    24  C    0.152001
    25  C   -0.388240
    26  C   -0.371010
    27  C   -0.095516
    28  C   -0.123432
    29  C   -0.088535
    30  C   -0.122112
    31  C   -0.118077
    32  C   -0.092816
    33  C    0.144600
    34  C    0.136607
    35  C   -0.381720
    36  C   -0.374504
    37  C   -0.121423
    38  C   -0.117756
    39  C   -0.091216
    40  C   -0.103513
    41  H    0.070694
    42  H    0.092893
    43  H    0.104963
    44  H    0.075316
    45  H    0.075856
    46  H    0.090079
    47  H    0.112474
    48  H    0.076116
    49  H    0.080783
    50  H    0.100568
    51  H    0.104507
    52  H    0.096817
    53  H    0.083358
    54  H    0.099518
    55  H    0.111350
    56  H    0.057148
    57  H    0.110851
    58  H    0.105636
    59  H    0.092042
    60  H    0.096271
    61  H    0.071857
    62  H    0.099725
    63  H    0.115645
    64  H    0.099293
    65  H    0.083928
    66  H    0.072760
    67  H    0.101008
    68  H    0.098842
    69  H    0.120300
    70  H    0.130453
    71  H    0.113119
    72  H    0.112563
    73  H    0.064954
    74  H    0.082003
    75  H    0.123099
    76  H    0.099606
    77  H    0.103664
    78  H    0.132142
    79  H    0.117385
    80  H    0.098182
    81  H    0.080043
    82  H    0.082061
    83  H    0.084867
    84  H    0.082837
    85  H    0.072733
    86  H    0.080618
    87  H    0.128271
    88  H    0.079539
    89  H    0.115417
    90  H    0.128727
    91  H    0.134423
    92  H    0.079127
    93  H    0.071088
    94  H    0.074517
    95  H    0.076363
    96  H    0.078586
 Sum of Mulliken charges =  -0.00000

 Dipole moment (field-independent basis, Debye):
    X=             -1.1265    Y=              0.6113    Z=              0.1227  Tot=              1.2876
 Quadrupole moment (field-independent basis, Debye-Ang):
   XX=           -220.9882   YY=           -233.1214   ZZ=           -254.4178
   XY=             -5.2042   XZ=             -2.1266   YZ=              3.7254

 Normal termination of Gaussian 16 at Fri Jul 26 17:28:19 2019.
