 Gaussian 16, Revision A.03,
 Gaussian 16:  ES64L-G16RevA.03 25-Dec-2016

 ---------------------------------
 # td=(NStates=1) B3LYP/6-31G(d,p)
 ---------------------------------

 --
 TD
 --
 Symbolic Z-matrix:
 Charge =  0 Multiplicity = 1

                         Standard orientation:
 ---------------------------------------------------------------------
 Center     Atomic      Atomic             Coordinates (Angstroms)
 Number     Number       Type             X           Y           Z
 ---------------------------------------------------------------------
      1          6           0      -12.161048   -0.654233   -0.631752
      2          6           0       12.208784   -0.009603    0.880205
      3          6           0      -13.529603    0.147827   -0.541115
      4          6           0       12.980702   -1.219853    1.275328
      5          6           0      -13.215864    1.763451   -0.537263
      6          6           0       13.391828   -2.100086    0.101483
      7          6           0      -11.128141   -0.020447    0.358329
      8          6           0       11.016776   -0.376460   -0.098251
      9          6           0      -12.448929    2.102803    0.633881
     10          6           0       12.089037   -2.575719   -0.520924
     11          6           0      -11.286538    1.192260    0.878066
     12          6           0       11.011636   -1.588660   -0.683767
     13          6           0      -11.682677   -0.713501   -2.021314
     14          6           0      -12.507916   -2.112239   -0.220253
     15          6           0       13.143973    0.995144    0.111566
     16          6           0       11.742405    0.630844    2.185343
     17          6           0       -9.893377   -0.819776    0.410816
     18          6           0        9.990959    0.626668   -0.178590
     19          6           0      -10.235106    1.733493    1.934218
     20          6           0        9.918779   -2.041206   -1.641338
     21          6           0       -8.612373   -0.460767    0.326124
     22          6           0        8.631396    0.361762   -0.195059
     23          6           0       -7.303700   -1.212806    0.298862
     24          6           0        7.512646    1.375913   -0.283289
     25          6           0       -7.445392   -2.736790    0.641906
     26          6           0        7.835250    2.784928   -0.710594
     27          6           0       -6.174354   -0.608044    0.203006
     28          6           0        6.297714    0.851756   -0.222291
     29          6           0       -4.884381   -1.248643    0.334520
     30          6           0        4.993911    1.514965   -0.522162
     31          6           0       -3.713778   -0.555857    0.073921
     32          6           0        3.726732    1.033191   -0.293162
     33          6           0       -2.442784   -1.211420    0.197887
     34          6           0        2.525729    1.876470   -0.489142
     35          6           0       -2.252428   -2.722997    0.552820
     36          6           0        2.625307    3.321959   -0.572819
     37          6           0       -1.193518   -0.521949    0.033724
     38          6           0        1.338281    1.207802   -0.220668
     39          6           0       -1.085149    0.883192   -0.399074
     40          6           0        0.012143    1.622789   -0.418333
     41          1           0      -13.992965   -0.235493    0.403026
     42          1           0      -14.194201   -0.027237   -1.383415
     43          1           0       12.393185   -1.856720    2.029856
     44          1           0       13.957374   -0.853725    1.781477
     45          1           0      -14.275209    2.330650   -0.546860
     46          1           0      -12.637431    1.973613   -1.424923
     47          1           0       14.061520   -2.963341    0.480369
     48          1           0       13.948754   -1.613318   -0.671222
     49          1           0      -12.817215    2.071267    1.775186
     50          1           0      -11.889157    3.062342    0.556786
     51          1           0       11.655917   -3.296272    0.263810
     52          1           0       12.283716   -3.095257   -1.552410
     53          1           0      -11.259632    0.353870   -2.337490
     54          1           0      -12.399183   -0.938655   -2.862647
     55          1           0      -10.860094   -1.308593   -2.302524
     56          1           0      -12.906258   -2.117363    0.844930
     57          1           0      -11.627055   -2.694415   -0.295191
     58          1           0      -13.443741   -2.414511   -0.821374
     59          1           0       13.658422    0.225773   -0.720674
     60          1           0       14.031788    1.408841    0.677522
     61          1           0       12.613089    1.748788   -0.138713
     62          1           0       10.899480   -0.125290    2.664929
     63          1           0       11.022787    1.460312    2.140053
     64          1           0       12.527234    0.873596    2.945309
     65          1           0       -9.996438   -1.856465    0.573998
     66          1           0       10.149398    1.776301   -0.451213
     67          1           0       -9.642850    0.848663    2.497176
     68          1           0      -10.832929    2.168103    2.852404
     69          1           0       -9.657325    2.397801    1.293254
     70          1           0        9.068822   -1.242627   -1.869622
     71          1           0        9.431270   -2.907486   -1.126902
     72          1           0       10.468673   -2.485222   -2.533036
     73          1           0       -8.465515    0.787345    0.046374
     74          1           0        8.351178   -0.682325   -0.247726
     75          1           0       -7.976633   -2.878776    1.600709
     76          1           0       -6.545596   -3.281492    0.586745
     77          1           0       -8.140911   -3.122311   -0.274580
     78          1           0        8.307084    2.873619   -1.873332
     79          1           0        8.409921    3.244597    0.107527
     80          1           0        6.673764    3.336048   -0.899639
     81          1           0       -6.016833    0.511990    0.115442
     82          1           0        6.369052   -0.312368   -0.059688
     83          1           0       -4.868443   -2.477367    0.435763
     84          1           0        5.187724    2.457869   -0.756053
     85          1           0       -3.730184    0.447433   -0.262613
     86          1           0        3.523005    0.080767   -0.076655
     87          1           0       -2.748382   -2.987242    1.422341
     88          1           0       -1.378558   -2.976226    0.755309
     89          1           0       -2.611576   -3.287649   -0.473687
     90          1           0        3.236995    3.731202   -1.388805
     91          1           0        3.091691    3.968238    0.304673
     92          1           0        1.593544    3.718460   -0.682308
     93          1           0       -0.299023   -1.138088    0.085191
     94          1           0        1.764371    0.257870   -0.083192
     95          1           0       -2.043293    1.258730   -0.686850
     96          1           0       -0.204737    2.704758   -0.621871
 ---------------------------------------------------------------------

 SCF Done:  E(RB3LYP) =  -1557.56461090     A.U. after   15 cycles

 Excitation energies and oscillator strengths:

 Excited State   1:      Singlet-A      2.3878 eV  519.24 nm  f=2.8724  <S**2>=0.000
     148 ->149         0.70444
 This state for optimization and/or second-order correction.
 Total Energy, E(TD-HF/TD-DFT) =  -1557.47686075
 Copying the excited state density for this state as the 1-particle RhoCI density.

 The electronic state is 1-A.
 Alpha  occ. eigenvalues --  -10.21842 -10.20737 -10.20541 -10.20240 -10.20093
 Alpha  occ. eigenvalues --  -10.19762 -10.19706 -10.19667 -10.19629 -10.19567
 Alpha  occ. eigenvalues --  -10.19457 -10.19413 -10.19249 -10.19235 -10.19201
 Alpha  occ. eigenvalues --  -10.19190 -10.19073 -10.19066 -10.19003 -10.18953
 Alpha  occ. eigenvalues --  -10.18910 -10.18844 -10.18628 -10.18626 -10.18616
 Alpha  occ. eigenvalues --  -10.18577 -10.18495 -10.18482 -10.18321 -10.18281
 Alpha  occ. eigenvalues --  -10.18232 -10.18147 -10.18106 -10.18001 -10.17907
 Alpha  occ. eigenvalues --  -10.17886 -10.17717 -10.17670 -10.17186 -10.17068
 Alpha  occ. eigenvalues --   -0.85304  -0.84912  -0.83800  -0.83144  -0.82028
 Alpha  occ. eigenvalues --   -0.81157  -0.79062  -0.78773  -0.78479  -0.77509
 Alpha  occ. eigenvalues --   -0.77120  -0.74611  -0.73988  -0.71941  -0.71710
 Alpha  occ. eigenvalues --   -0.70313  -0.68955  -0.68167  -0.67724  -0.67553
 Alpha  occ. eigenvalues --   -0.67455  -0.67163  -0.66542  -0.66238  -0.65864
 Alpha  occ. eigenvalues --   -0.62937  -0.61804  -0.59907  -0.59427  -0.56927
 Alpha  occ. eigenvalues --   -0.56175  -0.55557  -0.54785  -0.53953  -0.53345
 Alpha  occ. eigenvalues --   -0.52304  -0.51106  -0.50251  -0.49737  -0.48772
 Alpha  occ. eigenvalues --   -0.48383  -0.47778  -0.47323  -0.46853  -0.46157
 Alpha  occ. eigenvalues --   -0.45305  -0.44696  -0.44529  -0.44386  -0.43988
 Alpha  occ. eigenvalues --   -0.43446  -0.42895  -0.42785  -0.42553  -0.42177
 Alpha  occ. eigenvalues --   -0.41962  -0.41538  -0.41317  -0.41219  -0.40938
 Alpha  occ. eigenvalues --   -0.40533  -0.40278  -0.40013  -0.39728  -0.39569
 Alpha  occ. eigenvalues --   -0.39271  -0.38989  -0.38858  -0.38645  -0.38215
 Alpha  occ. eigenvalues --   -0.38070  -0.37500  -0.37243  -0.37145  -0.36501
 Alpha  occ. eigenvalues --   -0.36208  -0.35687  -0.35442  -0.35182  -0.34988
 Alpha  occ. eigenvalues --   -0.34848  -0.34635  -0.34186  -0.34080  -0.33437
 Alpha  occ. eigenvalues --   -0.33385  -0.33125  -0.33003  -0.32582  -0.32427
 Alpha  occ. eigenvalues --   -0.32137  -0.31643  -0.31149  -0.30914  -0.30851
 Alpha  occ. eigenvalues --   -0.30208  -0.29648  -0.29416  -0.28785  -0.28653
 Alpha  occ. eigenvalues --   -0.27881  -0.27527  -0.26212  -0.24731  -0.22832
 Alpha  occ. eigenvalues --   -0.21253  -0.19408  -0.16894
 Alpha virt. eigenvalues --   -0.07700  -0.04626  -0.01489   0.00702   0.02590
 Alpha virt. eigenvalues --    0.04673   0.05287   0.06462   0.06588   0.06928
 Alpha virt. eigenvalues --    0.07169   0.07254   0.07468   0.08424   0.08935

 Mulliken charges:
               1
     1  C   -0.007520
     2  C    0.006221
     3  C   -0.184718
     4  C   -0.161339
     5  C   -0.196506
     6  C   -0.186806
     7  C    0.106754
     8  C    0.071021
     9  C   -0.171319
    10  C   -0.219201
    11  C   -0.005449
    12  C    0.080934
    13  C   -0.287600
    14  C   -0.300052
    15  C   -0.271231
    16  C   -0.299806
    17  C   -0.137468
    18  C   -0.139910
    19  C   -0.336824
    20  C   -0.357336
    21  C   -0.078606
    22  C   -0.111151
    23  C    0.098970
    24  C    0.128895
    25  C   -0.356865
    26  C   -0.349290
    27  C   -0.099538
    28  C   -0.122424
    29  C   -0.092279
    30  C   -0.083300
    31  C   -0.100618
    32  C   -0.089817
    33  C    0.070747
    34  C    0.109036
    35  C   -0.333312
    36  C   -0.378408
    37  C   -0.128038
    38  C   -0.076773
    39  C   -0.073157
    40  C   -0.106868
    41  H    0.090494
    42  H    0.091556
    43  H    0.085318
    44  H    0.074416
    45  H    0.075179
    46  H    0.116452
    47  H    0.082595
    48  H    0.106094
    49  H    0.096322
    50  H    0.099921
    51  H    0.102350
    52  H    0.080942
    53  H    0.070524
    54  H    0.092135
    55  H    0.110648
    56  H    0.089178
    57  H    0.106489
    58  H    0.093148
    59  H    0.068787
    60  H    0.085119
    61  H    0.111914
    62  H    0.065533
    63  H    0.100554
    64  H    0.099844
    65  H    0.075257
    66  H    0.079106
    67  H    0.110478
    68  H    0.085422
    69  H    0.127153
    70  H    0.112722
    71  H    0.111257
    72  H    0.099024
    73  H    0.031174
    74  H    0.082552
    75  H    0.129904
    76  H    0.113538
    77  H    0.096439
    78  H    0.107108
    79  H    0.133009
    80  H    0.069894
    81  H    0.081437
    82  H    0.063091
    83  H    0.077840
    84  H    0.057001
    85  H    0.088704
    86  H    0.076407
    87  H    0.120692
    88  H    0.113023
    89  H    0.094187
    90  H    0.113002
    91  H    0.109735
    92  H    0.105338
    93  H    0.082288
    94  H    0.068505
    95  H    0.076957
    96  H    0.083197
 Sum of Mulliken charges =  -0.00000

 Dipole moment (field-independent basis, Debye):
    X=             -0.9581    Y=             -0.4571    Z=             -0.2651  Tot=              1.0941
 Quadrupole moment (field-independent basis, Debye-Ang):
   XX=           -234.1992   YY=           -236.5725   ZZ=           -255.0884
   XY=             -2.6931   XZ=             -1.7722   YZ=             -3.0530

 Normal termination of Gaussian 16 at Sat Jul 27 01:16:39 2019.
