 Gaussian 16, Revision A.03,
 Gaussian 16:  ES64L-G16RevA.03 25-Dec-2016

 ---------------------------------
 # td=(NStates=1) B3LYP/6-31G(d,p)
 ---------------------------------

 --
 TD
 --
 Symbolic Z-matrix:
 Charge =  0 Multiplicity = 1

                         Standard orientation:
 ---------------------------------------------------------------------
 Center     Atomic      Atomic             Coordinates (Angstroms)
 Number     Number       Type             X           Y           Z
 ---------------------------------------------------------------------
      1          6           0       12.116927    0.445698   -0.821059
      2          6           0      -12.128295   -0.111390    0.794326
      3          6           0       13.440308   -0.241008   -0.511812
      4          6           0      -13.115522    0.986888    1.305319
      5          6           0       13.184549   -1.835187   -0.456904
      6          6           0      -13.397432    1.977303    0.109367
      7          6           0       11.064873   -0.052990    0.181607
      8          6           0      -10.953984    0.403214   -0.068834
      9          6           0       12.398417   -2.128254    0.764636
     10          6           0      -12.120441    2.632065   -0.347190
     11          6           0       11.147617   -1.229774    0.892747
     12          6           0      -11.074312    1.649210   -0.685106
     13          6           0       11.646184    0.637192   -2.183664
     14          6           0       12.516772    1.875629   -0.256341
     15          6           0      -12.982366   -1.119416    0.010018
     16          6           0      -11.698703   -0.902672    2.055515
     17          6           0        9.848877    0.895479    0.255840
     18          6           0       -9.883685   -0.489798   -0.231243
     19          6           0       10.144889   -1.639446    1.899780
     20          6           0       -9.818482    2.233890   -1.568031
     21          6           0        8.553434    0.421187    0.348616
     22          6           0       -8.504672   -0.171164   -0.246177
     23          6           0        7.393642    1.353720    0.442252
     24          6           0       -7.478625   -1.215356   -0.405393
     25          6           0        7.567830    2.774917    0.536808
     26          6           0       -7.886845   -2.664560   -0.804688
     27          6           0        6.151023    0.705660    0.280055
     28          6           0       -6.123430   -0.773974   -0.261979
     29          6           0        4.816556    1.365947    0.242580
     30          6           0       -4.945055   -1.635946   -0.390178
     31          6           0        3.602406    0.670516    0.252111
     32          6           0       -3.746780   -1.091299   -0.192665
     33          6           0        2.327063    1.325023    0.264485
     34          6           0       -2.461090   -1.795513   -0.408977
     35          6           0        2.264227    2.856097    0.534194
     36          6           0       -2.597285   -3.312490   -0.827570
     37          6           0        1.222833    0.552049    0.162996
     38          6           0       -1.304874   -1.065322   -0.281022
     39          6           0        1.129609   -0.874630   -0.125259
     40          6           0        0.028627   -1.562633   -0.310062
     41          1           0       13.873759   -0.034480    0.511503
     42          1           0       14.083223   -0.171756   -1.425803
     43          1           0      -12.669226    1.571157    2.218491
     44          1           0      -13.906753    0.470428    1.815936
     45          1           0       14.124963   -2.333954   -0.518271
     46          1           0       12.580680   -2.138992   -1.382265
     47          1           0      -14.168741    2.602250    0.481916
     48          1           0      -13.972892    1.407092   -0.728307
     49          1           0       13.019465   -1.822057    1.724405
     50          1           0       12.210907   -3.148774    0.937580
     51          1           0      -11.678345    3.408830    0.341629
     52          1           0      -12.537270    3.125085   -1.282034
     53          1           0       11.334699   -0.437937   -2.570583
     54          1           0       12.295131    1.241032   -2.727186
     55          1           0       10.539504    0.966611   -2.188717
     56          1           0       12.552310    1.923695    0.990376
     57          1           0       11.784278    2.689246   -0.747607
     58          1           0       13.550114    2.184323   -0.619687
     59          1           0      -13.296378   -0.771992   -1.010704
     60          1           0      -14.106305   -1.434546    0.306782
     61          1           0      -12.434743   -1.951873   -0.198967
     62          1           0      -11.074524   -0.428369    2.864098
     63          1           0      -10.961951   -1.858582    1.821124
     64          1           0      -12.396955   -1.575512    2.638257
     65          1           0       10.150913    1.944925    0.363311
     66          1           0      -10.135548   -1.541394   -0.381138
     67          1           0        9.362503   -0.760642    2.123633
     68          1           0       10.384928   -2.081120    2.907945
     69          1           0        9.624036   -2.277845    1.334123
     70          1           0       -9.484668    1.406570   -2.188520
     71          1           0       -9.013150    2.579476   -0.899602
     72          1           0      -10.457934    3.047704   -2.097198
     73          1           0        8.279216   -0.612041    0.162114
     74          1           0       -8.222015    0.991327    0.174508
     75          1           0        7.827670    2.666079    1.736148
     76          1           0        6.485697    3.248318    0.432047
     77          1           0        8.390835    2.940415   -0.138250
     78          1           0       -8.609116   -2.585789   -1.599695
     79          1           0       -8.278400   -3.295649    0.155922
     80          1           0       -6.874124   -2.999123   -1.448740
     81          1           0        6.005610   -0.369442    0.238692
     82          1           0       -6.073513    0.328456    0.123492
     83          1           0        4.855537    2.472344    0.307129
     84          1           0       -4.953172   -2.581487   -0.721925
     85          1           0        3.420932   -0.596250    0.466485
     86          1           0       -3.658230    0.028372    0.046477
     87          1           0        2.725157    3.093459    1.379720
     88          1           0        1.199564    3.094043    0.598359
     89          1           0        3.107535    3.292891   -0.175212
     90          1           0       -3.246813   -3.458142   -1.649296
     91          1           0       -3.094389   -3.995713   -0.056620
     92          1           0       -1.625954   -3.729887   -1.080986
     93          1           0        0.249584    1.036986    0.128689
     94          1           0       -1.443906    0.039108   -0.044191
     95          1           0        2.087849   -1.327115   -0.512020
     96          1           0        0.199688   -2.572941   -0.631947
 ---------------------------------------------------------------------

 SCF Done:  E(RB3LYP) =  -1557.56239103     A.U. after   15 cycles

 Excitation energies and oscillator strengths:

 Excited State   1:      Singlet-A      2.2970 eV  539.77 nm  f=2.7913  <S**2>=0.000
     148 ->149         0.70588
 This state for optimization and/or second-order correction.
 Total Energy, E(TD-HF/TD-DFT) =  -1557.47797923
 Copying the excited state density for this state as the 1-particle RhoCI density.

 The electronic state is 1-A.
 Alpha  occ. eigenvalues --  -10.21283 -10.20757 -10.20739 -10.20650 -10.20462
 Alpha  occ. eigenvalues --  -10.20323 -10.20251 -10.20186 -10.20141 -10.19867
 Alpha  occ. eigenvalues --  -10.19781 -10.19536 -10.19427 -10.19394 -10.19325
 Alpha  occ. eigenvalues --  -10.19256 -10.19132 -10.19131 -10.19117 -10.19053
 Alpha  occ. eigenvalues --  -10.18940 -10.18718 -10.18541 -10.18512 -10.18485
 Alpha  occ. eigenvalues --  -10.18472 -10.18469 -10.18449 -10.18449 -10.18442
 Alpha  occ. eigenvalues --  -10.18351 -10.18337 -10.18100 -10.18092 -10.18072
 Alpha  occ. eigenvalues --  -10.18027 -10.17894 -10.17545 -10.17195 -10.17118
 Alpha  occ. eigenvalues --   -0.84930  -0.84394  -0.83433  -0.82712  -0.82026
 Alpha  occ. eigenvalues --   -0.80497  -0.79020  -0.78897  -0.77859  -0.76725
 Alpha  occ. eigenvalues --   -0.76370  -0.74687  -0.73780  -0.72042  -0.70700
 Alpha  occ. eigenvalues --   -0.70183  -0.68476  -0.68326  -0.67981  -0.67249
 Alpha  occ. eigenvalues --   -0.66973  -0.66807  -0.66274  -0.65948  -0.65219
 Alpha  occ. eigenvalues --   -0.62175  -0.61434  -0.59572  -0.58469  -0.56599
 Alpha  occ. eigenvalues --   -0.56116  -0.55505  -0.55014  -0.54168  -0.53014
 Alpha  occ. eigenvalues --   -0.51455  -0.51245  -0.49975  -0.48908  -0.48685
 Alpha  occ. eigenvalues --   -0.47770  -0.47443  -0.46485  -0.46400  -0.45644
 Alpha  occ. eigenvalues --   -0.45199  -0.45049  -0.44655  -0.43958  -0.43744
 Alpha  occ. eigenvalues --   -0.43451  -0.43305  -0.42891  -0.42757  -0.42459
 Alpha  occ. eigenvalues --   -0.42095  -0.41840  -0.41457  -0.41343  -0.40725
 Alpha  occ. eigenvalues --   -0.40326  -0.40315  -0.40229  -0.39843  -0.39570
 Alpha  occ. eigenvalues --   -0.38836  -0.38756  -0.38527  -0.38126  -0.37729
 Alpha  occ. eigenvalues --   -0.37512  -0.37284  -0.36733  -0.36528  -0.36188
 Alpha  occ. eigenvalues --   -0.36086  -0.35778  -0.35590  -0.35228  -0.35042
 Alpha  occ. eigenvalues --   -0.34917  -0.34782  -0.34075  -0.33909  -0.33832
 Alpha  occ. eigenvalues --   -0.33646  -0.33509  -0.33064  -0.32835  -0.32628
 Alpha  occ. eigenvalues --   -0.32505  -0.32189  -0.31585  -0.30961  -0.30243
 Alpha  occ. eigenvalues --   -0.29705  -0.29449  -0.29087  -0.28103  -0.28034
 Alpha  occ. eigenvalues --   -0.27294  -0.26882  -0.25819  -0.23856  -0.22404
 Alpha  occ. eigenvalues --   -0.20985  -0.18278  -0.16539
 Alpha virt. eigenvalues --   -0.07510  -0.05180  -0.02101   0.00715   0.02441
 Alpha virt. eigenvalues --    0.04189   0.05128   0.05687   0.06252   0.06714
 Alpha virt. eigenvalues --    0.07247   0.07748   0.08052   0.08441   0.08812

 Mulliken charges:
               1
     1  C    0.047291
     2  C    0.001983
     3  C   -0.177881
     4  C   -0.168005
     5  C   -0.195848
     6  C   -0.195217
     7  C    0.044194
     8  C    0.110615
     9  C   -0.204037
    10  C   -0.203911
    11  C    0.056285
    12  C    0.007826
    13  C   -0.306375
    14  C   -0.301265
    15  C   -0.294165
    16  C   -0.307122
    17  C   -0.150142
    18  C   -0.140032
    19  C   -0.372230
    20  C   -0.340887
    21  C   -0.091660
    22  C   -0.095345
    23  C    0.077382
    24  C    0.084572
    25  C   -0.336596
    26  C   -0.356873
    27  C   -0.116323
    28  C   -0.125168
    29  C   -0.121498
    30  C   -0.058220
    31  C   -0.110001
    32  C   -0.103074
    33  C    0.124505
    34  C    0.117269
    35  C   -0.361569
    36  C   -0.387779
    37  C   -0.133727
    38  C   -0.125687
    39  C   -0.091337
    40  C   -0.090981
    41  H    0.103319
    42  H    0.083656
    43  H    0.067087
    44  H    0.093579
    45  H    0.088111
    46  H    0.084745
    47  H    0.094512
    48  H    0.090594
    49  H    0.083619
    50  H    0.099506
    51  H    0.114387
    52  H    0.096760
    53  H    0.086397
    54  H    0.111639
    55  H    0.110639
    56  H    0.084832
    57  H    0.068447
    58  H    0.095169
    59  H    0.090199
    60  H    0.079021
    61  H    0.108064
    62  H    0.099283
    63  H    0.053705
    64  H    0.101242
    65  H    0.101794
    66  H    0.087433
    67  H    0.105150
    68  H    0.100435
    69  H    0.135663
    70  H    0.132104
    71  H    0.116879
    72  H    0.087627
    73  H    0.097521
    74  H    0.067368
    75  H    0.120548
    76  H    0.103102
    77  H    0.135740
    78  H    0.133506
    79  H    0.120310
    80  H    0.090380
    81  H    0.073434
    82  H    0.079366
    83  H    0.064212
    84  H    0.073908
    85  H    0.075695
    86  H    0.070934
    87  H    0.142807
    88  H    0.110563
    89  H    0.103189
    90  H    0.130799
    91  H    0.116034
    92  H    0.112773
    93  H    0.066493
    94  H    0.081361
    95  H    0.087048
    96  H    0.078347
 Sum of Mulliken charges =  -0.00000

 Dipole moment (field-independent basis, Debye):
    X=              0.6075    Y=             -0.3428    Z=             -0.1319  Tot=              0.7098
 Quadrupole moment (field-independent basis, Debye-Ang):
   XX=           -223.8285   YY=           -236.9284   ZZ=           -255.5445
   XY=             -1.0482   XZ=              1.5031   YZ=              3.8828

 Normal termination of Gaussian 16 at Thu Aug  1 15:46:15 2019.
