 Gaussian 16, Revision A.03,
 Gaussian 16:  ES64L-G16RevA.03 25-Dec-2016

 ---------------------------------
 # td=(NStates=1) B3LYP/6-31G(d,p)
 ---------------------------------

 --
 TD
 --
 Symbolic Z-matrix:
 Charge =  0 Multiplicity = 1

                         Standard orientation:
 ---------------------------------------------------------------------
 Center     Atomic      Atomic             Coordinates (Angstroms)
 Number     Number       Type             X           Y           Z
 ---------------------------------------------------------------------
      1          6           0       12.012404    0.621442   -0.714456
      2          6           0      -12.157758   -0.135784    0.771185
      3          6           0       13.445469   -0.168467   -0.506174
      4          6           0      -12.961910    1.047641    1.404960
      5          6           0       13.283430   -1.681702   -0.466732
      6          6           0      -13.372485    2.116670    0.359721
      7          6           0       11.035048    0.003792    0.234400
      8          6           0      -11.087494    0.330222   -0.158230
      9          6           0       12.312843   -2.138079    0.672975
     10          6           0      -12.138409    2.628227   -0.499199
     11          6           0       11.090475   -1.254424    0.754733
     12          6           0      -11.089503    1.600689   -0.647991
     13          6           0       11.697971    0.471926   -2.182926
     14          6           0       12.388951    2.161663   -0.482193
     15          6           0      -13.169555   -1.126257   -0.005218
     16          6           0      -11.432411   -0.691073    1.943282
     17          6           0        9.814334    0.862294    0.326902
     18          6           0       -9.907382   -0.571564   -0.378789
     19          6           0       10.113436   -1.754469    1.905421
     20          6           0       -9.931391    2.133988   -1.601740
     21          6           0        8.611550    0.424135    0.336112
     22          6           0       -8.547562   -0.302992   -0.256320
     23          6           0        7.349853    1.210578    0.472137
     24          6           0       -7.507148   -1.287449   -0.446085
     25          6           0        7.594781    2.764020    0.652175
     26          6           0       -7.934939   -2.691782   -0.932825
     27          6           0        6.074416    0.637907    0.353390
     28          6           0       -6.152399   -0.744935   -0.336350
     29          6           0        4.857857    1.331489    0.402762
     30          6           0       -5.003751   -1.579172   -0.388676
     31          6           0        3.649889    0.642632    0.303270
     32          6           0       -3.748468   -1.099195   -0.265887
     33          6           0        2.342356    1.218852    0.248135
     34          6           0       -2.445488   -1.775776   -0.369851
     35          6           0        2.328293    2.669613    0.437517
     36          6           0       -2.558854   -3.219213   -0.717324
     37          6           0        1.242784    0.523079    0.087284
     38          6           0       -1.286394   -1.133105   -0.190558
     39          6           0        1.154769   -0.907638    0.062113
     40          6           0        0.091358   -1.655616   -0.134610
     41          1           0       13.744696    0.001847    0.600976
     42          1           0       14.129280    0.086200   -1.427664
     43          1           0      -12.169367    1.566975    2.246793
     44          1           0      -13.733514    0.618857    1.900520
     45          1           0       14.320846   -2.090150   -0.154423
     46          1           0       12.825117   -1.994212   -1.601818
     47          1           0      -13.864048    2.977981    0.612016
     48          1           0      -14.070773    1.751905   -0.467329
     49          1           0       12.861077   -2.154576    1.568603
     50          1           0       12.116071   -3.082947    0.407848
     51          1           0      -11.589277    3.657068   -0.096987
     52          1           0      -12.623207    2.727295   -1.510965
     53          1           0       11.671466   -0.578252   -2.574073
     54          1           0       12.356328    1.190749   -2.867898
     55          1           0       10.660784    0.798944   -2.306158
     56          1           0       12.680526    2.384468    0.476424
     57          1           0       11.686276    2.762362   -0.946868
     58          1           0       13.271124    2.208395   -1.223364
     59          1           0      -13.801506   -0.774255   -0.791629
     60          1           0      -13.926335   -1.177420    0.927725
     61          1           0      -12.537212   -2.084048   -0.370315
     62          1           0      -10.713089    0.147589    2.533397
     63          1           0      -10.756522   -1.565534    1.728713
     64          1           0      -12.150836   -0.842220    2.871213
     65          1           0       10.055128    1.836882    0.389264
     66          1           0      -10.388516   -1.575963   -0.294417
     67          1           0        9.211385   -0.876654    2.213925
     68          1           0       10.783008   -1.880949    2.606907
     69          1           0        9.513057   -2.635410    1.853681
     70          1           0       -9.338176    1.275742   -1.969649
     71          1           0       -9.244987    2.760823   -1.099703
     72          1           0      -10.557939    2.812051   -2.321349
     73          1           0        8.441955   -0.570040    0.216142
     74          1           0       -8.284044    0.790489    0.152532
     75          1           0        8.006155    2.746209    1.678401
     76          1           0        6.687516    3.547968    0.388086
     77          1           0        8.367488    3.101679   -0.004820
     78          1           0       -8.831107   -2.584786   -1.811101
     79          1           0       -8.309045   -3.079882   -0.023039
     80          1           0       -7.105043   -3.257771   -1.347327
     81          1           0        6.097463   -0.458677    0.260074
     82          1           0       -6.015386    0.377713    0.042835
     83          1           0        5.103764    2.285439    0.548209
     84          1           0       -5.061122   -2.683161   -0.505396
     85          1           0        3.825124   -0.567120    0.229598
     86          1           0       -3.862285   -0.127958   -0.209223
     87          1           0        2.629876    2.906416    1.482437
     88          1           0        1.290365    3.042103    0.306362
     89          1           0        2.971156    3.382376   -0.241910
     90          1           0       -3.162990   -3.683173   -1.428287
     91          1           0       -2.977069   -3.840741    0.173239
     92          1           0       -1.690520   -3.654202   -0.797861
     93          1           0        0.178375    1.100000    0.106896
     94          1           0       -1.365855    0.001172   -0.118051
     95          1           0        2.075811   -1.261129    0.141851
     96          1           0        0.214744   -2.659483   -0.431072
 ---------------------------------------------------------------------

 SCF Done:  E(RB3LYP) =  -1557.51243109     A.U. after   15 cycles

 Excitation energies and oscillator strengths:

 Excited State   1:      Singlet-A      2.2832 eV  543.03 nm  f=2.6171  <S**2>=0.000
     148 ->149         0.70430
 This state for optimization and/or second-order correction.
 Total Energy, E(TD-HF/TD-DFT) =  -1557.42852516
 Copying the excited state density for this state as the 1-particle RhoCI density.

 The electronic state is 1-A.
 Alpha  occ. eigenvalues --  -10.20983 -10.20733 -10.20529 -10.20256 -10.20077
 Alpha  occ. eigenvalues --  -10.20074 -10.20034 -10.20019 -10.19977 -10.19900
 Alpha  occ. eigenvalues --  -10.19813 -10.19811 -10.19699 -10.19476 -10.19302
 Alpha  occ. eigenvalues --  -10.19205 -10.19104 -10.18939 -10.18923 -10.18886
 Alpha  occ. eigenvalues --  -10.18815 -10.18686 -10.18642 -10.18615 -10.18478
 Alpha  occ. eigenvalues --  -10.18387 -10.18219 -10.18160 -10.18149 -10.18087
 Alpha  occ. eigenvalues --  -10.18058 -10.17511 -10.17278 -10.17277 -10.17253
 Alpha  occ. eigenvalues --  -10.17149 -10.17145 -10.16942 -10.16797 -10.16746
 Alpha  occ. eigenvalues --   -0.84865  -0.84716  -0.84417  -0.83026  -0.81869
 Alpha  occ. eigenvalues --   -0.80905  -0.79364  -0.78424  -0.78015  -0.77766
 Alpha  occ. eigenvalues --   -0.76575  -0.75000  -0.74527  -0.71887  -0.70676
 Alpha  occ. eigenvalues --   -0.70614  -0.68556  -0.68534  -0.67930  -0.67536
 Alpha  occ. eigenvalues --   -0.67443  -0.67304  -0.67087  -0.66430  -0.65586
 Alpha  occ. eigenvalues --   -0.62813  -0.62113  -0.59804  -0.58568  -0.57382
 Alpha  occ. eigenvalues --   -0.57135  -0.55250  -0.54762  -0.54303  -0.54119
 Alpha  occ. eigenvalues --   -0.53024  -0.52207  -0.50729  -0.49745  -0.48535
 Alpha  occ. eigenvalues --   -0.47527  -0.47083  -0.46867  -0.46507  -0.45981
 Alpha  occ. eigenvalues --   -0.45598  -0.45071  -0.44833  -0.44382  -0.43962
 Alpha  occ. eigenvalues --   -0.43522  -0.43326  -0.42727  -0.42410  -0.42046
 Alpha  occ. eigenvalues --   -0.41969  -0.41768  -0.41552  -0.41232  -0.41222
 Alpha  occ. eigenvalues --   -0.40768  -0.40432  -0.40083  -0.39393  -0.38927
 Alpha  occ. eigenvalues --   -0.38809  -0.38637  -0.38495  -0.38407  -0.37756
 Alpha  occ. eigenvalues --   -0.37532  -0.37480  -0.37108  -0.36878  -0.36809
 Alpha  occ. eigenvalues --   -0.36713  -0.36081  -0.35761  -0.35324  -0.35181
 Alpha  occ. eigenvalues --   -0.35128  -0.34639  -0.34437  -0.34241  -0.33975
 Alpha  occ. eigenvalues --   -0.33629  -0.33471  -0.33368  -0.33299  -0.32634
 Alpha  occ. eigenvalues --   -0.31959  -0.31627  -0.31379  -0.30893  -0.30621
 Alpha  occ. eigenvalues --   -0.30262  -0.29773  -0.29188  -0.28951  -0.28791
 Alpha  occ. eigenvalues --   -0.27852  -0.26847  -0.26118  -0.24054  -0.22837
 Alpha  occ. eigenvalues --   -0.21392  -0.18542  -0.16605
 Alpha virt. eigenvalues --   -0.07706  -0.05503  -0.01570   0.00883   0.02906
 Alpha virt. eigenvalues --    0.04596   0.05642   0.06438   0.07056   0.07162
 Alpha virt. eigenvalues --    0.07647   0.08222   0.08289   0.08462   0.08984

 Mulliken charges:
               1
     1  C   -0.013537
     2  C   -0.014550
     3  C   -0.155979
     4  C   -0.152514
     5  C   -0.186414
     6  C   -0.195448
     7  C    0.076455
     8  C    0.094626
     9  C   -0.220218
    10  C   -0.229526
    11  C    0.019465
    12  C    0.056590
    13  C   -0.291987
    14  C   -0.302651
    15  C   -0.290281
    16  C   -0.285973
    17  C   -0.102609
    18  C   -0.151571
    19  C   -0.346529
    20  C   -0.355788
    21  C   -0.073406
    22  C   -0.091459
    23  C    0.063077
    24  C    0.082257
    25  C   -0.373732
    26  C   -0.348802
    27  C   -0.127329
    28  C   -0.138179
    29  C   -0.019150
    30  C   -0.061249
    31  C   -0.142972
    32  C   -0.098216
    33  C    0.156226
    34  C    0.141263
    35  C   -0.379963
    36  C   -0.385135
    37  C   -0.128926
    38  C   -0.129402
    39  C   -0.037138
    40  C   -0.103280
    41  H    0.074406
    42  H    0.076384
    43  H    0.063649
    44  H    0.099352
    45  H    0.082467
    46  H    0.059563
    47  H    0.104715
    48  H    0.082690
    49  H    0.111548
    50  H    0.120857
    51  H    0.079607
    52  H    0.107480
    53  H    0.101006
    54  H    0.083057
    55  H    0.104645
    56  H    0.112832
    57  H    0.108103
    58  H    0.090645
    59  H    0.125273
    60  H    0.080393
    61  H    0.091492
    62  H    0.085493
    63  H    0.098406
    64  H    0.076719
    65  H    0.075225
    66  H    0.071685
    67  H    0.076882
    68  H    0.122661
    69  H    0.115895
    70  H    0.121381
    71  H    0.114323
    72  H    0.080775
    73  H    0.083972
    74  H    0.087789
    75  H    0.132185
    76  H    0.091205
    77  H    0.128065
    78  H    0.100259
    79  H    0.140335
    80  H    0.117368
    81  H    0.065949
    82  H    0.083429
    83  H    0.064297
    84  H    0.067633
    85  H    0.075432
    86  H    0.051964
    87  H    0.124301
    88  H    0.102280
    89  H    0.102903
    90  H    0.130507
    91  H    0.095513
    92  H    0.112167
    93  H    0.062839
    94  H    0.075893
    95  H    0.062845
    96  H    0.085212
 Sum of Mulliken charges =  -0.00000

 Dipole moment (field-independent basis, Debye):
    X=              0.7499    Y=             -0.1944    Z=              0.4983  Tot=              0.9211
 Quadrupole moment (field-independent basis, Debye-Ang):
   XX=           -216.2894   YY=           -234.5795   ZZ=           -256.1533
   XY=             -0.7819   XZ=              3.7738   YZ=              2.0588

 Normal termination of Gaussian 16 at Mon Jul 29 02:19:58 2019.
