 Gaussian 16, Revision A.03,
 Gaussian 16:  ES64L-G16RevA.03 25-Dec-2016

 ---------------------------------
 # td=(NStates=1) B3LYP/6-31G(d,p)
 ---------------------------------

 --
 TD
 --
 Symbolic Z-matrix:
 Charge =  0 Multiplicity = 1

                         Standard orientation:
 ---------------------------------------------------------------------
 Center     Atomic      Atomic             Coordinates (Angstroms)
 Number     Number       Type             X           Y           Z
 ---------------------------------------------------------------------
      1          6           0       12.199403    0.443334   -0.727281
      2          6           0      -12.081306   -0.178769    0.903522
      3          6           0       13.428569   -0.471768   -0.555972
      4          6           0      -13.045472    0.970154    1.263355
      5          6           0       13.060294   -1.892783   -0.426012
      6          6           0      -13.414390    1.989483    0.220900
      7          6           0       11.030524   -0.026626    0.281898
      8          6           0      -11.014355    0.414790   -0.082155
      9          6           0       12.297714   -2.193788    0.826208
     10          6           0      -12.191008    2.599095   -0.324545
     11          6           0       11.161294   -1.169903    1.039567
     12          6           0      -11.017425    1.629557   -0.716340
     13          6           0       11.528946    0.263586   -2.139051
     14          6           0       12.552471    1.848868   -0.506207
     15          6           0      -12.921024   -1.275527    0.152395
     16          6           0      -11.547536   -0.747106    2.181879
     17          6           0        9.846922    0.851764    0.541225
     18          6           0       -9.841513   -0.584216   -0.243265
     19          6           0       10.204762   -1.586597    2.122586
     20          6           0       -9.927746    2.148708   -1.632684
     21          6           0        8.592627    0.482625    0.400060
     22          6           0       -8.550963   -0.380636   -0.210542
     23          6           0        7.387146    1.324060    0.470400
     24          6           0       -7.512036   -1.358775   -0.564640
     25          6           0        7.716790    2.862283    0.456154
     26          6           0       -7.885542   -2.694102   -0.689326
     27          6           0        6.126332    0.766884    0.362729
     28          6           0       -6.196256   -0.840251   -0.541053
     29          6           0        4.884300    1.550647    0.332026
     30          6           0       -5.011570   -1.648719   -0.544914
     31          6           0        3.684034    0.839831    0.210096
     32          6           0       -3.741953   -1.080046   -0.342588
     33          6           0        2.398978    1.458953    0.127197
     34          6           0       -2.513660   -1.719599   -0.560177
     35          6           0        2.201790    2.949756    0.502212
     36          6           0       -2.519972   -3.157030   -0.648126
     37          6           0        1.234148    0.636465   -0.025280
     38          6           0       -1.353350   -0.958475   -0.347639
     39          6           0        1.096198   -0.806411   -0.162405
     40          6           0       -0.002043   -1.443914   -0.413888
     41          1           0       13.837633    0.181906    0.237138
     42          1           0       13.874038   -0.454630   -1.779921
     43          1           0      -12.742780    1.500003    2.151869
     44          1           0      -14.050217    0.615204    1.829856
     45          1           0       13.928767   -2.514293   -0.688707
     46          1           0       12.426628   -2.259217   -1.309790
     47          1           0      -14.127269    2.813310    0.524931
     48          1           0      -13.859811    1.467386   -0.644031
     49          1           0       12.940412   -1.888378    1.655919
     50          1           0       12.057931   -3.265773    1.031476
     51          1           0      -11.866333    3.494441    0.447744
     52          1           0      -12.704453    3.268512   -1.097832
     53          1           0       11.106111   -0.804580   -2.214512
     54          1           0       12.245267    0.633644   -2.864128
     55          1           0       10.599255    0.870909   -2.466740
     56          1           0       12.939771    2.124672    0.334680
     57          1           0       11.787585    2.558410   -0.840164
     58          1           0       13.278000    2.100062   -1.213673
     59          1           0      -13.603373   -1.110141   -0.708660
     60          1           0      -13.607947   -1.832920    0.879222
     61          1           0      -12.147206   -2.045994   -0.232945
     62          1           0      -10.757531   -0.249107    2.828751
     63          1           0      -11.165515   -1.728848    1.961970
     64          1           0      -12.476344   -0.940716    2.964326
     65          1           0       10.231023    1.782516    0.626293
     66          1           0      -10.117891   -1.641623   -0.589327
     67          1           0        9.629991   -0.712642    2.557350
     68          1           0       10.619597   -2.167676    2.894551
     69          1           0        9.519534   -2.364373    1.584158
     70          1           0       -9.493162    1.404092   -1.794963
     71          1           0       -9.276818    2.804721   -1.180380
     72          1           0      -10.350261    2.547340   -2.517989
     73          1           0        8.527981   -0.686303    0.303404
     74          1           0       -7.921868    0.634599    0.148542
     75          1           0        8.358922    3.115316    1.395469
     76          1           0        6.858025    3.641340    0.500129
     77          1           0        8.266231    3.273606   -0.381867
     78          1           0       -8.476281   -2.640241   -1.765114
     79          1           0       -8.395867   -3.155506    0.218287
     80          1           0       -7.061543   -3.215530   -0.681075
     81          1           0        5.994374   -0.328173    0.120804
     82          1           0       -6.014583    0.228484   -0.202327
     83          1           0        4.812848    2.583597    0.402735
     84          1           0       -5.023130   -2.809198   -0.527047
     85          1           0        3.591498   -0.321788    0.109635
     86          1           0       -3.528634    0.150496   -0.245360
     87          1           0        2.688608    3.272873    1.450514
     88          1           0        1.128672    3.247491    0.609991
     89          1           0        2.611489    3.631302   -0.378781
     90          1           0       -3.006677   -3.283427   -1.652142
     91          1           0       -3.155244   -3.616718    0.087269
     92          1           0       -1.568374   -3.856641   -0.683365
     93          1           0        0.100386    1.026311   -0.045183
     94          1           0       -1.462157    0.121130   -0.024905
     95          1           0        1.903424   -1.508116   -0.479052
     96          1           0        0.032535   -2.585919   -0.588950
 ---------------------------------------------------------------------

 SCF Done:  E(RB3LYP) =  -1557.52221644     A.U. after   16 cycles

 Excitation energies and oscillator strengths:

 Excited State   1:      Singlet-A      2.1565 eV  574.94 nm  f=2.7768  <S**2>=0.000
     148 ->149         0.70276
     148 <-149        -0.10359
 This state for optimization and/or second-order correction.
 Total Energy, E(TD-HF/TD-DFT) =  -1557.44296776
 Copying the excited state density for this state as the 1-particle RhoCI density.

 The electronic state is 1-A.
 Alpha  occ. eigenvalues --  -10.21009 -10.20855 -10.20655 -10.20519 -10.20351
 Alpha  occ. eigenvalues --  -10.20192 -10.20052 -10.20001 -10.19831 -10.19804
 Alpha  occ. eigenvalues --  -10.19790 -10.19741 -10.19723 -10.19626 -10.19596
 Alpha  occ. eigenvalues --  -10.19579 -10.19519 -10.19262 -10.19230 -10.19174
 Alpha  occ. eigenvalues --  -10.19029 -10.18909 -10.18890 -10.18631 -10.18599
 Alpha  occ. eigenvalues --  -10.18597 -10.18587 -10.18559 -10.18528 -10.18359
 Alpha  occ. eigenvalues --  -10.18133 -10.18104 -10.17697 -10.17640 -10.17611
 Alpha  occ. eigenvalues --  -10.17337 -10.17303 -10.16743 -10.15293 -10.14489
 Alpha  occ. eigenvalues --   -0.84779  -0.84660  -0.84107  -0.83230  -0.82089
 Alpha  occ. eigenvalues --   -0.81005  -0.79390  -0.78766  -0.78581  -0.77513
 Alpha  occ. eigenvalues --   -0.76995  -0.75428  -0.74128  -0.73443  -0.71591
 Alpha  occ. eigenvalues --   -0.69798  -0.69298  -0.68884  -0.68260  -0.67416
 Alpha  occ. eigenvalues --   -0.67000  -0.66909  -0.66603  -0.66339  -0.65962
 Alpha  occ. eigenvalues --   -0.62699  -0.61631  -0.59707  -0.58509  -0.56908
 Alpha  occ. eigenvalues --   -0.56434  -0.55351  -0.54512  -0.53203  -0.52435
 Alpha  occ. eigenvalues --   -0.51660  -0.51354  -0.49863  -0.49429  -0.48316
 Alpha  occ. eigenvalues --   -0.48073  -0.47745  -0.46879  -0.46363  -0.46083
 Alpha  occ. eigenvalues --   -0.45603  -0.45270  -0.44984  -0.44200  -0.44078
 Alpha  occ. eigenvalues --   -0.43435  -0.43418  -0.43056  -0.42783  -0.42419
 Alpha  occ. eigenvalues --   -0.42135  -0.41853  -0.41337  -0.41140  -0.40601
 Alpha  occ. eigenvalues --   -0.40500  -0.40321  -0.40093  -0.39757  -0.39526
 Alpha  occ. eigenvalues --   -0.39186  -0.39096  -0.38764  -0.38255  -0.38156
 Alpha  occ. eigenvalues --   -0.37293  -0.37097  -0.36921  -0.36819  -0.36285
 Alpha  occ. eigenvalues --   -0.35955  -0.35388  -0.35245  -0.35187  -0.35137
 Alpha  occ. eigenvalues --   -0.34907  -0.34844  -0.34426  -0.34400  -0.33710
 Alpha  occ. eigenvalues --   -0.33631  -0.33573  -0.33335  -0.33169  -0.32834
 Alpha  occ. eigenvalues --   -0.32238  -0.31701  -0.31316  -0.31036  -0.30057
 Alpha  occ. eigenvalues --   -0.29977  -0.29514  -0.29271  -0.28771  -0.28473
 Alpha  occ. eigenvalues --   -0.27402  -0.27019  -0.25929  -0.23960  -0.22566
 Alpha  occ. eigenvalues --   -0.21025  -0.18829  -0.16346
 Alpha virt. eigenvalues --   -0.08287  -0.05024  -0.01208   0.00789   0.02373
 Alpha virt. eigenvalues --    0.04146   0.06002   0.06358   0.06501   0.06960
 Alpha virt. eigenvalues --    0.07645   0.07990   0.08310   0.08602   0.08753

 Mulliken charges:
               1
     1  C    0.007175
     2  C    0.029431
     3  C   -0.151321
     4  C   -0.161842
     5  C   -0.174094
     6  C   -0.182873
     7  C    0.018189
     8  C    0.053623
     9  C   -0.223708
    10  C   -0.196297
    11  C    0.057924
    12  C    0.031542
    13  C   -0.301030
    14  C   -0.326316
    15  C   -0.301251
    16  C   -0.296580
    17  C   -0.112431
    18  C   -0.188940
    19  C   -0.356338
    20  C   -0.315127
    21  C   -0.080357
    22  C   -0.039136
    23  C    0.105789
    24  C    0.112793
    25  C   -0.373209
    26  C   -0.349683
    27  C   -0.127258
    28  C   -0.129807
    29  C   -0.077094
    30  C   -0.113538
    31  C   -0.103630
    32  C   -0.117036
    33  C    0.103010
    34  C    0.145187
    35  C   -0.371444
    36  C   -0.385244
    37  C   -0.141129
    38  C   -0.123318
    39  C   -0.051432
    40  C   -0.103448
    41  H    0.100716
    42  H    0.053435
    43  H    0.092225
    44  H    0.046726
    45  H    0.089603
    46  H    0.092946
    47  H    0.085802
    48  H    0.093816
    49  H    0.111155
    50  H    0.094099
    51  H    0.066589
    52  H    0.080070
    53  H    0.101042
    54  H    0.092170
    55  H    0.091334
    56  H    0.112520
    57  H    0.103366
    58  H    0.104155
    59  H    0.111508
    60  H    0.094482
    61  H    0.082852
    62  H    0.111283
    63  H    0.103647
    64  H    0.076220
    65  H    0.072679
    66  H    0.085945
    67  H    0.117684
    68  H    0.107189
    69  H    0.098079
    70  H    0.119043
    71  H    0.120421
    72  H    0.107189
    73  H    0.074711
    74  H    0.055909
    75  H    0.106472
    76  H    0.093993
    77  H    0.130969
    78  H    0.109094
    79  H    0.121650
    80  H    0.111321
    81  H    0.088857
    82  H    0.087362
    83  H    0.089738
    84  H    0.088433
    85  H    0.081203
    86  H    0.060820
    87  H    0.124397
    88  H    0.112347
    89  H    0.098846
    90  H    0.122998
    91  H    0.132938
    92  H    0.102735
    93  H    0.069540
    94  H    0.076356
    95  H    0.079721
    96  H    0.069849
 Sum of Mulliken charges =  -0.00000

 Dipole moment (field-independent basis, Debye):
    X=              0.2879    Y=             -0.5583    Z=             -0.0295  Tot=              0.6288
 Quadrupole moment (field-independent basis, Debye-Ang):
   XX=           -235.2367   YY=           -230.9035   ZZ=           -255.1294
   XY=              8.0427   XZ=              1.9825   YZ=              1.2437

 Normal termination of Gaussian 16 at Sat Jul 27 02:50:39 2019.
