 Gaussian 16, Revision A.03,
 Gaussian 16:  ES64L-G16RevA.03 25-Dec-2016

 ---------------------------------
 # td=(NStates=1) B3LYP/6-31G(d,p)
 ---------------------------------

 --
 TD
 --
 Symbolic Z-matrix:
 Charge =  0 Multiplicity = 1

                         Standard orientation:
 ---------------------------------------------------------------------
 Center     Atomic      Atomic             Coordinates (Angstroms)
 Number     Number       Type             X           Y           Z
 ---------------------------------------------------------------------
      1          6           0      -12.140828   -0.652861   -0.637389
      2          6           0       12.061407   -0.113740    0.956877
      3          6           0      -13.406990    0.289415   -0.667368
      4          6           0       12.925195   -1.319753    1.242751
      5          6           0      -13.082211    1.758762   -0.637982
      6          6           0       13.335522   -2.134139   -0.011368
      7          6           0      -11.097372   -0.095505    0.341664
      8          6           0       10.982932   -0.410943   -0.075097
      9          6           0      -12.335863    2.145738    0.625232
     10          6           0       12.146250   -2.614614   -0.654785
     11          6           0      -11.180759    1.202068    0.862993
     12          6           0       11.068251   -1.521005   -0.746955
     13          6           0      -11.679158   -0.705045   -2.093559
     14          6           0      -12.550121   -2.141674   -0.108865
     15          6           0       12.916659    1.115575    0.237524
     16          6           0       11.521273    0.395109    2.289738
     17          6           0       -9.869057   -0.905931    0.358611
     18          6           0        9.994406    0.566888   -0.142378
     19          6           0      -10.190761    1.881130    1.779047
     20          6           0        9.989253   -1.923070   -1.968703
     21          6           0       -8.551844   -0.434179    0.304623
     22          6           0        8.626599    0.291750   -0.196267
     23          6           0       -7.399775   -1.321100    0.343796
     24          6           0        7.561587    1.314085   -0.478430
     25          6           0       -7.603249   -2.761458    0.795467
     26          6           0        7.914031    2.637426   -0.648459
     27          6           0       -6.152091   -0.753555    0.143197
     28          6           0        6.215743    1.004545   -0.319056
     29          6           0       -4.829711   -1.381319    0.206583
     30          6           0        5.063535    1.769465   -0.398730
     31          6           0       -3.641349   -0.693562    0.035406
     32          6           0        3.817610    1.233118   -0.226747
     33          6           0       -2.332169   -1.267199    0.248515
     34          6           0        2.491757    1.864935   -0.345250
     35          6           0       -2.227954   -2.714780    0.580001
     36          6           0        2.489553    3.378452   -0.666037
     37          6           0       -1.196189   -0.502859    0.091058
     38          6           0        1.311196    1.133343   -0.094532
     39          6           0       -1.084269    0.916715   -0.003834
     40          6           0        0.091922    1.599146   -0.195278
     41          1           0      -14.133040    0.262498    0.251525
     42          1           0      -14.177819    0.002798   -1.504391
     43          1           0       12.606357   -2.142724    2.103306
     44          1           0       13.775012   -0.698469    1.769368
     45          1           0      -13.954542    2.269316   -0.576163
     46          1           0      -12.512178    1.935490   -1.637974
     47          1           0       13.822588   -2.899854    0.330270
     48          1           0       13.918188   -1.418078   -0.675853
     49          1           0      -13.028615    2.277898    1.305685
     50          1           0      -12.051998    3.232512    0.420993
     51          1           0       11.623272   -3.378236   -0.118387
     52          1           0       12.379795   -3.000125   -1.481626
     53          1           0      -11.474909    0.261984   -2.403094
     54          1           0      -12.615094   -1.236231   -2.445708
     55          1           0      -10.848731   -1.341619   -2.505283
     56          1           0      -12.509619   -2.179775    1.045103
     57          1           0      -11.749443   -2.870713   -0.541848
     58          1           0      -13.589626   -2.298953   -0.373665
     59          1           0       13.230529    0.650192   -0.796409
     60          1           0       13.633104    1.470272    0.823905
     61          1           0       12.387494    1.998011    0.040512
     62          1           0       10.970925   -0.247952    2.990433
     63          1           0       10.964044    1.264455    2.276655
     64          1           0       12.183841    0.616209    2.747960
     65          1           0       -9.944566   -1.938381    0.479728
     66          1           0       10.259798    1.624443   -0.352353
     67          1           0       -9.671908    0.923544    2.049514
     68          1           0      -10.772521    2.268650    2.612627
     69          1           0       -9.393485    2.471159    1.259984
     70          1           0        9.605507   -0.883999   -2.490896
     71          1           0        9.044532   -2.486561   -1.553334
     72          1           0       10.546337   -2.566269   -2.697118
     73          1           0       -8.315654    0.658422   -0.150967
     74          1           0        8.329839   -0.705904   -0.302968
     75          1           0       -7.958148   -2.683918    1.852273
     76          1           0       -6.641259   -3.306045    0.599144
     77          1           0       -8.588095   -2.997947    0.140667
     78          1           0        8.334039    2.798023   -1.763308
     79          1           0        8.807664    3.215944    0.049610
     80          1           0        7.298634    3.495872   -0.610325
     81          1           0       -6.027623    0.344980   -0.111521
     82          1           0        5.992481   -0.098358   -0.051074
     83          1           0       -4.833577   -2.467655    0.283549
     84          1           0        5.080324    2.678986   -0.618824
     85          1           0       -3.796712    0.178277   -0.236667
     86          1           0        3.756323    0.269700   -0.051512
     87          1           0       -2.249894   -2.838584    1.680791
     88          1           0       -1.224057   -3.073302    0.430389
     89          1           0       -3.220080   -3.155988    0.055184
     90          1           0        2.917282    3.477511   -1.744145
     91          1           0        3.096390    3.879652   -0.001779
     92          1           0        1.649787    3.975969   -0.703994
     93          1           0       -0.237158   -0.934361    0.294588
     94          1           0        1.349916    0.072395   -0.064948
     95          1           0       -1.886820    1.666940   -0.017515
     96          1           0        0.005424    2.831639   -0.066199
 ---------------------------------------------------------------------

 SCF Done:  E(RB3LYP) =  -1557.43069605     A.U. after   16 cycles

 Excitation energies and oscillator strengths:

 Excited State   1:      Singlet-A      2.0133 eV  615.82 nm  f=3.2419  <S**2>=0.000
     148 ->149         0.70938
     148 <-149        -0.12921
 This state for optimization and/or second-order correction.
 Total Energy, E(TD-HF/TD-DFT) =  -1557.35670789
 Copying the excited state density for this state as the 1-particle RhoCI density.

 The electronic state is 1-A.
 Alpha  occ. eigenvalues --  -10.20826 -10.20619 -10.20332 -10.20309 -10.20137
 Alpha  occ. eigenvalues --  -10.20037 -10.19779 -10.19771 -10.19576 -10.19531
 Alpha  occ. eigenvalues --  -10.19358 -10.19273 -10.19241 -10.19143 -10.19095
 Alpha  occ. eigenvalues --  -10.18914 -10.18893 -10.18761 -10.18733 -10.18726
 Alpha  occ. eigenvalues --  -10.18661 -10.18588 -10.18528 -10.18451 -10.18164
 Alpha  occ. eigenvalues --  -10.17977 -10.17692 -10.17673 -10.17619 -10.17544
 Alpha  occ. eigenvalues --  -10.17267 -10.17152 -10.17063 -10.17038 -10.16907
 Alpha  occ. eigenvalues --  -10.16826 -10.16490 -10.16474 -10.15949 -10.13290
 Alpha  occ. eigenvalues --   -0.85590  -0.84512  -0.84008  -0.83268  -0.82392
 Alpha  occ. eigenvalues --   -0.81484  -0.79827  -0.79079  -0.78321  -0.77652
 Alpha  occ. eigenvalues --   -0.77215  -0.75782  -0.74510  -0.71989  -0.71276
 Alpha  occ. eigenvalues --   -0.70760  -0.70376  -0.68358  -0.68250  -0.68135
 Alpha  occ. eigenvalues --   -0.67802  -0.66898  -0.66840  -0.66281  -0.65514
 Alpha  occ. eigenvalues --   -0.63194  -0.62185  -0.60537  -0.58681  -0.58454
 Alpha  occ. eigenvalues --   -0.56674  -0.55862  -0.55397  -0.55175  -0.54692
 Alpha  occ. eigenvalues --   -0.52986  -0.52084  -0.50494  -0.50305  -0.49756
 Alpha  occ. eigenvalues --   -0.48496  -0.48033  -0.47603  -0.46954  -0.46379
 Alpha  occ. eigenvalues --   -0.46011  -0.45413  -0.44861  -0.44661  -0.44166
 Alpha  occ. eigenvalues --   -0.43591  -0.43024  -0.42954  -0.42625  -0.42244
 Alpha  occ. eigenvalues --   -0.41813  -0.41663  -0.41657  -0.41206  -0.40949
 Alpha  occ. eigenvalues --   -0.40837  -0.40503  -0.39976  -0.39839  -0.39512
 Alpha  occ. eigenvalues --   -0.39290  -0.39196  -0.39035  -0.38745  -0.38440
 Alpha  occ. eigenvalues --   -0.37812  -0.37660  -0.37528  -0.37254  -0.36950
 Alpha  occ. eigenvalues --   -0.36554  -0.36231  -0.36186  -0.35463  -0.35192
 Alpha  occ. eigenvalues --   -0.34834  -0.34721  -0.34241  -0.34057  -0.33987
 Alpha  occ. eigenvalues --   -0.33749  -0.33596  -0.33399  -0.32644  -0.32392
 Alpha  occ. eigenvalues --   -0.31911  -0.31649  -0.31519  -0.31414  -0.31149
 Alpha  occ. eigenvalues --   -0.30841  -0.29670  -0.29641  -0.28676  -0.28102
 Alpha  occ. eigenvalues --   -0.27664  -0.26366  -0.25406  -0.23809  -0.22897
 Alpha  occ. eigenvalues --   -0.21019  -0.18866  -0.15843
 Alpha virt. eigenvalues --   -0.08657  -0.05381  -0.01878   0.00575   0.03013
 Alpha virt. eigenvalues --    0.04391   0.06189   0.06394   0.06943   0.07629
 Alpha virt. eigenvalues --    0.08101   0.08223   0.08530   0.08815   0.09023

 Mulliken charges:
               1
     1  C   -0.000904
     2  C   -0.029596
     3  C   -0.177675
     4  C   -0.174191
     5  C   -0.179501
     6  C   -0.174439
     7  C    0.074722
     8  C    0.147174
     9  C   -0.210205
    10  C   -0.179464
    11  C    0.029358
    12  C   -0.011180
    13  C   -0.278296
    14  C   -0.319300
    15  C   -0.320588
    16  C   -0.259613
    17  C   -0.142570
    18  C   -0.133023
    19  C   -0.359321
    20  C   -0.355660
    21  C   -0.082690
    22  C   -0.102200
    23  C    0.092848
    24  C    0.147440
    25  C   -0.354951
    26  C   -0.386462
    27  C   -0.128096
    28  C   -0.136190
    29  C   -0.093591
    30  C   -0.004399
    31  C   -0.045251
    32  C   -0.102164
    33  C    0.109947
    34  C    0.084489
    35  C   -0.366305
    36  C   -0.376220
    37  C   -0.137474
    38  C   -0.095759
    39  C   -0.068511
    40  C   -0.093774
    41  H    0.065209
    42  H    0.072095
    43  H    0.067033
    44  H    0.069253
    45  H    0.089176
    46  H    0.078164
    47  H    0.094188
    48  H    0.092703
    49  H    0.115723
    50  H    0.092593
    51  H    0.109897
    52  H    0.101697
    53  H    0.112948
    54  H    0.095647
    55  H    0.095172
    56  H    0.101594
    57  H    0.095626
    58  H    0.109504
    59  H    0.093465
    60  H    0.105806
    61  H    0.111025
    62  H    0.089993
    63  H    0.094498
    64  H    0.089975
    65  H    0.078501
    66  H    0.091855
    67  H    0.113108
    68  H    0.109175
    69  H    0.116831
    70  H    0.100267
    71  H    0.101603
    72  H    0.096633
    73  H    0.077850
    74  H    0.080071
    75  H    0.138720
    76  H    0.113126
    77  H    0.105856
    78  H    0.093323
    79  H    0.076704
    80  H    0.123904
    81  H    0.068625
    82  H    0.060409
    83  H    0.064184
    84  H    0.046879
    85  H    0.049100
    86  H    0.057926
    87  H    0.126454
    88  H    0.117230
    89  H    0.101461
    90  H    0.108002
    91  H    0.128425
    92  H    0.116518
    93  H    0.075654
    94  H    0.077693
    95  H    0.081581
    96  H    0.052933
 Sum of Mulliken charges =  -0.00000

 Dipole moment (field-independent basis, Debye):
    X=              0.1072    Y=              0.2240    Z=              0.2540  Tot=              0.3552
 Quadrupole moment (field-independent basis, Debye-Ang):
   XX=           -215.9525   YY=           -232.0855   ZZ=           -254.9330
   XY=             -2.5957   XZ=             -2.4317   YZ=             -1.6791

 Normal termination of Gaussian 16 at Sat Jul 27 19:13:15 2019.
