 Gaussian 16, Revision A.03,
 Gaussian 16:  ES64L-G16RevA.03 25-Dec-2016

 ---------------------------------
 # td=(NStates=1) B3LYP/6-31G(d,p)
 ---------------------------------

 --
 TD
 --
 Symbolic Z-matrix:
 Charge =  0 Multiplicity = 1

                         Standard orientation:
 ---------------------------------------------------------------------
 Center     Atomic      Atomic             Coordinates (Angstroms)
 Number     Number       Type             X           Y           Z
 ---------------------------------------------------------------------
      1          6           0      -12.159470   -0.515061   -0.681143
      2          6           0       12.100242   -0.050669    0.928873
      3          6           0      -13.436525    0.377495   -0.397477
      4          6           0       12.959795   -1.245385    1.396409
      5          6           0      -13.274513    1.810583   -0.250181
      6          6           0       13.301063   -2.130841    0.273357
      7          6           0      -11.080731   -0.061609    0.262622
      8          6           0       11.002074   -0.460320   -0.067862
      9          6           0      -12.337117    2.062041    0.939335
     10          6           0       12.096986   -2.632148   -0.330146
     11          6           0      -11.179164    1.053397    1.002900
     12          6           0       11.012608   -1.649059   -0.731756
     13          6           0      -11.706219   -0.252168   -2.209716
     14          6           0      -12.524326   -2.025287   -0.561008
     15          6           0       12.934260    1.093301    0.236759
     16          6           0       11.512497    0.544644    2.253817
     17          6           0       -9.819984   -0.931174    0.320871
     18          6           0        9.987471    0.530834   -0.395107
     19          6           0      -10.096681    1.477324    1.984428
     20          6           0       10.055380   -2.106633   -1.772176
     21          6           0       -8.537966   -0.517921    0.272518
     22          6           0        8.596896    0.435469   -0.412589
     23          6           0       -7.330931   -1.421330    0.356229
     24          6           0        7.470264    1.380860   -0.564207
     25          6           0       -7.485834   -2.932824    0.409176
     26          6           0        7.927202    2.743927   -0.896507
     27          6           0       -6.134235   -0.850293    0.185724
     28          6           0        6.211910    0.934232   -0.343468
     29          6           0       -4.857921   -1.455612    0.224541
     30          6           0        4.975522    1.739134   -0.504852
     31          6           0       -3.694207   -0.701360    0.089110
     32          6           0        3.679874    1.236596   -0.368112
     33          6           0       -2.319766   -1.276006    0.194329
     34          6           0        2.537015    1.979630   -0.358472
     35          6           0       -2.181388   -2.719195    0.588525
     36          6           0        2.473588    3.486761   -0.636358
     37          6           0       -1.123772   -0.509283    0.159862
     38          6           0        1.366801    1.220903   -0.207750
     39          6           0       -1.085370    0.898137   -0.105500
     40          6           0        0.007807    1.728732   -0.340741
     41          1           0      -14.077786   -0.017661    0.548752
     42          1           0      -14.067454    0.041241   -1.281422
     43          1           0       12.430656   -1.760802    2.279461
     44          1           0       13.818836   -0.719614    1.865264
     45          1           0      -14.147779    2.390940   -0.093921
     46          1           0      -12.745131    2.382395   -1.018280
     47          1           0       14.031045   -2.959823    0.465590
     48          1           0       13.897699   -1.689693   -0.623876
     49          1           0      -12.935135    2.260864    1.910636
     50          1           0      -11.967849    3.165882    0.938366
     51          1           0       11.707917   -3.307653    0.555195
     52          1           0       12.353710   -3.118222   -1.357964
     53          1           0      -11.670499    0.885741   -2.422116
     54          1           0      -12.411804   -0.887241   -2.799133
     55          1           0      -10.819027   -0.843053   -2.530090
     56          1           0      -12.716539   -2.361921    0.399425
     57          1           0      -11.837569   -2.991218   -0.765564
     58          1           0      -13.478935   -2.109530   -1.091630
     59          1           0       13.517932    0.892045   -0.647674
     60          1           0       13.564109    1.572690    1.231909
     61          1           0       12.397363    1.976471   -0.216999
     62          1           0       10.629680   -0.072452    2.690263
     63          1           0       11.140383    1.487034    2.156262
     64          1           0       12.046083    0.792752    3.015482
     65          1           0       -9.960329   -1.953652    0.367371
     66          1           0       10.154205    1.462471   -0.493435
     67          1           0       -9.378685    0.544873    2.270933
     68          1           0      -10.505034    1.983100    2.974665
     69          1           0       -9.281621    2.183124    1.654491
     70          1           0        9.539111   -1.294994   -2.170854
     71          1           0        9.322394   -2.887023   -1.481138
     72          1           0       10.877067   -2.488278   -2.691507
     73          1           0       -8.209996    0.474358    0.116965
     74          1           0        8.288215   -0.723811   -0.152291
     75          1           0       -8.105916   -3.230793    1.221669
     76          1           0       -6.419500   -3.459935    0.301995
     77          1           0       -8.137521   -3.285629   -0.541162
     78          1           0        8.375359    2.871988   -1.917931
     79          1           0        8.626614    3.228668   -0.129648
     80          1           0        6.968354    3.349303   -1.008323
     81          1           0       -6.101803    0.314298    0.066958
     82          1           0        6.128445   -0.275937   -0.170315
     83          1           0       -4.949386   -2.451741    0.151308
     84          1           0        4.921691    2.836248   -0.687698
     85          1           0       -3.958282    0.251008   -0.111877
     86          1           0        3.631455    0.053294   -0.139052
     87          1           0       -2.778237   -2.982672    1.423713
     88          1           0       -1.012368   -3.028018    0.593395
     89          1           0       -2.635302   -3.342277   -0.233500
     90          1           0        2.961353    3.637713   -1.598669
     91          1           0        3.059782    3.957198    0.266065
     92          1           0        1.737813    4.160849   -0.464228
     93          1           0       -0.313259   -1.010162    0.259658
     94          1           0        1.560000    0.242151    0.065147
     95          1           0       -2.002109    1.415886   -0.348320
     96          1           0       -0.121228    2.700262   -0.267852
 ---------------------------------------------------------------------

 SCF Done:  E(RB3LYP) =  -1557.55536462     A.U. after   15 cycles

 Excitation energies and oscillator strengths:

 Excited State   1:      Singlet-A      2.1195 eV  584.98 nm  f=2.7292  <S**2>=0.000
     148 ->149         0.70315
     148 <-149        -0.10931
 This state for optimization and/or second-order correction.
 Total Energy, E(TD-HF/TD-DFT) =  -1557.47747540
 Copying the excited state density for this state as the 1-particle RhoCI density.

 The electronic state is 1-A.
 Alpha  occ. eigenvalues --  -10.21174 -10.21166 -10.20731 -10.20523 -10.20463
 Alpha  occ. eigenvalues --  -10.20142 -10.19859 -10.19836 -10.19444 -10.19429
 Alpha  occ. eigenvalues --  -10.19410 -10.19354 -10.19351 -10.19336 -10.19161
 Alpha  occ. eigenvalues --  -10.19147 -10.19147 -10.19056 -10.18949 -10.18891
 Alpha  occ. eigenvalues --  -10.18885 -10.18847 -10.18743 -10.18680 -10.18534
 Alpha  occ. eigenvalues --  -10.18518 -10.18432 -10.18386 -10.18371 -10.18259
 Alpha  occ. eigenvalues --  -10.18205 -10.18177 -10.18169 -10.18164 -10.18092
 Alpha  occ. eigenvalues --  -10.17892 -10.17642 -10.17572 -10.16750 -10.15376
 Alpha  occ. eigenvalues --   -0.85171  -0.84822  -0.83622  -0.83305  -0.81831
 Alpha  occ. eigenvalues --   -0.81331  -0.78843  -0.78108  -0.77955  -0.77535
 Alpha  occ. eigenvalues --   -0.77279  -0.75453  -0.73944  -0.72205  -0.71935
 Alpha  occ. eigenvalues --   -0.70480  -0.68949  -0.68699  -0.68295  -0.68030
 Alpha  occ. eigenvalues --   -0.67266  -0.67065  -0.66748  -0.66284  -0.65980
 Alpha  occ. eigenvalues --   -0.63256  -0.61923  -0.59494  -0.59169  -0.57199
 Alpha  occ. eigenvalues --   -0.56740  -0.56293  -0.55625  -0.55157  -0.53906
 Alpha  occ. eigenvalues --   -0.52240  -0.51586  -0.50588  -0.49520  -0.49264
 Alpha  occ. eigenvalues --   -0.48423  -0.48140  -0.47492  -0.47100  -0.46355
 Alpha  occ. eigenvalues --   -0.45736  -0.44942  -0.44629  -0.44363  -0.44101
 Alpha  occ. eigenvalues --   -0.43957  -0.43546  -0.43148  -0.42950  -0.42319
 Alpha  occ. eigenvalues --   -0.41668  -0.41501  -0.41267  -0.41146  -0.41056
 Alpha  occ. eigenvalues --   -0.40623  -0.40431  -0.39555  -0.39436  -0.39214
 Alpha  occ. eigenvalues --   -0.38896  -0.38759  -0.38552  -0.38333  -0.37866
 Alpha  occ. eigenvalues --   -0.37689  -0.37072  -0.36701  -0.36258  -0.36050
 Alpha  occ. eigenvalues --   -0.35915  -0.35797  -0.35566  -0.35229  -0.35198
 Alpha  occ. eigenvalues --   -0.34632  -0.34467  -0.34311  -0.33880  -0.33677
 Alpha  occ. eigenvalues --   -0.33400  -0.33222  -0.32933  -0.32817  -0.32767
 Alpha  occ. eigenvalues --   -0.32086  -0.31878  -0.31710  -0.31601  -0.30990
 Alpha  occ. eigenvalues --   -0.30711  -0.30178  -0.29937  -0.29182  -0.28555
 Alpha  occ. eigenvalues --   -0.27891  -0.27272  -0.25800  -0.24176  -0.22689
 Alpha  occ. eigenvalues --   -0.21054  -0.19222  -0.16186
 Alpha virt. eigenvalues --   -0.08348  -0.04948  -0.01532   0.00645   0.02650
 Alpha virt. eigenvalues --    0.04142   0.05831   0.06393   0.07187   0.07492
 Alpha virt. eigenvalues --    0.07726   0.08017   0.08288   0.08465   0.09107

 Mulliken charges:
               1
     1  C   -0.014472
     2  C    0.006770
     3  C   -0.163484
     4  C   -0.165284
     5  C   -0.180127
     6  C   -0.176052
     7  C    0.087616
     8  C    0.086888
     9  C   -0.240552
    10  C   -0.187681
    11  C    0.100978
    12  C    0.065473
    13  C   -0.296887
    14  C   -0.323220
    15  C   -0.294301
    16  C   -0.311619
    17  C   -0.141196
    18  C   -0.112949
    19  C   -0.370001
    20  C   -0.332619
    21  C   -0.068496
    22  C   -0.115488
    23  C    0.121013
    24  C    0.156773
    25  C   -0.373492
    26  C   -0.385721
    27  C   -0.135935
    28  C   -0.130310
    29  C   -0.049373
    30  C   -0.117916
    31  C   -0.100670
    32  C   -0.108987
    33  C    0.085230
    34  C    0.128942
    35  C   -0.370402
    36  C   -0.375199
    37  C   -0.071665
    38  C   -0.110093
    39  C   -0.088319
    40  C   -0.093579
    41  H    0.076646
    42  H    0.078952
    43  H    0.093042
    44  H    0.089556
    45  H    0.101290
    46  H    0.104286
    47  H    0.087948
    48  H    0.077717
    49  H    0.091108
    50  H    0.086858
    51  H    0.084349
    52  H    0.070686
    53  H    0.101859
    54  H    0.094419
    55  H    0.108293
    56  H    0.117759
    57  H    0.082589
    58  H    0.102791
    59  H    0.111922
    60  H    0.057845
    61  H    0.103168
    62  H    0.090042
    63  H    0.100295
    64  H    0.108114
    65  H    0.075796
    66  H    0.050465
    67  H    0.099658
    68  H    0.084383
    69  H    0.108398
    70  H    0.131797
    71  H    0.120678
    72  H    0.053960
    73  H    0.081460
    74  H    0.034039
    75  H    0.132942
    76  H    0.099515
    77  H    0.103372
    78  H    0.123296
    79  H    0.119055
    80  H    0.099079
    81  H    0.060588
    82  H    0.079878
    83  H    0.063574
    84  H    0.084166
    85  H    0.078462
    86  H    0.070247
    87  H    0.134874
    88  H    0.093464
    89  H    0.112770
    90  H    0.129192
    91  H    0.100684
    92  H    0.125847
    93  H    0.060232
    94  H    0.074627
    95  H    0.077609
    96  H    0.080763
 Sum of Mulliken charges =  -0.00000

 Dipole moment (field-independent basis, Debye):
    X=             -1.7676    Y=              0.5251    Z=              0.0109  Tot=              1.8439
 Quadrupole moment (field-independent basis, Debye-Ang):
   XX=           -231.1433   YY=           -231.4572   ZZ=           -256.0488
   XY=              7.6492   XZ=              2.9175   YZ=             -1.9978

 Normal termination of Gaussian 16 at Mon Jul 29 17:55:35 2019.
