 Gaussian 16, Revision A.03,
 Gaussian 16:  ES64L-G16RevA.03 25-Dec-2016

 ---------------------------------
 # td=(NStates=1) B3LYP/6-31G(d,p)
 ---------------------------------

 --
 TD
 --
 Symbolic Z-matrix:
 Charge =  0 Multiplicity = 1

                         Standard orientation:
 ---------------------------------------------------------------------
 Center     Atomic      Atomic             Coordinates (Angstroms)
 Number     Number       Type             X           Y           Z
 ---------------------------------------------------------------------
      1          6           0      -12.178486   -0.565564   -0.589162
      2          6           0       12.040841   -0.028637    1.057028
      3          6           0      -13.448170    0.269423   -0.392617
      4          6           0       12.915328   -1.206052    1.380272
      5          6           0      -13.172381    1.766265   -0.449381
      6          6           0       13.353838   -2.027965    0.187890
      7          6           0      -11.004758   -0.046847    0.250137
      8          6           0       10.939947   -0.413351   -0.006764
      9          6           0      -12.240303    2.227437    0.624520
     10          6           0       12.116609   -2.612472   -0.567761
     11          6           0      -11.057413    1.211029    0.916039
     12          6           0       11.015136   -1.593372   -0.796979
     13          6           0      -11.737252   -0.459076   -2.094860
     14          6           0      -12.486060   -1.955180   -0.257143
     15          6           0       12.966289    1.033671    0.415432
     16          6           0       11.410771    0.441527    2.295616
     17          6           0       -9.808717   -0.786758    0.467949
     18          6           0        9.895160    0.602135   -0.138195
     19          6           0      -10.135024    1.797195    1.954494
     20          6           0       10.051285   -1.827049   -1.923018
     21          6           0       -8.489940   -0.414855    0.351646
     22          6           0        8.600905    0.382515   -0.296057
     23          6           0       -7.382687   -1.364527    0.450535
     24          6           0        7.520684    1.355141   -0.616532
     25          6           0       -7.653281   -2.897930    0.545340
     26          6           0        7.968542    2.831683   -0.566254
     27          6           0       -6.097506   -0.830302    0.262275
     28          6           0        6.267658    1.011188   -0.289417
     29          6           0       -4.932225   -1.472837    0.210079
     30          6           0        5.076061    1.757652   -0.360039
     31          6           0       -3.724329   -0.713992    0.095430
     32          6           0        3.861643    1.150768   -0.436144
     33          6           0       -2.383396   -1.276622    0.230133
     34          6           0        2.539710    1.773973   -0.669518
     35          6           0       -2.344793   -2.800639    0.421186
     36          6           0        2.551239    3.300863   -0.707756
     37          6           0       -1.278833   -0.605780    0.018289
     38          6           0        1.397158    1.001005   -0.472660
     39          6           0       -1.107313    0.799893   -0.294032
     40          6           0        0.027148    1.491692   -0.418173
     41          1           0      -14.046872    0.047115    0.558682
     42          1           0      -14.135854   -0.053746   -1.055975
     43          1           0       12.397496   -1.946807    2.040846
     44          1           0       13.777435   -0.874374    1.980733
     45          1           0      -14.054166    2.515420   -0.163048
     46          1           0      -12.697561    2.064878   -1.307599
     47          1           0       14.075175   -2.848028    0.445622
     48          1           0       13.986784   -1.315768   -0.559193
     49          1           0      -12.806815    2.242858    1.658203
     50          1           0      -11.891444    3.249152    0.568580
     51          1           0       11.923265   -3.623032   -0.110181
     52          1           0       12.467532   -3.234136   -1.293323
     53          1           0      -11.668204    0.618786   -2.519109
     54          1           0      -12.410576   -0.933082   -2.765255
     55          1           0      -10.670307   -0.927654   -2.256382
     56          1           0      -12.659431   -2.051000    0.950859
     57          1           0      -11.769360   -2.651651   -0.663638
     58          1           0      -13.421202   -2.468334   -0.650921
     59          1           0       13.304664    0.855633   -0.460789
     60          1           0       13.838505    1.137506    1.067924
     61          1           0       12.569796    2.052713    0.342749
     62          1           0       10.939363   -0.297809    2.832885
     63          1           0       10.707930    1.245181    2.301136
     64          1           0       12.084718    0.663848    3.150495
     65          1           0      -10.216188   -1.734235    0.598218
     66          1           0       10.382117    1.653307   -0.270857
     67          1           0       -9.308456    1.090526    2.373420
     68          1           0      -10.862720    2.133651    2.711944
     69          1           0       -9.600805    2.583839    1.596839
     70          1           0        9.797493   -0.819193   -2.580966
     71          1           0        9.016342   -2.196228   -1.538704
     72          1           0       10.455630   -2.773470   -2.659676
     73          1           0       -8.230482    0.627236    0.355903
     74          1           0        8.185013   -0.546118   -0.158401
     75          1           0       -8.481970   -3.102923    1.397664
     76          1           0       -6.830430   -3.377413    0.893906
     77          1           0       -8.241518   -3.389645   -0.333878
     78          1           0        8.905399    3.104668   -1.242334
     79          1           0        8.308875    3.162696    0.331024
     80          1           0        7.098913    3.499162   -0.850688
     81          1           0       -5.962501    0.333247   -0.159114
     82          1           0        6.168062   -0.226972   -0.267556
     83          1           0       -4.827407   -2.698504    0.218662
     84          1           0        5.149840    2.841691   -0.581406
     85          1           0       -3.712717    0.439738    0.159467
     86          1           0        3.692698    0.122821   -0.430045
     87          1           0       -2.668880   -3.162944    1.409808
     88          1           0       -1.230098   -3.368817    0.116408
     89          1           0       -2.831584   -3.283614   -0.454033
     90          1           0        3.148600    3.565217   -1.554466
     91          1           0        3.157305    3.775303    0.137877
     92          1           0        1.691264    4.011763   -0.919014
     93          1           0       -0.483496   -1.306630    0.203972
     94          1           0        1.528892   -0.214590   -0.445043
     95          1           0       -1.986575    1.391224   -0.485743
     96          1           0       -0.170007    2.566055   -0.417465
 ---------------------------------------------------------------------

 SCF Done:  E(RB3LYP) =  -1557.57529337     A.U. after   15 cycles

 Excitation energies and oscillator strengths:

 Excited State   1:      Singlet-A      2.1536 eV  575.72 nm  f=2.7136  <S**2>=0.000
     148 ->149         0.69956
     148 ->150        -0.10345
 This state for optimization and/or second-order correction.
 Total Energy, E(TD-HF/TD-DFT) =  -1557.49615118
 Copying the excited state density for this state as the 1-particle RhoCI density.

 The electronic state is 1-A.
 Alpha  occ. eigenvalues --  -10.21070 -10.20963 -10.20788 -10.20642 -10.20474
 Alpha  occ. eigenvalues --  -10.20203 -10.20159 -10.19895 -10.19833 -10.19738
 Alpha  occ. eigenvalues --  -10.19650 -10.19583 -10.19507 -10.19441 -10.19385
 Alpha  occ. eigenvalues --  -10.19221 -10.19200 -10.19039 -10.19018 -10.18976
 Alpha  occ. eigenvalues --  -10.18953 -10.18887 -10.18763 -10.18760 -10.18715
 Alpha  occ. eigenvalues --  -10.18581 -10.18518 -10.18397 -10.18241 -10.18230
 Alpha  occ. eigenvalues --  -10.17934 -10.17817 -10.17775 -10.17743 -10.17595
 Alpha  occ. eigenvalues --  -10.17585 -10.17465 -10.16985 -10.15218 -10.15197
 Alpha  occ. eigenvalues --   -0.85304  -0.84458  -0.83593  -0.83038  -0.81944
 Alpha  occ. eigenvalues --   -0.81138  -0.79071  -0.78633  -0.78234  -0.77906
 Alpha  occ. eigenvalues --   -0.76821  -0.75175  -0.74145  -0.72133  -0.71440
 Alpha  occ. eigenvalues --   -0.69675  -0.69636  -0.68507  -0.68224  -0.67901
 Alpha  occ. eigenvalues --   -0.67616  -0.67541  -0.67186  -0.66708  -0.65886
 Alpha  occ. eigenvalues --   -0.62645  -0.62144  -0.59301  -0.58935  -0.57374
 Alpha  occ. eigenvalues --   -0.56651  -0.56247  -0.55653  -0.54022  -0.53011
 Alpha  occ. eigenvalues --   -0.51909  -0.51242  -0.50176  -0.49765  -0.48891
 Alpha  occ. eigenvalues --   -0.47913  -0.47576  -0.46880  -0.46608  -0.45726
 Alpha  occ. eigenvalues --   -0.45462  -0.45066  -0.44898  -0.44539  -0.44285
 Alpha  occ. eigenvalues --   -0.43977  -0.43132  -0.43020  -0.42479  -0.42050
 Alpha  occ. eigenvalues --   -0.42016  -0.41676  -0.41362  -0.40772  -0.40467
 Alpha  occ. eigenvalues --   -0.40371  -0.39804  -0.39321  -0.39113  -0.38927
 Alpha  occ. eigenvalues --   -0.38862  -0.38620  -0.38256  -0.37670  -0.37592
 Alpha  occ. eigenvalues --   -0.37292  -0.37152  -0.37019  -0.36563  -0.36262
 Alpha  occ. eigenvalues --   -0.36196  -0.36074  -0.35544  -0.35410  -0.35008
 Alpha  occ. eigenvalues --   -0.34810  -0.34514  -0.34391  -0.34107  -0.33915
 Alpha  occ. eigenvalues --   -0.33595  -0.33385  -0.32987  -0.32810  -0.32528
 Alpha  occ. eigenvalues --   -0.31985  -0.31951  -0.31715  -0.31626  -0.31105
 Alpha  occ. eigenvalues --   -0.30954  -0.30652  -0.29919  -0.29295  -0.28908
 Alpha  occ. eigenvalues --   -0.28119  -0.27382  -0.26435  -0.23879  -0.22014
 Alpha  occ. eigenvalues --   -0.20718  -0.18496  -0.16486
 Alpha virt. eigenvalues --   -0.08237  -0.05592  -0.01863   0.00330   0.01784
 Alpha virt. eigenvalues --    0.04140   0.06005   0.06477   0.07051   0.07520
 Alpha virt. eigenvalues --    0.07590   0.07744   0.08463   0.08667   0.08846

 Mulliken charges:
               1
     1  C    0.014185
     2  C    0.020835
     3  C   -0.152721
     4  C   -0.164163
     5  C   -0.185190
     6  C   -0.186979
     7  C    0.036977
     8  C    0.037280
     9  C   -0.218571
    10  C   -0.217438
    11  C    0.054246
    12  C    0.101697
    13  C   -0.306315
    14  C   -0.316324
    15  C   -0.296333
    16  C   -0.312329
    17  C   -0.111260
    18  C   -0.132423
    19  C   -0.356140
    20  C   -0.349640
    21  C   -0.092498
    22  C   -0.063827
    23  C    0.096169
    24  C    0.072757
    25  C   -0.357522
    26  C   -0.363639
    27  C   -0.109740
    28  C   -0.085661
    29  C   -0.070215
    30  C   -0.089875
    31  C   -0.134690
    32  C   -0.088279
    33  C    0.111339
    34  C    0.109029
    35  C   -0.371787
    36  C   -0.388125
    37  C   -0.095813
    38  C   -0.121993
    39  C   -0.093705
    40  C   -0.082580
    41  H    0.079328
    42  H    0.099874
    43  H    0.084071
    44  H    0.082412
    45  H    0.073959
    46  H    0.110914
    47  H    0.079531
    48  H    0.067931
    49  H    0.074642
    50  H    0.103616
    51  H    0.088118
    52  H    0.102307
    53  H    0.095366
    54  H    0.105028
    55  H    0.096744
    56  H    0.084943
    57  H    0.107959
    58  H    0.094949
    59  H    0.118036
    60  H    0.091238
    61  H    0.089108
    62  H    0.109899
    63  H    0.105556
    64  H    0.081588
    65  H    0.075931
    66  H    0.077974
    67  H    0.103141
    68  H    0.106941
    69  H    0.127841
    70  H    0.108078
    71  H    0.110324
    72  H    0.067024
    73  H    0.083952
    74  H    0.071594
    75  H    0.093679
    76  H    0.120632
    77  H    0.120432
    78  H    0.088980
    79  H    0.141022
    80  H    0.091752
    81  H    0.072024
    82  H    0.055530
    83  H    0.084849
    84  H    0.086121
    85  H    0.080109
    86  H    0.079446
    87  H    0.128385
    88  H    0.058600
    89  H    0.131109
    90  H    0.126712
    91  H    0.118550
    92  H    0.106168
    93  H    0.074529
    94  H    0.076178
    95  H    0.083950
    96  H    0.082588
 Sum of Mulliken charges =  -0.00000

 Dipole moment (field-independent basis, Debye):
    X=             -2.6404    Y=             -0.0736    Z=             -0.1726  Tot=              2.6471
 Quadrupole moment (field-independent basis, Debye-Ang):
   XX=           -225.4856   YY=           -229.7969   ZZ=           -256.5547
   XY=              0.4789   XZ=              5.2361   YZ=             -0.4470

 Normal termination of Gaussian 16 at Sun Jul 28 08:26:57 2019.
