 Gaussian 16, Revision A.03,
 Gaussian 16:  ES64L-G16RevA.03 25-Dec-2016

 ---------------------------------
 # td=(NStates=1) B3LYP/6-31G(d,p)
 ---------------------------------

 --
 TD
 --
 Symbolic Z-matrix:
 Charge =  0 Multiplicity = 1

                         Standard orientation:
 ---------------------------------------------------------------------
 Center     Atomic      Atomic             Coordinates (Angstroms)
 Number     Number       Type             X           Y           Z
 ---------------------------------------------------------------------
      1          6           0      -12.103890   -0.605573   -0.656398
      2          6           0       12.068624    0.012698    0.925524
      3          6           0      -13.391333    0.253100   -0.691829
      4          6           0       13.018783   -1.195316    1.117371
      5          6           0      -13.117256    1.712265   -0.656157
      6          6           0       13.431454   -1.971091   -0.141810
      7          6           0      -10.976267   -0.054390    0.221811
      8          6           0       10.983143   -0.472458   -0.118560
      9          6           0      -12.389358    2.068413    0.657880
     10          6           0       12.183288   -2.692901   -0.696344
     11          6           0      -11.156104    1.198421    0.808584
     12          6           0       11.056242   -1.619468   -0.769509
     13          6           0      -11.473888   -0.576539   -2.120349
     14          6           0      -12.400667   -2.051308   -0.406257
     15          6           0       12.887869    1.224264    0.244764
     16          6           0       11.438261    0.471702    2.187963
     17          6           0       -9.903487   -0.861233    0.411280
     18          6           0        9.822413    0.520146   -0.159832
     19          6           0      -10.169729    1.754741    1.698614
     20          6           0        9.999976   -2.057969   -1.719095
     21          6           0       -8.585786   -0.464890    0.333284
     22          6           0        8.487189    0.265251   -0.286542
     23          6           0       -7.367885   -1.385380    0.418740
     24          6           0        7.509014    1.317798   -0.443408
     25          6           0       -7.705396   -2.870353    0.741898
     26          6           0        7.905529    2.720479   -0.560336
     27          6           0       -6.163157   -0.782617    0.403531
     28          6           0        6.148633    0.881266   -0.411389
     29          6           0       -4.877414   -1.365008    0.544456
     30          6           0        4.987253    1.743232   -0.397171
     31          6           0       -3.669585   -0.712071    0.222360
     32          6           0        3.772125    1.169437   -0.182257
     33          6           0       -2.300906   -1.175523    0.429523
     34          6           0        2.490058    1.915011   -0.238368
     35          6           0       -2.249216   -2.643595    0.621489
     36          6           0        2.455238    3.356732   -0.694588
     37          6           0       -1.185849   -0.417689    0.185225
     38          6           0        1.323283    1.221841   -0.068685
     39          6           0       -1.125825    0.895970   -0.212566
     40          6           0        0.033328    1.638513   -0.310154
     41          1           0      -13.760478   -0.034064    0.257554
     42          1           0      -13.961261    0.086123   -1.508893
     43          1           0       12.431092   -1.846501    2.029814
     44          1           0       13.854764   -0.771204    1.644220
     45          1           0      -13.992806    2.163175   -0.845040
     46          1           0      -12.560685    1.950579   -1.623413
     47          1           0       14.180024   -2.803745    0.258316
     48          1           0       13.890780   -1.475801   -0.990002
     49          1           0      -13.018243    2.014834    1.544643
     50          1           0      -11.952462    3.228998    0.549668
     51          1           0       11.883439   -3.684370   -0.120936
     52          1           0       12.323691   -3.008064   -1.826678
     53          1           0      -10.992232    0.441524   -2.443508
     54          1           0      -12.037066   -0.797063   -2.988340
     55          1           0      -10.533651   -1.218996   -2.126951
     56          1           0      -12.815316   -2.203517    0.631242
     57          1           0      -11.640154   -2.791325   -0.469249
     58          1           0      -13.138580   -2.283373   -1.134333
     59          1           0       13.212098    0.636574   -0.711205
     60          1           0       13.747352    1.642314    0.919951
     61          1           0       12.311619    2.159711    0.096562
     62          1           0       11.010597   -0.621175    2.742724
     63          1           0       10.660652    1.226194    2.060945
     64          1           0       12.539926    1.053209    2.733883
     65          1           0       -9.948997   -1.967247    0.279283
     66          1           0       10.350830    1.553394   -0.131725
     67          1           0       -9.278035    1.098409    2.127243
     68          1           0      -10.647002    2.218406    2.467591
     69          1           0       -9.561644    2.663887    1.162299
     70          1           0        9.508926   -1.282162   -2.206409
     71          1           0        9.345519   -2.759643   -1.205500
     72          1           0       10.318753   -2.774240   -2.491622
     73          1           0       -8.416083    0.566585    0.050456
     74          1           0        8.036820   -0.767342   -0.225804
     75          1           0       -8.222744   -3.050835    1.678677
     76          1           0       -6.623615   -3.402514    0.856057
     77          1           0       -8.372929   -3.267175   -0.114716
     78          1           0        8.288352    3.018253   -1.600975
     79          1           0        8.797076    2.998430    0.160969
     80          1           0        6.899943    3.188336   -0.498474
     81          1           0       -6.310302    0.173983    0.227705
     82          1           0        5.962559   -0.017287   -0.184522
     83          1           0       -5.067438   -2.472446    0.720521
     84          1           0        4.935586    2.740358   -0.624508
     85          1           0       -3.929489    0.391134   -0.121891
     86          1           0        3.829262    0.105187   -0.124933
     87          1           0       -2.669306   -2.977304    1.627423
     88          1           0       -1.095219   -2.734825    1.071529
     89          1           0       -2.516774   -3.414041   -0.326302
     90          1           0        2.979576    3.517269   -1.573129
     91          1           0        3.080455    3.852941   -0.046416
     92          1           0        1.366018    3.789935   -0.762043
     93          1           0       -0.061518   -0.758595    0.203854
     94          1           0        1.446798    0.344265    0.405275
     95          1           0       -1.999372    1.548789   -0.320120
     96          1           0       -0.201357    2.616601   -0.556937
 ---------------------------------------------------------------------

 SCF Done:  E(RB3LYP) =  -1557.54892510     A.U. after   15 cycles

 Excitation energies and oscillator strengths:

 Excited State   1:      Singlet-A      2.0503 eV  604.70 nm  f=3.0298  <S**2>=0.000
     148 ->149         0.70641
     148 <-149        -0.10742
 This state for optimization and/or second-order correction.
 Total Energy, E(TD-HF/TD-DFT) =  -1557.47357668
 Copying the excited state density for this state as the 1-particle RhoCI density.

 The electronic state is 1-A.
 Alpha  occ. eigenvalues --  -10.20882 -10.20504 -10.20446 -10.20231 -10.20217
 Alpha  occ. eigenvalues --  -10.20197 -10.20173 -10.20128 -10.20099 -10.20032
 Alpha  occ. eigenvalues --  -10.19904 -10.19734 -10.19542 -10.19516 -10.19511
 Alpha  occ. eigenvalues --  -10.19508 -10.19317 -10.19219 -10.19217 -10.19092
 Alpha  occ. eigenvalues --  -10.18915 -10.18833 -10.18642 -10.18556 -10.18461
 Alpha  occ. eigenvalues --  -10.18293 -10.18086 -10.18086 -10.18058 -10.17821
 Alpha  occ. eigenvalues --  -10.17812 -10.17743 -10.17604 -10.17252 -10.17101
 Alpha  occ. eigenvalues --  -10.17063 -10.17033 -10.16567 -10.16365 -10.16112
 Alpha  occ. eigenvalues --   -0.85683  -0.84593  -0.84147  -0.83034  -0.82289
 Alpha  occ. eigenvalues --   -0.81377  -0.79402  -0.78818  -0.78500  -0.78286
 Alpha  occ. eigenvalues --   -0.76803  -0.75489  -0.74482  -0.72247  -0.71863
 Alpha  occ. eigenvalues --   -0.70835  -0.68857  -0.68119  -0.67849  -0.67594
 Alpha  occ. eigenvalues --   -0.67322  -0.66488  -0.66462  -0.66320  -0.66015
 Alpha  occ. eigenvalues --   -0.62441  -0.61915  -0.60060  -0.59237  -0.57122
 Alpha  occ. eigenvalues --   -0.56914  -0.55857  -0.55398  -0.54683  -0.54005
 Alpha  occ. eigenvalues --   -0.52343  -0.51984  -0.50373  -0.49604  -0.49266
 Alpha  occ. eigenvalues --   -0.48334  -0.47876  -0.47730  -0.46782  -0.46307
 Alpha  occ. eigenvalues --   -0.45759  -0.45122  -0.44885  -0.44383  -0.43595
 Alpha  occ. eigenvalues --   -0.43339  -0.42989  -0.42712  -0.42532  -0.41955
 Alpha  occ. eigenvalues --   -0.41947  -0.41839  -0.41299  -0.40965  -0.40884
 Alpha  occ. eigenvalues --   -0.40654  -0.40479  -0.40151  -0.40088  -0.39743
 Alpha  occ. eigenvalues --   -0.39426  -0.39077  -0.38855  -0.38240  -0.37998
 Alpha  occ. eigenvalues --   -0.37730  -0.37368  -0.37262  -0.37140  -0.36960
 Alpha  occ. eigenvalues --   -0.36430  -0.36144  -0.35665  -0.35456  -0.35310
 Alpha  occ. eigenvalues --   -0.34957  -0.34757  -0.34367  -0.33754  -0.33557
 Alpha  occ. eigenvalues --   -0.33232  -0.33135  -0.32648  -0.32510  -0.31997
 Alpha  occ. eigenvalues --   -0.31825  -0.31758  -0.31551  -0.31285  -0.31227
 Alpha  occ. eigenvalues --   -0.30778  -0.30071  -0.29797  -0.29233  -0.29019
 Alpha  occ. eigenvalues --   -0.28011  -0.27153  -0.26808  -0.24330  -0.23042
 Alpha  occ. eigenvalues --   -0.20666  -0.18503  -0.16136
 Alpha virt. eigenvalues --   -0.08498  -0.05260  -0.02381   0.00411   0.02528
 Alpha virt. eigenvalues --    0.04486   0.04805   0.06335   0.06808   0.07115
 Alpha virt. eigenvalues --    0.07564   0.07862   0.08099   0.08316   0.08456

 Mulliken charges:
               1
     1  C   -0.026659
     2  C   -0.014806
     3  C   -0.161487
     4  C   -0.146685
     5  C   -0.174154
     6  C   -0.188420
     7  C    0.130704
     8  C    0.089181
     9  C   -0.231009
    10  C   -0.209083
    11  C    0.074670
    12  C    0.047823
    13  C   -0.313193
    14  C   -0.296583
    15  C   -0.295669
    16  C   -0.235858
    17  C   -0.134547
    18  C   -0.151056
    19  C   -0.360792
    20  C   -0.367729
    21  C   -0.119466
    22  C   -0.094956
    23  C    0.083504
    24  C    0.124773
    25  C   -0.367138
    26  C   -0.368699
    27  C   -0.072917
    28  C   -0.109650
    29  C   -0.074648
    30  C   -0.057804
    31  C   -0.118643
    32  C   -0.121836
    33  C    0.096008
    34  C    0.085135
    35  C   -0.354018
    36  C   -0.378413
    37  C   -0.102404
    38  C   -0.093065
    39  C   -0.069776
    40  C   -0.088372
    41  H    0.093181
    42  H    0.091029
    43  H    0.059651
    44  H    0.092826
    45  H    0.093924
    46  H    0.089218
    47  H    0.077897
    48  H    0.116247
    49  H    0.117799
    50  H    0.071026
    51  H    0.097673
    52  H    0.084092
    53  H    0.081519
    54  H    0.100125
    55  H    0.091462
    56  H    0.086598
    57  H    0.105541
    58  H    0.102044
    59  H    0.100193
    60  H    0.086260
    61  H    0.101912
    62  H    0.065343
    63  H    0.115826
    64  H    0.036984
    65  H    0.071770
    66  H    0.078946
    67  H    0.108862
    68  H    0.111570
    69  H    0.079680
    70  H    0.125987
    71  H    0.112375
    72  H    0.089803
    73  H    0.088654
    74  H    0.090390
    75  H    0.136983
    76  H    0.085342
    77  H    0.115451
    78  H    0.116464
    79  H    0.110103
    80  H    0.108504
    81  H    0.058494
    82  H    0.059890
    83  H    0.070608
    84  H    0.070632
    85  H    0.071655
    86  H    0.080638
    87  H    0.117784
    88  H    0.068603
    89  H    0.111735
    90  H    0.130669
    91  H    0.130835
    92  H    0.106682
    93  H    0.079492
    94  H    0.078220
    95  H    0.073779
    96  H    0.068770
 Sum of Mulliken charges =  -0.00000

 Dipole moment (field-independent basis, Debye):
    X=             -0.1545    Y=              0.3899    Z=             -0.7531  Tot=              0.8620
 Quadrupole moment (field-independent basis, Debye-Ang):
   XX=           -218.3901   YY=           -236.4826   ZZ=           -256.2003
   XY=             -1.0452   XZ=             -4.4756   YZ=             -2.5105

 Normal termination of Gaussian 16 at Wed Jul 31 13:47:09 2019.
