 Gaussian 16, Revision A.03,
 Gaussian 16:  ES64L-G16RevA.03 25-Dec-2016

 ---------------------------------
 # td=(NStates=1) B3LYP/6-31G(d,p)
 ---------------------------------

 --
 TD
 --
 Symbolic Z-matrix:
 Charge =  0 Multiplicity = 1

                         Standard orientation:
 ---------------------------------------------------------------------
 Center     Atomic      Atomic             Coordinates (Angstroms)
 Number     Number       Type             X           Y           Z
 ---------------------------------------------------------------------
      1          6           0      -12.179415   -0.588532   -0.617150
      2          6           0       12.130950   -0.007145    0.896141
      3          6           0      -13.432259    0.201061   -0.580604
      4          6           0       12.976236   -1.331951    1.298450
      5          6           0      -13.230661    1.723229   -0.723115
      6          6           0       13.251385   -2.141342    0.086970
      7          6           0      -11.033856    0.019001    0.227330
      8          6           0       10.948643   -0.388582   -0.104179
      9          6           0      -12.354086    2.050328    0.531385
     10          6           0       12.157800   -2.694750   -0.629356
     11          6           0      -11.197022    1.323840    0.852968
     12          6           0       11.018441   -1.606039   -0.813459
     13          6           0      -11.725480   -0.696345   -2.147884
     14          6           0      -12.409653   -2.019526   -0.080434
     15          6           0       13.023318    1.049710    0.392132
     16          6           0       11.522068    0.634206    2.196697
     17          6           0       -9.873159   -0.803760    0.429543
     18          6           0        9.940005    0.615820   -0.347598
     19          6           0      -10.185867    1.940356    1.756178
     20          6           0       10.114176   -1.908075   -1.896304
     21          6           0       -8.557225   -0.425858    0.306679
     22          6           0        8.611853    0.345807   -0.260619
     23          6           0       -7.397048   -1.236549    0.363456
     24          6           0        7.570179    1.328718   -0.517625
     25          6           0       -7.560349   -2.752980    0.741310
     26          6           0        7.913393    2.763898   -0.561210
     27          6           0       -6.130144   -0.746374    0.335232
     28          6           0        6.281725    0.939605   -0.285890
     29          6           0       -4.869380   -1.357620    0.388977
     30          6           0        5.070553    1.778780   -0.515385
     31          6           0       -3.664719   -0.756758    0.236870
     32          6           0        3.746308    1.199386   -0.414118
     33          6           0       -2.375752   -1.356976    0.234549
     34          6           0        2.517418    1.838763   -0.389511
     35          6           0       -2.263068   -2.873169    0.586808
     36          6           0        2.535760    3.354363   -0.613877
     37          6           0       -1.253715   -0.597837    0.040028
     38          6           0        1.322051    1.084233   -0.250268
     39          6           0       -1.145435    0.826844   -0.191611
     40          6           0       -0.014462    1.501774   -0.243998
     41          1           0      -14.068924   -0.009092    0.300450
     42          1           0      -14.064892   -0.172546   -1.379000
     43          1           0       12.227346   -1.801911    2.016502
     44          1           0       13.761970   -1.024617    1.618716
     45          1           0      -14.178990    2.202838   -0.773230
     46          1           0      -12.795938    2.133133   -1.725549
     47          1           0       13.952181   -2.954482    0.319519
     48          1           0       14.029078   -1.481808   -0.552375
     49          1           0      -12.859500    2.235783    1.376569
     50          1           0      -11.958789    3.085942    0.383766
     51          1           0       11.819858   -3.331961    0.063323
     52          1           0       12.393278   -3.166780   -1.523137
     53          1           0      -11.219510    0.242175   -2.701389
     54          1           0      -12.793039   -1.145430   -2.596990
     55          1           0      -10.945396   -1.474528   -2.272143
     56          1           0      -12.898981   -2.199683    0.862102
     57          1           0      -11.646509   -2.733366   -0.125400
     58          1           0      -13.357730   -2.482374   -0.708038
     59          1           0       13.593527    0.618432   -0.359925
     60          1           0       13.775495    1.570328    1.156089
     61          1           0       12.637458    2.024865    0.039395
     62          1           0       11.016015   -0.109806    2.770444
     63          1           0       10.846958    1.502363    2.036545
     64          1           0       12.178451    0.942322    2.839930
     65          1           0       -9.958012   -1.873040    0.720472
     66          1           0       10.319300    1.576258   -0.517046
     67          1           0       -9.803545    1.133518    2.407579
     68          1           0      -10.678533    2.771798    2.609630
     69          1           0       -9.370896    2.468213    1.249888
     70          1           0        9.278386   -1.159445   -2.141176
     71          1           0        9.480586   -2.775929   -1.692188
     72          1           0       10.597242   -2.273520   -2.810158
     73          1           0       -8.298766    0.726694    0.053077
     74          1           0        8.413045   -0.580079    0.058696
     75          1           0       -8.336069   -2.926338    1.433986
     76          1           0       -6.609781   -3.409737    0.849988
     77          1           0       -8.095372   -3.294297   -0.016805
     78          1           0        8.665104    2.935046   -1.454410
     79          1           0        8.588969    3.222608    0.193704
     80          1           0        6.945536    3.328804   -0.676011
     81          1           0       -6.095031    0.328777    0.071683
     82          1           0        6.025700   -0.138542   -0.121854
     83          1           0       -4.815806   -2.386809    0.620579
     84          1           0        5.188559    2.838283   -0.624630
     85          1           0       -3.550569    0.383442    0.062577
     86          1           0        3.949891    0.100669   -0.106163
     87          1           0       -2.625097   -2.825973    1.761275
     88          1           0       -1.298817   -3.017458    0.474086
     89          1           0       -3.028661   -3.471019    0.086484
     90          1           0        3.207713    3.495695   -1.359175
     91          1           0        2.932863    3.885234    0.241928
     92          1           0        1.510398    4.025046   -0.686824
     93          1           0       -0.199847   -1.033631    0.173555
     94          1           0        1.582199    0.088159    0.064697
     95          1           0       -2.051300    1.527463   -0.087748
     96          1           0       -0.109845    2.482976   -0.210899
 ---------------------------------------------------------------------

 SCF Done:  E(RB3LYP) =  -1557.56763799     A.U. after   16 cycles

 Excitation energies and oscillator strengths:

 Excited State   1:      Singlet-A      2.0632 eV  600.94 nm  f=2.9983  <S**2>=0.000
     148 ->149         0.70300
     148 <-149        -0.10441
 This state for optimization and/or second-order correction.
 Total Energy, E(TD-HF/TD-DFT) =  -1557.49181778
 Copying the excited state density for this state as the 1-particle RhoCI density.

 The electronic state is 1-A.
 Alpha  occ. eigenvalues --  -10.20592 -10.20485 -10.19934 -10.19880 -10.19801
 Alpha  occ. eigenvalues --  -10.19801 -10.19800 -10.19666 -10.19609 -10.19607
 Alpha  occ. eigenvalues --  -10.19493 -10.19477 -10.19394 -10.19371 -10.19272
 Alpha  occ. eigenvalues --  -10.19226 -10.18994 -10.18904 -10.18842 -10.18747
 Alpha  occ. eigenvalues --  -10.18740 -10.18684 -10.18668 -10.18655 -10.18626
 Alpha  occ. eigenvalues --  -10.18265 -10.18200 -10.18151 -10.17963 -10.17941
 Alpha  occ. eigenvalues --  -10.17686 -10.17438 -10.17311 -10.17121 -10.17034
 Alpha  occ. eigenvalues --  -10.16950 -10.16921 -10.16915 -10.16607 -10.14961
 Alpha  occ. eigenvalues --   -0.85090  -0.84969  -0.83662  -0.82990  -0.82396
 Alpha  occ. eigenvalues --   -0.81463  -0.79433  -0.79260  -0.79080  -0.78297
 Alpha  occ. eigenvalues --   -0.77255  -0.74972  -0.74396  -0.72248  -0.71719
 Alpha  occ. eigenvalues --   -0.70290  -0.69462  -0.68728  -0.68351  -0.68227
 Alpha  occ. eigenvalues --   -0.68021  -0.67807  -0.67117  -0.66403  -0.65940
 Alpha  occ. eigenvalues --   -0.63234  -0.62266  -0.60637  -0.59308  -0.57378
 Alpha  occ. eigenvalues --   -0.56750  -0.55729  -0.55412  -0.54275  -0.53179
 Alpha  occ. eigenvalues --   -0.52747  -0.52521  -0.50452  -0.49672  -0.49429
 Alpha  occ. eigenvalues --   -0.49266  -0.48020  -0.47651  -0.47267  -0.46322
 Alpha  occ. eigenvalues --   -0.46028  -0.45574  -0.45150  -0.44837  -0.44379
 Alpha  occ. eigenvalues --   -0.44027  -0.43406  -0.43157  -0.42981  -0.42332
 Alpha  occ. eigenvalues --   -0.42175  -0.41917  -0.41891  -0.41350  -0.40177
 Alpha  occ. eigenvalues --   -0.39907  -0.39827  -0.39766  -0.39505  -0.39418
 Alpha  occ. eigenvalues --   -0.39365  -0.39110  -0.38886  -0.38770  -0.38390
 Alpha  occ. eigenvalues --   -0.37980  -0.37896  -0.37718  -0.37226  -0.36899
 Alpha  occ. eigenvalues --   -0.36625  -0.36416  -0.35845  -0.35450  -0.35372
 Alpha  occ. eigenvalues --   -0.35130  -0.34925  -0.34525  -0.34430  -0.33918
 Alpha  occ. eigenvalues --   -0.33597  -0.33020  -0.32935  -0.32726  -0.32591
 Alpha  occ. eigenvalues --   -0.32167  -0.31791  -0.31775  -0.31431  -0.31045
 Alpha  occ. eigenvalues --   -0.30824  -0.30431  -0.29869  -0.29714  -0.28631
 Alpha  occ. eigenvalues --   -0.27968  -0.27067  -0.25864  -0.24053  -0.21955
 Alpha  occ. eigenvalues --   -0.20663  -0.18304  -0.16130
 Alpha virt. eigenvalues --   -0.08424  -0.05389  -0.01550   0.00367   0.02430
 Alpha virt. eigenvalues --    0.03774   0.06171   0.07108   0.07353   0.07690
 Alpha virt. eigenvalues --    0.08137   0.08321   0.08421   0.08613   0.09367

 Mulliken charges:
               1
     1  C    0.015115
     2  C   -0.018321
     3  C   -0.176852
     4  C   -0.125814
     5  C   -0.190220
     6  C   -0.197572
     7  C    0.059081
     8  C    0.036734
     9  C   -0.232444
    10  C   -0.185374
    11  C    0.097259
    12  C    0.067057
    13  C   -0.275142
    14  C   -0.311401
    15  C   -0.296744
    16  C   -0.304280
    17  C   -0.146939
    18  C   -0.120375
    19  C   -0.358044
    20  C   -0.385683
    21  C   -0.098960
    22  C   -0.074859
    23  C    0.150691
    24  C    0.127593
    25  C   -0.396361
    26  C   -0.367468
    27  C   -0.135124
    28  C   -0.130684
    29  C   -0.072009
    30  C   -0.096770
    31  C   -0.086625
    32  C   -0.134366
    33  C    0.099576
    34  C    0.118616
    35  C   -0.341603
    36  C   -0.376544
    37  C   -0.151200
    38  C   -0.113081
    39  C   -0.067125
    40  C   -0.073933
    41  H    0.092342
    42  H    0.082520
    43  H    0.085799
    44  H    0.086021
    45  H    0.098970
    46  H    0.090560
    47  H    0.080479
    48  H    0.063998
    49  H    0.120257
    50  H    0.092640
    51  H    0.125923
    52  H    0.105473
    53  H    0.095611
    54  H    0.072218
    55  H    0.106845
    56  H    0.113133
    57  H    0.114867
    58  H    0.055709
    59  H    0.104361
    60  H    0.073216
    61  H    0.097138
    62  H    0.087628
    63  H    0.092818
    64  H    0.104966
    65  H    0.074473
    66  H    0.081012
    67  H    0.132468
    68  H    0.057639
    69  H    0.130269
    70  H    0.110717
    71  H    0.107637
    72  H    0.105146
    73  H    0.061419
    74  H    0.078873
    75  H    0.123576
    76  H    0.104191
    77  H    0.115806
    78  H    0.095405
    79  H    0.127150
    80  H    0.103290
    81  H    0.063695
    82  H    0.076660
    83  H    0.065432
    84  H    0.081425
    85  H    0.064717
    86  H    0.075657
    87  H    0.098660
    88  H    0.116804
    89  H    0.125367
    90  H    0.133165
    91  H    0.127490
    92  H    0.091562
    93  H    0.077522
    94  H    0.073209
    95  H    0.078966
    96  H    0.067300
 Sum of Mulliken charges =  -0.00000

 Dipole moment (field-independent basis, Debye):
    X=              0.1692    Y=             -0.0192    Z=              0.8456  Tot=              0.8625
 Quadrupole moment (field-independent basis, Debye-Ang):
   XX=           -205.2383   YY=           -230.6549   ZZ=           -257.3445
   XY=             -6.0490   XZ=             -2.3456   YZ=             -0.8674

 Normal termination of Gaussian 16 at Tue Jul 23 13:30:41 2019.
