 Gaussian 16, Revision A.03,
 Gaussian 16:  ES64L-G16RevA.03 25-Dec-2016

 ---------------------------------
 # td=(NStates=1) B3LYP/6-31G(d,p)
 ---------------------------------

 --
 TD
 --
 Symbolic Z-matrix:
 Charge =  0 Multiplicity = 1

                         Standard orientation:
 ---------------------------------------------------------------------
 Center     Atomic      Atomic             Coordinates (Angstroms)
 Number     Number       Type             X           Y           Z
 ---------------------------------------------------------------------
      1          6           0       12.246435   -0.555450    0.784716
      2          6           0      -12.188506    0.046418   -0.784289
      3          6           0       13.502957    0.289095    0.758221
      4          6           0      -13.184878   -1.060295   -1.104440
      5          6           0       13.211495    1.731815    0.742856
      6          6           0      -13.461323   -2.018677    0.009705
      7          6           0       11.108465   -0.101396   -0.115149
      8          6           0      -11.069125   -0.469798    0.151357
      9          6           0       12.313040    2.118808   -0.489403
     10          6           0      -12.215457   -2.653661    0.607752
     11          6           0       11.181692    1.161805   -0.728171
     12          6           0      -11.126483   -1.683102    0.751508
     13          6           0       11.529175   -0.630599    2.216696
     14          6           0       12.564970   -2.002987    0.436959
     15          6           0      -12.990026    1.132179   -0.023319
     16          6           0      -11.601828    0.562397   -2.119235
     17          6           0        9.980179   -1.000801   -0.371759
     18          6           0       -9.874437    0.476072    0.356393
     19          6           0       10.199267    1.668249   -1.813352
     20          6           0      -10.057504   -2.060893    1.847962
     21          6           0        8.655435   -0.607369   -0.315064
     22          6           0       -8.560538    0.312477    0.308097
     23          6           0        7.444849   -1.335526   -0.503070
     24          6           0       -7.469882    1.278856    0.348677
     25          6           0        7.689407   -2.850575   -0.790049
     26          6           0       -7.961135    2.729451    0.651967
     27          6           0        6.223856   -0.655389   -0.354913
     28          6           0       -6.160926    0.863673    0.325995
     29          6           0        4.911141   -1.302055   -0.544141
     30          6           0       -5.017838    1.669110    0.467863
     31          6           0        3.651120   -0.643717   -0.360541
     32          6           0       -3.760157    1.123895    0.243020
     33          6           0        2.332544   -1.138274   -0.435613
     34          6           0       -2.455286    1.823641    0.216032
     35          6           0        2.210759   -2.611972   -0.710385
     36          6           0       -2.415426    3.269634    0.572359
     37          6           0        1.207408   -0.393406   -0.371808
     38          6           0       -1.306268    1.101970    0.037911
     39          6           0        1.140595    1.066823   -0.166669
     40          6           0       -0.014276    1.647040    0.001648
     41          1           0       14.179753   -0.208693    0.003673
     42          1           0       14.010815    0.205892    1.728434
     43          1           0      -12.983684   -1.641272   -2.026933
     44          1           0      -14.197474   -0.611955   -1.427294
     45          1           0       14.003981    2.562624    0.896785
     46          1           0       12.737367    1.779948    1.713542
     47          1           0      -14.421546   -2.799807   -0.477067
     48          1           0      -13.929192   -1.741435    1.058253
     49          1           0       13.000146    2.082411   -1.289064
     50          1           0       11.763300    3.166602   -0.533496
     51          1           0      -11.653863   -3.398598   -0.290709
     52          1           0      -12.472027   -3.351322    1.471094
     53          1           0       10.998843    0.366004    2.381183
     54          1           0       12.284075   -1.005107    2.931401
     55          1           0       10.708162   -1.289344    2.004528
     56          1           0       12.709402   -2.406797   -0.573975
     57          1           0       11.741781   -2.555777    0.684224
     58          1           0       13.509499   -2.116099    1.168382
     59          1           0      -13.204584    0.550511    1.018427
     60          1           0      -13.897579    1.429854   -0.606323
     61          1           0      -12.405585    2.095588    0.206632
     62          1           0      -11.310708   -0.423774   -2.703330
     63          1           0      -10.750972    1.381153   -2.123130
     64          1           0      -12.461981    1.070179   -2.752766
     65          1           0        9.991414   -2.064253   -0.411032
     66          1           0      -10.082450    1.451202    0.619111
     67          1           0        9.601625    0.864096   -2.164814
     68          1           0       10.786102    2.266086   -2.759200
     69          1           0        9.359180    2.377373   -1.294582
     70          1           0       -9.228759   -1.267093    2.086669
     71          1           0       -9.433157   -2.681462    1.489926
     72          1           0      -10.545754   -2.304916    2.630461
     73          1           0        8.459201    0.579484   -0.080127
     74          1           0       -8.150168   -0.745917    0.257939
     75          1           0        8.423962   -3.075223   -1.692047
     76          1           0        6.745969   -3.113791   -1.024430
     77          1           0        8.012565   -3.289711    0.077673
     78          1           0       -8.258511    2.741922    1.899353
     79          1           0       -8.817364    3.038709    0.063041
     80          1           0       -7.000506    3.408806    0.299078
     81          1           0        6.213350    0.470062   -0.298826
     82          1           0       -6.125176   -0.200934    0.232753
     83          1           0        4.700362   -2.447080   -0.559157
     84          1           0       -5.015729    2.677769    0.606735
     85          1           0        3.748297    0.522327   -0.138258
     86          1           0       -3.722310   -0.009679   -0.088947
     87          1           0        2.758067   -2.832638   -1.546956
     88          1           0        1.062195   -2.928441   -0.963423
     89          1           0        2.553951   -3.125997    0.161808
     90          1           0       -2.933320    3.497875    1.624325
     91          1           0       -3.003199    4.066435    0.040650
     92          1           0       -1.386366    3.530524    0.614885
     93          1           0        0.329166   -0.864945   -0.309069
     94          1           0       -1.602112    0.087937   -0.155738
     95          1           0        1.969844    1.634951   -0.418983
     96          1           0        0.150775    2.810937    0.320772
 ---------------------------------------------------------------------

 SCF Done:  E(RB3LYP) =  -1557.53564673     A.U. after   15 cycles

 Excitation energies and oscillator strengths:

 Excited State   1:      Singlet-A      2.1862 eV  567.13 nm  f=2.8886  <S**2>=0.000
     148 ->149         0.70779
 This state for optimization and/or second-order correction.
 Total Energy, E(TD-HF/TD-DFT) =  -1557.45530620
 Copying the excited state density for this state as the 1-particle RhoCI density.

 The electronic state is 1-A.
 Alpha  occ. eigenvalues --  -10.21230 -10.21179 -10.20923 -10.20842 -10.20778
 Alpha  occ. eigenvalues --  -10.20657 -10.20522 -10.20251 -10.20170 -10.20066
 Alpha  occ. eigenvalues --  -10.20021 -10.19653 -10.19592 -10.19517 -10.19463
 Alpha  occ. eigenvalues --  -10.19452 -10.19365 -10.19314 -10.19284 -10.18949
 Alpha  occ. eigenvalues --  -10.18942 -10.18897 -10.18847 -10.18826 -10.18822
 Alpha  occ. eigenvalues --  -10.18799 -10.18740 -10.18681 -10.18509 -10.18395
 Alpha  occ. eigenvalues --  -10.18276 -10.18194 -10.18188 -10.17991 -10.17974
 Alpha  occ. eigenvalues --  -10.17911 -10.17740 -10.17515 -10.17334 -10.15342
 Alpha  occ. eigenvalues --   -0.85227  -0.85140  -0.84261  -0.83046  -0.82204
 Alpha  occ. eigenvalues --   -0.81686  -0.79285  -0.78535  -0.77989  -0.77697
 Alpha  occ. eigenvalues --   -0.77202  -0.75150  -0.74371  -0.71961  -0.71747
 Alpha  occ. eigenvalues --   -0.69989  -0.68987  -0.68826  -0.68107  -0.67632
 Alpha  occ. eigenvalues --   -0.67169  -0.67030  -0.66585  -0.66385  -0.66291
 Alpha  occ. eigenvalues --   -0.62945  -0.62408  -0.59748  -0.59311  -0.56703
 Alpha  occ. eigenvalues --   -0.56371  -0.55694  -0.54869  -0.54350  -0.52626
 Alpha  occ. eigenvalues --   -0.51865  -0.51352  -0.49928  -0.49723  -0.49298
 Alpha  occ. eigenvalues --   -0.48407  -0.48042  -0.47169  -0.47010  -0.46279
 Alpha  occ. eigenvalues --   -0.46235  -0.45546  -0.45219  -0.44670  -0.43959
 Alpha  occ. eigenvalues --   -0.43716  -0.43296  -0.42953  -0.42726  -0.42544
 Alpha  occ. eigenvalues --   -0.42509  -0.41705  -0.41356  -0.40995  -0.40415
 Alpha  occ. eigenvalues --   -0.40358  -0.39801  -0.39654  -0.39278  -0.39257
 Alpha  occ. eigenvalues --   -0.39105  -0.38944  -0.38740  -0.38434  -0.38137
 Alpha  occ. eigenvalues --   -0.37749  -0.37636  -0.37351  -0.37020  -0.36455
 Alpha  occ. eigenvalues --   -0.36339  -0.36036  -0.35683  -0.35668  -0.35566
 Alpha  occ. eigenvalues --   -0.35208  -0.34865  -0.34746  -0.33866  -0.33861
 Alpha  occ. eigenvalues --   -0.33748  -0.33371  -0.33240  -0.32465  -0.32217
 Alpha  occ. eigenvalues --   -0.32011  -0.31705  -0.31407  -0.31089  -0.30793
 Alpha  occ. eigenvalues --   -0.30696  -0.29876  -0.29444  -0.29092  -0.28624
 Alpha  occ. eigenvalues --   -0.28398  -0.27884  -0.26438  -0.24146  -0.22565
 Alpha  occ. eigenvalues --   -0.21181  -0.18726  -0.16726
 Alpha virt. eigenvalues --   -0.08303  -0.05786  -0.01566   0.00471   0.02403
 Alpha virt. eigenvalues --    0.03677   0.05380   0.06109   0.06476   0.07154
 Alpha virt. eigenvalues --    0.07408   0.07672   0.07765   0.08495   0.08552

 Mulliken charges:
               1
     1  C   -0.031149
     2  C    0.007240
     3  C   -0.179455
     4  C   -0.171015
     5  C   -0.195130
     6  C   -0.150020
     7  C    0.104350
     8  C    0.064603
     9  C   -0.212376
    10  C   -0.210384
    11  C    0.055607
    12  C    0.051918
    13  C   -0.294680
    14  C   -0.287325
    15  C   -0.279998
    16  C   -0.290272
    17  C   -0.164612
    18  C   -0.129666
    19  C   -0.343185
    20  C   -0.338915
    21  C   -0.086638
    22  C   -0.080726
    23  C    0.100907
    24  C    0.104013
    25  C   -0.367315
    26  C   -0.351930
    27  C   -0.132306
    28  C   -0.107629
    29  C   -0.106523
    30  C   -0.062207
    31  C   -0.116371
    32  C   -0.129586
    33  C    0.117699
    34  C    0.124547
    35  C   -0.377425
    36  C   -0.376983
    37  C   -0.108536
    38  C   -0.087166
    39  C   -0.078648
    40  C   -0.100855
    41  H    0.090374
    42  H    0.092851
    43  H    0.104248
    44  H    0.087126
    45  H    0.078274
    46  H    0.104692
    47  H    0.039223
    48  H    0.092460
    49  H    0.121881
    50  H    0.084315
    51  H    0.062588
    52  H    0.102555
    53  H    0.104384
    54  H    0.095393
    55  H    0.112589
    56  H    0.101904
    57  H    0.105094
    58  H    0.074979
    59  H    0.085950
    60  H    0.098538
    61  H    0.091262
    62  H    0.090146
    63  H    0.097538
    64  H    0.076865
    65  H    0.079433
    66  H    0.075912
    67  H    0.131905
    68  H    0.075334
    69  H    0.087943
    70  H    0.095187
    71  H    0.128790
    72  H    0.112301
    73  H    0.050150
    74  H    0.052035
    75  H    0.110225
    76  H    0.119858
    77  H    0.138850
    78  H    0.097587
    79  H    0.127507
    80  H    0.084002
    81  H    0.096242
    82  H    0.079461
    83  H    0.081887
    84  H    0.080911
    85  H    0.059544
    86  H    0.064008
    87  H    0.135843
    88  H    0.080567
    89  H    0.127712
    90  H    0.100022
    91  H    0.116670
    92  H    0.111722
    93  H    0.072193
    94  H    0.086433
    95  H    0.090948
    96  H    0.071727
 Sum of Mulliken charges =  -0.00000

 Dipole moment (field-independent basis, Debye):
    X=             -0.2848    Y=             -0.4645    Z=              0.2984  Tot=              0.6212
 Quadrupole moment (field-independent basis, Debye-Ang):
   XX=           -230.2133   YY=           -237.6152   ZZ=           -256.2057
   XY=             -0.9759   XZ=             -0.3857   YZ=              0.9619

 Normal termination of Gaussian 16 at Thu Aug  1 05:10:54 2019.
