 Gaussian 16, Revision A.03,
 Gaussian 16:  ES64L-G16RevA.03 25-Dec-2016

 ---------------------------------
 # td=(NStates=1) B3LYP/6-31G(d,p)
 ---------------------------------

 --
 TD
 --
 Symbolic Z-matrix:
 Charge =  0 Multiplicity = 1

                         Standard orientation:
 ---------------------------------------------------------------------
 Center     Atomic      Atomic             Coordinates (Angstroms)
 Number     Number       Type             X           Y           Z
 ---------------------------------------------------------------------
      1          6           0       12.163176    0.493247   -0.668812
      2          6           0      -12.182408   -0.115597    0.929624
      3          6           0       13.453408   -0.350761   -0.706242
      4          6           0      -13.035307    1.224469    1.387702
      5          6           0       13.235056   -1.802828   -0.635841
      6          6           0      -13.513451    2.116172    0.242539
      7          6           0       11.056483   -0.055247    0.293956
      8          6           0      -11.076244    0.263867   -0.092586
      9          6           0       12.347124   -2.232528    0.576246
     10          6           0      -12.160417    2.473925   -0.648235
     11          6           0       11.258121   -1.237329    0.941662
     12          6           0      -11.064275    1.495344   -0.755744
     13          6           0       11.614273    0.470056   -2.128749
     14          6           0       12.527767    1.982341   -0.251883
     15          6           0      -13.020826   -1.223533    0.255166
     16          6           0      -11.544912   -0.719032    2.247332
     17          6           0        9.881726    0.855240    0.370037
     18          6           0       -9.935876   -0.560278   -0.229858
     19          6           0       10.174029   -1.705856    1.998369
     20          6           0      -10.134797    1.951896   -1.779710
     21          6           0        8.609341    0.574374    0.345016
     22          6           0       -8.625875   -0.244221   -0.245735
     23          6           0        7.407783    1.418449    0.480455
     24          6           0       -7.522271   -1.218327   -0.472267
     25          6           0        7.611587    2.904539    0.853574
     26          6           0       -7.964670   -2.615204   -0.639391
     27          6           0        6.213756    0.897554    0.342559
     28          6           0       -6.247223   -0.702935   -0.447273
     29          6           0        4.865174    1.478170    0.313245
     30          6           0       -5.047313   -1.549893   -0.607823
     31          6           0        3.778157    0.706826    0.041975
     32          6           0       -3.788865   -0.982923   -0.407956
     33          6           0        2.437207    1.200645    0.183686
     34          6           0       -2.555877   -1.678737   -0.425337
     35          6           0        2.285677    2.674591    0.435335
     36          6           0       -2.556466   -3.217551   -0.486551
     37          6           0        1.336632    0.429843    0.102550
     38          6           0       -1.361010   -0.987662   -0.349018
     39          6           0        1.171803   -0.968042   -0.090062
     40          6           0        0.036635   -1.573574   -0.263032
     41          1           0       13.736769   -0.129474    0.409616
     42          1           0       14.142961   -0.060261   -1.317807
     43          1           0      -12.431299    1.668132    2.089196
     44          1           0      -14.014620    0.762813    1.877460
     45          1           0       14.255324   -2.387632   -0.495498
     46          1           0       12.807899   -2.271861   -1.557011
     47          1           0      -14.175708    2.826091    0.538364
     48          1           0      -14.220905    1.696880   -0.511709
     49          1           0       13.010899   -2.210870    1.410858
     50          1           0       11.914099   -3.225903    0.507730
     51          1           0      -11.643460    3.387649   -0.030514
     52          1           0      -12.521599    2.867949   -1.633519
     53          1           0       11.381585   -0.469229   -2.665771
     54          1           0       12.229763    1.095078   -2.740814
     55          1           0       10.549285    0.787335   -2.044729
     56          1           0       12.630941    2.201264    0.848055
     57          1           0       11.756843    2.709825   -0.564687
     58          1           0       13.590340    2.086717   -0.847270
     59          1           0      -13.418342   -0.843672   -0.749410
     60          1           0      -13.696874   -1.634789    0.783183
     61          1           0      -12.170149   -2.090101    0.166302
     62          1           0      -10.738142   -0.091605    2.822165
     63          1           0      -11.302412   -1.780521    1.883486
     64          1           0      -12.361632   -1.049870    3.024762
     65          1           0       10.085448    1.818776    0.657252
     66          1           0      -10.104788   -1.710525   -0.233522
     67          1           0        9.903556   -0.856736    2.404167
     68          1           0       10.997748   -2.272963    2.643604
     69          1           0        9.373728   -2.492545    1.433913
     70          1           0       -9.202402    1.260003   -2.057835
     71          1           0       -9.668974    2.951935   -1.496472
     72          1           0      -10.719200    2.186109   -2.710576
     73          1           0        8.262071   -0.294865   -0.175134
     74          1           0       -8.424235    0.822438   -0.153774
     75          1           0        8.363689    3.006496    1.793497
     76          1           0        6.630787    3.550811    1.042828
     77          1           0        8.022452    3.494030   -0.030593
     78          1           0       -8.299507   -2.834594   -1.748292
     79          1           0       -8.673386   -3.223588    0.083539
     80          1           0       -7.049029   -3.205893   -0.735999
     81          1           0        6.101927   -0.107783    0.012599
     82          1           0       -6.117750    0.329654   -0.286263
     83          1           0        5.006416    2.429120    0.668963
     84          1           0       -5.158123   -2.688061   -0.703662
     85          1           0        4.078153   -0.547186    0.051023
     86          1           0       -3.734973    0.035939   -0.447256
     87          1           0        2.621682    2.844941    1.407801
     88          1           0        1.248778    3.128879    0.177327
     89          1           0        3.075827    3.037168   -0.366144
     90          1           0       -3.165977   -3.514545   -1.424404
     91          1           0       -2.920109   -3.582645    0.346379
     92          1           0       -1.568155   -3.562609   -0.496573
     93          1           0        0.220515    0.980739    0.360233
     94          1           0       -1.427926    0.079949   -0.553994
     95          1           0        2.118863   -1.514056   -0.228367
     96          1           0        0.050347   -2.609275   -0.490234
 ---------------------------------------------------------------------

 SCF Done:  E(RB3LYP) =  -1557.55742871     A.U. after   15 cycles

 Excitation energies and oscillator strengths:

 Excited State   1:      Singlet-A      2.4069 eV  515.13 nm  f=2.6615  <S**2>=0.000
     148 ->149         0.70110
 This state for optimization and/or second-order correction.
 Total Energy, E(TD-HF/TD-DFT) =  -1557.46897857
 Copying the excited state density for this state as the 1-particle RhoCI density.

 The electronic state is 1-A.
 Alpha  occ. eigenvalues --  -10.21043 -10.20877 -10.20851 -10.20269 -10.20038
 Alpha  occ. eigenvalues --  -10.19991 -10.19798 -10.19767 -10.19760 -10.19745
 Alpha  occ. eigenvalues --  -10.19650 -10.19426 -10.19345 -10.19322 -10.19080
 Alpha  occ. eigenvalues --  -10.18993 -10.18952 -10.18847 -10.18786 -10.18776
 Alpha  occ. eigenvalues --  -10.18756 -10.18668 -10.18620 -10.18614 -10.18585
 Alpha  occ. eigenvalues --  -10.18488 -10.18251 -10.18105 -10.18097 -10.18050
 Alpha  occ. eigenvalues --  -10.18041 -10.17963 -10.17901 -10.17739 -10.17686
 Alpha  occ. eigenvalues --  -10.17562 -10.17538 -10.17164 -10.16647 -10.16266
 Alpha  occ. eigenvalues --   -0.84435  -0.84338  -0.83823  -0.82915  -0.82229
 Alpha  occ. eigenvalues --   -0.81343  -0.79303  -0.78429  -0.77824  -0.77305
 Alpha  occ. eigenvalues --   -0.76837  -0.74942  -0.74305  -0.72405  -0.72027
 Alpha  occ. eigenvalues --   -0.69818  -0.68863  -0.67864  -0.67610  -0.67484
 Alpha  occ. eigenvalues --   -0.67152  -0.67024  -0.66620  -0.66348  -0.65510
 Alpha  occ. eigenvalues --   -0.62740  -0.61973  -0.60157  -0.59273  -0.56836
 Alpha  occ. eigenvalues --   -0.56072  -0.55604  -0.54724  -0.54212  -0.53550
 Alpha  occ. eigenvalues --   -0.53039  -0.52123  -0.50261  -0.49688  -0.48747
 Alpha  occ. eigenvalues --   -0.48023  -0.47730  -0.47111  -0.46109  -0.45868
 Alpha  occ. eigenvalues --   -0.45694  -0.44958  -0.44896  -0.44024  -0.43649
 Alpha  occ. eigenvalues --   -0.43452  -0.43045  -0.42863  -0.42683  -0.42497
 Alpha  occ. eigenvalues --   -0.41919  -0.41784  -0.41659  -0.40934  -0.40852
 Alpha  occ. eigenvalues --   -0.40594  -0.40320  -0.40137  -0.39705  -0.39494
 Alpha  occ. eigenvalues --   -0.38890  -0.38668  -0.38545  -0.38277  -0.38069
 Alpha  occ. eigenvalues --   -0.37596  -0.37337  -0.36937  -0.36660  -0.36194
 Alpha  occ. eigenvalues --   -0.36028  -0.35794  -0.35688  -0.35426  -0.35067
 Alpha  occ. eigenvalues --   -0.35061  -0.34738  -0.34306  -0.34178  -0.34162
 Alpha  occ. eigenvalues --   -0.33442  -0.33146  -0.32914  -0.32674  -0.32430
 Alpha  occ. eigenvalues --   -0.32224  -0.31974  -0.31840  -0.31439  -0.30980
 Alpha  occ. eigenvalues --   -0.30287  -0.29548  -0.29157  -0.28277  -0.27924
 Alpha  occ. eigenvalues --   -0.27541  -0.27153  -0.26238  -0.24516  -0.22362
 Alpha  occ. eigenvalues --   -0.21091  -0.19204  -0.16922
 Alpha virt. eigenvalues --   -0.07481  -0.04952  -0.01384   0.00384   0.02760
 Alpha virt. eigenvalues --    0.04400   0.05568   0.06179   0.06955   0.07458
 Alpha virt. eigenvalues --    0.07549   0.07948   0.08206   0.08539   0.08696

 Mulliken charges:
               1
     1  C    0.002108
     2  C   -0.021072
     3  C   -0.143205
     4  C   -0.166037
     5  C   -0.180708
     6  C   -0.186089
     7  C    0.066496
     8  C    0.089191
     9  C   -0.225150
    10  C   -0.233843
    11  C    0.006144
    12  C    0.090301
    13  C   -0.305794
    14  C   -0.303885
    15  C   -0.273340
    16  C   -0.296099
    17  C   -0.139592
    18  C   -0.117265
    19  C   -0.312778
    20  C   -0.364457
    21  C   -0.076906
    22  C   -0.110180
    23  C    0.137117
    24  C    0.132828
    25  C   -0.379615
    26  C   -0.388661
    27  C   -0.147599
    28  C   -0.114000
    29  C   -0.036376
    30  C   -0.103669
    31  C   -0.126483
    32  C   -0.098882
    33  C    0.102274
    34  C    0.106528
    35  C   -0.352363
    36  C   -0.361316
    37  C   -0.122818
    38  C   -0.138550
    39  C   -0.062702
    40  C   -0.093313
    41  H    0.072911
    42  H    0.089527
    43  H    0.110153
    44  H    0.065994
    45  H    0.070574
    46  H    0.089774
    47  H    0.103210
    48  H    0.087023
    49  H    0.113574
    50  H    0.107956
    51  H    0.080790
    52  H    0.096222
    53  H    0.099170
    54  H    0.095938
    55  H    0.095547
    56  H    0.104962
    57  H    0.107524
    58  H    0.075767
    59  H    0.102510
    60  H    0.111378
    61  H    0.068926
    62  H    0.105784
    63  H    0.086815
    64  H    0.083644
    65  H    0.080471
    66  H    0.064196
    67  H    0.133540
    68  H    0.080306
    69  H    0.094358
    70  H    0.108386
    71  H    0.105904
    72  H    0.106009
    73  H    0.075585
    74  H    0.075086
    75  H    0.103540
    76  H    0.095427
    77  H    0.120385
    78  H    0.114423
    79  H    0.122630
    80  H    0.101469
    81  H    0.060098
    82  H    0.085087
    83  H    0.076216
    84  H    0.086371
    85  H    0.075657
    86  H    0.073902
    87  H    0.135958
    88  H    0.104346
    89  H    0.102842
    90  H    0.107766
    91  H    0.137475
    92  H    0.107775
    93  H    0.051202
    94  H    0.080987
    95  H    0.078212
    96  H    0.078479
 Sum of Mulliken charges =  -0.00000

 Dipole moment (field-independent basis, Debye):
    X=             -1.4881    Y=              0.1017    Z=             -0.0570  Tot=              1.4926
 Quadrupole moment (field-independent basis, Debye-Ang):
   XX=           -219.4703   YY=           -235.4260   ZZ=           -255.5639
   XY=             -1.6200   XZ=              0.6262   YZ=              2.6152

 Normal termination of Gaussian 16 at Sun Jul 28 09:57:23 2019.
