 Gaussian 16, Revision A.03,
 Gaussian 16:  ES64L-G16RevA.03 25-Dec-2016

 ---------------------------------
 # td=(NStates=1) B3LYP/6-31G(d,p)
 ---------------------------------

 --
 TD
 --
 Symbolic Z-matrix:
 Charge =  0 Multiplicity = 1

                         Standard orientation:
 ---------------------------------------------------------------------
 Center     Atomic      Atomic             Coordinates (Angstroms)
 Number     Number       Type             X           Y           Z
 ---------------------------------------------------------------------
      1          6           0       12.092866    0.440374   -0.834787
      2          6           0      -12.034474   -0.079738    0.844030
      3          6           0       13.423335   -0.368004   -0.484830
      4          6           0      -12.846296    1.223886    1.332419
      5          6           0       13.170506   -1.844554   -0.306166
      6          6           0      -13.185221    2.129630    0.157818
      7          6           0       11.020783    0.031779    0.262702
      8          6           0      -10.931165    0.345390   -0.057706
      9          6           0       12.197677   -2.149429    0.860435
     10          6           0      -12.078484    2.618120   -0.580680
     11          6           0       11.098718   -1.158015    1.065704
     12          6           0      -10.930668    1.549412   -0.768518
     13          6           0       11.618299    0.208631   -2.174017
     14          6           0       12.435883    1.907313   -0.526619
     15          6           0      -13.176909   -1.074701    0.223909
     16          6           0      -11.404250   -0.601100    2.243595
     17          6           0        9.827668    0.925593    0.261737
     18          6           0       -9.894535   -0.563037   -0.282914
     19          6           0       10.095589   -1.543119    2.114897
     20          6           0       -9.912867    1.997762   -1.685640
     21          6           0        8.483418    0.535121    0.286757
     22          6           0       -8.577171   -0.319768   -0.254491
     23          6           0        7.370442    1.306512    0.411117
     24          6           0       -7.527068   -1.305159   -0.468795
     25          6           0        7.625024    2.860000    0.525525
     26          6           0       -7.975267   -2.718582   -0.814656
     27          6           0        6.146840    0.729249    0.244820
     28          6           0       -6.233936   -0.911410   -0.343650
     29          6           0        4.918134    1.467387    0.347886
     30          6           0       -5.010424   -1.641049   -0.382850
     31          6           0        3.680490    0.844485   -0.053499
     32          6           0       -3.769331   -1.193853   -0.066067
     33          6           0        2.287725    1.377713    0.193208
     34          6           0       -2.500393   -1.867037   -0.334031
     35          6           0        2.327843    2.880324    0.623312
     36          6           0       -2.571412   -3.384709   -0.842726
     37          6           0        1.156912    0.627965    0.028518
     38          6           0       -1.424944   -1.131120   -0.238875
     39          6           0        1.104204   -0.765875   -0.154075
     40          6           0       -0.016677   -1.617958   -0.330907
     41          1           0       13.911915    0.082714    0.369092
     42          1           0       14.240520   -0.276939   -1.292221
     43          1           0      -12.250481    1.643028    2.018487
     44          1           0      -13.668680    0.934767    1.855825
     45          1           0       14.020711   -2.371757   -0.152476
     46          1           0       12.777593   -2.096754   -1.256040
     47          1           0      -13.736373    2.799654    0.731394
     48          1           0      -13.820891    1.311300   -0.402332
     49          1           0       13.103163   -2.232952    1.774708
     50          1           0       11.635409   -3.016512    0.745665
     51          1           0      -11.655113    3.426721    0.066428
     52          1           0      -12.273271    3.078536   -1.472789
     53          1           0       11.188845   -0.839022   -2.436250
     54          1           0       12.196506    0.452711   -3.165504
     55          1           0       10.750734    0.934928   -2.312267
     56          1           0       12.546606    2.218700    0.558632
     57          1           0       11.554735    2.588132   -0.980383
     58          1           0       13.586552    2.162396   -1.068908
     59          1           0      -13.386468   -0.862614   -0.796193
     60          1           0      -14.008613   -1.134821    0.864747
     61          1           0      -12.755233   -2.338101    0.149605
     62          1           0      -10.630999   -0.010787    2.499909
     63          1           0      -10.951325   -1.596159    2.158836
     64          1           0      -12.162831   -0.857550    3.114874
     65          1           0       10.089460    1.996081    0.128096
     66          1           0      -10.189999   -1.565617   -0.385182
     67          1           0        9.599494   -0.653276    2.349551
     68          1           0       10.526211   -1.803717    3.008272
     69          1           0        9.245822   -2.245317    1.686012
     70          1           0       -9.234465    1.108178   -2.116660
     71          1           0       -9.168574    2.667436   -1.278367
     72          1           0      -10.502228    2.497284   -2.480247
     73          1           0        8.443118   -0.600522    0.592313
     74          1           0       -8.203312    0.801717   -0.098297
     75          1           0        7.828479    3.061049    1.617204
     76          1           0        6.769676    3.449435    0.088588
     77          1           0        8.358390    3.092842   -0.120153
     78          1           0       -8.223138   -2.837379   -1.851250
     79          1           0       -8.976783   -2.931737   -0.007081
     80          1           0       -7.116248   -3.482062   -0.586682
     81          1           0        6.077493   -0.353742    0.254686
     82          1           0       -6.087624    0.175088   -0.221781
     83          1           0        4.919785    2.544423    0.339631
     84          1           0       -4.997181   -2.768289   -0.731219
     85          1           0        3.717264   -0.133493   -0.488884
     86          1           0       -3.615421   -0.089138   -0.020095
     87          1           0        2.957611    3.215841    1.392230
     88          1           0        1.043174    2.990577    0.811685
     89          1           0        2.645649    3.379376   -0.338482
     90          1           0       -3.291596   -3.285130   -1.794266
     91          1           0       -3.088341   -3.889817    0.028510
     92          1           0       -1.465286   -3.869139   -0.901656
     93          1           0        0.219148    1.118346    0.235204
     94          1           0       -1.336339   -0.090017   -0.120420
     95          1           0        2.072447   -1.381110   -0.294135
     96          1           0        0.285113   -2.728367   -0.521297
 ---------------------------------------------------------------------

 SCF Done:  E(RB3LYP) =  -1557.54781754     A.U. after   15 cycles

 Excitation energies and oscillator strengths:

 Excited State   1:      Singlet-A      2.1385 eV  579.76 nm  f=2.8486  <S**2>=0.000
     148 ->149         0.70445
 This state for optimization and/or second-order correction.
 Total Energy, E(TD-HF/TD-DFT) =  -1557.46922766
 Copying the excited state density for this state as the 1-particle RhoCI density.

 The electronic state is 1-A.
 Alpha  occ. eigenvalues --  -10.21395 -10.20877 -10.20617 -10.20575 -10.20572
 Alpha  occ. eigenvalues --  -10.20507 -10.20393 -10.20134 -10.20027 -10.19901
 Alpha  occ. eigenvalues --  -10.19880 -10.19781 -10.19685 -10.19555 -10.19473
 Alpha  occ. eigenvalues --  -10.19442 -10.19427 -10.19345 -10.19325 -10.19135
 Alpha  occ. eigenvalues --  -10.19085 -10.18969 -10.18951 -10.18741 -10.18714
 Alpha  occ. eigenvalues --  -10.18651 -10.18602 -10.18573 -10.18564 -10.18153
 Alpha  occ. eigenvalues --  -10.17997 -10.17974 -10.17697 -10.17625 -10.17468
 Alpha  occ. eigenvalues --  -10.17130 -10.17070 -10.16958 -10.16197 -10.15523
 Alpha  occ. eigenvalues --   -0.85267  -0.84539  -0.83155  -0.82947  -0.82078
 Alpha  occ. eigenvalues --   -0.81239  -0.78974  -0.78891  -0.77813  -0.77640
 Alpha  occ. eigenvalues --   -0.76593  -0.75286  -0.73910  -0.72109  -0.71439
 Alpha  occ. eigenvalues --   -0.69339  -0.68803  -0.68269  -0.67873  -0.67776
 Alpha  occ. eigenvalues --   -0.67414  -0.67305  -0.67204  -0.66354  -0.65651
 Alpha  occ. eigenvalues --   -0.62560  -0.61685  -0.59407  -0.58894  -0.57301
 Alpha  occ. eigenvalues --   -0.56405  -0.55839  -0.55015  -0.53818  -0.52699
 Alpha  occ. eigenvalues --   -0.52098  -0.51452  -0.50367  -0.49765  -0.48798
 Alpha  occ. eigenvalues --   -0.48027  -0.47349  -0.47069  -0.46341  -0.46074
 Alpha  occ. eigenvalues --   -0.45948  -0.45291  -0.44951  -0.44390  -0.44226
 Alpha  occ. eigenvalues --   -0.43768  -0.43480  -0.42603  -0.42548  -0.42376
 Alpha  occ. eigenvalues --   -0.42134  -0.41714  -0.41396  -0.41320  -0.41205
 Alpha  occ. eigenvalues --   -0.41020  -0.40607  -0.40499  -0.40338  -0.39337
 Alpha  occ. eigenvalues --   -0.39001  -0.38769  -0.38575  -0.38135  -0.37888
 Alpha  occ. eigenvalues --   -0.37429  -0.37157  -0.36999  -0.36811  -0.36392
 Alpha  occ. eigenvalues --   -0.36136  -0.35893  -0.35392  -0.35189  -0.35138
 Alpha  occ. eigenvalues --   -0.34795  -0.34623  -0.34303  -0.33986  -0.33744
 Alpha  occ. eigenvalues --   -0.33581  -0.33289  -0.33188  -0.32833  -0.32500
 Alpha  occ. eigenvalues --   -0.32015  -0.31761  -0.31318  -0.30938  -0.30509
 Alpha  occ. eigenvalues --   -0.30490  -0.30148  -0.30045  -0.29196  -0.28303
 Alpha  occ. eigenvalues --   -0.27714  -0.26547  -0.26448  -0.23967  -0.22760
 Alpha  occ. eigenvalues --   -0.20861  -0.18550  -0.16413
 Alpha virt. eigenvalues --   -0.08235  -0.05535  -0.02262   0.00190   0.01908
 Alpha virt. eigenvalues --    0.03796   0.05370   0.06006   0.06359   0.07013
 Alpha virt. eigenvalues --    0.07274   0.07408   0.07839   0.08207   0.08748

 Mulliken charges:
               1
     1  C    0.026688
     2  C   -0.024561
     3  C   -0.174898
     4  C   -0.175157
     5  C   -0.187459
     6  C   -0.182432
     7  C    0.052704
     8  C    0.082448
     9  C   -0.187935
    10  C   -0.185941
    11  C    0.046861
    12  C    0.056973
    13  C   -0.290913
    14  C   -0.286239
    15  C   -0.294102
    16  C   -0.316231
    17  C   -0.145924
    18  C   -0.134200
    19  C   -0.370309
    20  C   -0.368605
    21  C   -0.099509
    22  C   -0.089392
    23  C    0.106418
    24  C    0.137589
    25  C   -0.358686
    26  C   -0.358935
    27  C   -0.106709
    28  C   -0.131554
    29  C   -0.098534
    30  C   -0.087755
    31  C   -0.116668
    32  C   -0.110634
    33  C    0.087469
    34  C    0.115762
    35  C   -0.348171
    36  C   -0.356395
    37  C   -0.108303
    38  C   -0.108419
    39  C   -0.091380
    40  C   -0.113176
    41  H    0.089371
    42  H    0.072396
    43  H    0.095115
    44  H    0.089936
    45  H    0.096255
    46  H    0.099234
    47  H    0.095258
    48  H    0.076135
    49  H    0.054403
    50  H    0.112260
    51  H    0.098965
    52  H    0.103652
    53  H    0.101354
    54  H    0.093431
    55  H    0.095563
    56  H    0.115310
    57  H    0.078209
    58  H    0.060334
    59  H    0.122227
    60  H    0.119403
    61  H    0.034541
    62  H    0.122537
    63  H    0.093288
    64  H    0.079112
    65  H    0.076318
    66  H    0.084183
    67  H    0.132158
    68  H    0.119459
    69  H    0.103588
    70  H    0.105212
    71  H    0.124260
    72  H    0.097321
    73  H    0.065425
    74  H    0.070170
    75  H    0.125976
    76  H    0.097451
    77  H    0.132547
    78  H    0.137491
    79  H    0.081616
    80  H    0.101001
    81  H    0.084242
    82  H    0.071068
    83  H    0.086226
    84  H    0.062596
    85  H    0.077810
    86  H    0.072909
    87  H    0.138167
    88  H    0.064159
    89  H    0.125034
    90  H    0.123770
    91  H    0.127186
    92  H    0.102605
    93  H    0.079915
    94  H    0.079996
    95  H    0.075404
    96  H    0.072668
 Sum of Mulliken charges =  -0.00000

 Dipole moment (field-independent basis, Debye):
    X=              0.1357    Y=              0.5783    Z=             -0.1507  Tot=              0.6128
 Quadrupole moment (field-independent basis, Debye-Ang):
   XX=           -224.4955   YY=           -237.8474   ZZ=           -253.4817
   XY=             -6.4062   XZ=              1.6964   YZ=              2.9413

 Normal termination of Gaussian 16 at Fri Aug  2 01:35:47 2019.
