 Gaussian 16, Revision A.03,
 Gaussian 16:  ES64L-G16RevA.03 25-Dec-2016

 ---------------------------------
 # td=(NStates=1) B3LYP/6-31G(d,p)
 ---------------------------------

 --
 TD
 --
 Symbolic Z-matrix:
 Charge =  0 Multiplicity = 1

                         Standard orientation:
 ---------------------------------------------------------------------
 Center     Atomic      Atomic             Coordinates (Angstroms)
 Number     Number       Type             X           Y           Z
 ---------------------------------------------------------------------
      1          6           0      -12.141612   -0.445383   -0.848846
      2          6           0       12.079602    0.021922    0.902999
      3          6           0      -13.421196    0.402005   -0.635831
      4          6           0       12.987830   -1.224348    1.244070
      5          6           0      -13.169818    1.847038   -0.487925
      6          6           0       13.376317   -1.933817    0.020746
      7          6           0      -11.040811    0.018935    0.189125
      8          6           0       10.970900   -0.494475    0.011449
      9          6           0      -12.380737    2.053407    0.801928
     10          6           0       12.052048   -2.624843   -0.500425
     11          6           0      -11.168945    1.121169    0.965853
     12          6           0       10.929634   -1.595700   -0.782572
     13          6           0      -11.584835   -0.414715   -2.264490
     14          6           0      -12.434338   -2.020337   -0.480936
     15          6           0       12.967314    1.040061    0.147631
     16          6           0       11.516712    0.685021    2.130262
     17          6           0       -9.872473   -0.969374    0.270642
     18          6           0        9.929550    0.558121   -0.233762
     19          6           0      -10.196361    1.614358    1.952804
     20          6           0        9.810196   -2.156312   -1.651324
     21          6           0       -8.560466   -0.524668    0.323746
     22          6           0        8.545139    0.386854   -0.207688
     23          6           0       -7.414752   -1.372982    0.441142
     24          6           0        7.517200    1.354215   -0.403219
     25          6           0       -7.497290   -2.865163    0.751802
     26          6           0        8.008750    2.729440   -0.671528
     27          6           0       -6.143344   -0.726217    0.464657
     28          6           0        6.218196    0.962730   -0.366285
     29          6           0       -4.811767   -1.309381    0.478226
     30          6           0        5.053444    1.726817   -0.439850
     31          6           0       -3.657652   -0.699136    0.268259
     32          6           0        3.781981    1.139495   -0.340324
     33          6           0       -2.424625   -1.253957    0.292932
     34          6           0        2.497715    1.787430   -0.510356
     35          6           0       -2.212414   -2.803400    0.480309
     36          6           0        2.530312    3.432637   -0.680078
     37          6           0       -1.172207   -0.577766    0.179239
     38          6           0        1.436925    1.082859   -0.243094
     39          6           0       -1.120466    0.803891   -0.135907
     40          6           0        0.028994    1.509509   -0.213777
     41          1           0      -13.922416    0.019785    0.198641
     42          1           0      -13.994682   -0.053400   -1.494758
     43          1           0       12.408811   -1.919227    1.833464
     44          1           0       13.980769   -0.924548    1.659001
     45          1           0      -14.001917    2.306028   -0.488123
     46          1           0      -12.628513    2.133269   -1.351708
     47          1           0       14.143878   -2.773614    0.158355
     48          1           0       13.816318   -1.506096   -0.834334
     49          1           0      -12.899118    2.117208    1.730515
     50          1           0      -11.922700    2.967470    0.699238
     51          1           0       11.528299   -3.334855    0.180051
     52          1           0       12.276740   -3.072721   -1.561425
     53          1           0      -11.210413    0.674128   -2.877092
     54          1           0      -12.487476   -1.131051   -2.640118
     55          1           0      -10.576094   -0.823451   -2.385975
     56          1           0      -12.463579   -2.249054    0.618508
     57          1           0      -11.563776   -2.714376   -0.861452
     58          1           0      -13.333107   -2.292042   -1.020419
     59          1           0       13.297902    0.641412   -0.818745
     60          1           0       13.782157    1.332919    0.815468
     61          1           0       12.460764    1.962990   -0.019091
     62          1           0       10.750223   -0.016628    2.681380
     63          1           0       11.020122    1.573519    2.161829
     64          1           0       12.268924    1.109604    2.743819
     65          1           0       -9.990990   -2.110679    0.434742
     66          1           0       10.238576    1.574991   -0.630089
     67          1           0       -9.473361    1.048816    2.325970
     68          1           0      -10.597950    2.262327    2.651111
     69          1           0       -9.660113    2.493993    1.361859
     70          1           0        8.937238   -1.690721   -2.077294
     71          1           0        9.267288   -2.944185   -1.100402
     72          1           0       10.182878   -2.418118   -2.684011
     73          1           0       -8.413672    0.590915    0.106096
     74          1           0        8.195491   -0.613965    0.234072
     75          1           0       -7.865558   -3.114604    1.786942
     76          1           0       -6.500115   -3.406479    0.361237
     77          1           0       -8.171177   -3.518950    0.181531
     78          1           0        8.454130    2.575973   -1.805655
     79          1           0        8.652831    3.315757    0.113278
     80          1           0        7.057052    3.277886   -0.810124
     81          1           0       -6.043990    0.451472    0.332828
     82          1           0        5.944072   -0.039234   -0.328102
     83          1           0       -4.822562   -2.388511    0.472801
     84          1           0        4.940781    2.844766   -0.569145
     85          1           0       -3.704407    0.478464    0.363732
     86          1           0        3.813552    0.174797   -0.106003
     87          1           0       -2.773707   -2.851953    1.351591
     88          1           0       -1.139997   -3.053342    0.561485
     89          1           0       -2.733577   -3.318482   -0.212152
     90          1           0        3.070569    3.815940   -1.594146
     91          1           0        2.917628    4.208419    0.013801
     92          1           0        1.356524    3.675785   -0.735415
     93          1           0       -0.132949   -1.050183    0.189279
     94          1           0        1.439515    0.069808    0.004652
     95          1           0       -1.979405    1.415433   -0.087296
     96          1           0       -0.071599    2.620950   -0.551831
 ---------------------------------------------------------------------

 SCF Done:  E(RB3LYP) =  -1557.56252946     A.U. after   15 cycles

 Excitation energies and oscillator strengths:

 Excited State   1:      Singlet-A      2.1298 eV  582.14 nm  f=2.8579  <S**2>=0.000
     148 ->149         0.70434
     148 <-149        -0.10302
 This state for optimization and/or second-order correction.
 Total Energy, E(TD-HF/TD-DFT) =  -1557.48426029
 Copying the excited state density for this state as the 1-particle RhoCI density.

 The electronic state is 1-A.
 Alpha  occ. eigenvalues --  -10.21175 -10.20452 -10.20369 -10.20313 -10.20232
 Alpha  occ. eigenvalues --  -10.20190 -10.20004 -10.19949 -10.19916 -10.19632
 Alpha  occ. eigenvalues --  -10.19549 -10.19410 -10.19375 -10.18982 -10.18956
 Alpha  occ. eigenvalues --  -10.18932 -10.18854 -10.18752 -10.18740 -10.18684
 Alpha  occ. eigenvalues --  -10.18640 -10.18563 -10.18413 -10.18270 -10.18203
 Alpha  occ. eigenvalues --  -10.18082 -10.18003 -10.17840 -10.17828 -10.17785
 Alpha  occ. eigenvalues --  -10.17679 -10.17486 -10.17482 -10.17465 -10.16938
 Alpha  occ. eigenvalues --  -10.16895 -10.16890 -10.16816 -10.16443 -10.16087
 Alpha  occ. eigenvalues --   -0.85015  -0.84682  -0.83870  -0.83136  -0.81936
 Alpha  occ. eigenvalues --   -0.81135  -0.78820  -0.78613  -0.78050  -0.77415
 Alpha  occ. eigenvalues --   -0.76927  -0.75510  -0.74330  -0.72016  -0.71409
 Alpha  occ. eigenvalues --   -0.69278  -0.68660  -0.68613  -0.68145  -0.67895
 Alpha  occ. eigenvalues --   -0.67563  -0.67332  -0.66570  -0.66398  -0.66124
 Alpha  occ. eigenvalues --   -0.63226  -0.62055  -0.60675  -0.59354  -0.57276
 Alpha  occ. eigenvalues --   -0.56660  -0.56346  -0.54790  -0.54027  -0.52727
 Alpha  occ. eigenvalues --   -0.52191  -0.51758  -0.50451  -0.49748  -0.49224
 Alpha  occ. eigenvalues --   -0.48512  -0.48151  -0.47312  -0.46628  -0.46190
 Alpha  occ. eigenvalues --   -0.45840  -0.45388  -0.45176  -0.44455  -0.44050
 Alpha  occ. eigenvalues --   -0.43539  -0.43196  -0.42806  -0.42461  -0.42429
 Alpha  occ. eigenvalues --   -0.41971  -0.41698  -0.41493  -0.41470  -0.40826
 Alpha  occ. eigenvalues --   -0.40422  -0.40088  -0.39717  -0.39590  -0.39282
 Alpha  occ. eigenvalues --   -0.39203  -0.38704  -0.38685  -0.38430  -0.38361
 Alpha  occ. eigenvalues --   -0.37876  -0.37323  -0.37122  -0.36702  -0.36111
 Alpha  occ. eigenvalues --   -0.35890  -0.35770  -0.35402  -0.35283  -0.35095
 Alpha  occ. eigenvalues --   -0.34721  -0.34699  -0.34438  -0.34210  -0.33949
 Alpha  occ. eigenvalues --   -0.33575  -0.33179  -0.32811  -0.32722  -0.32283
 Alpha  occ. eigenvalues --   -0.32118  -0.31974  -0.31647  -0.31345  -0.30769
 Alpha  occ. eigenvalues --   -0.30159  -0.29778  -0.29481  -0.29075  -0.27981
 Alpha  occ. eigenvalues --   -0.27624  -0.27441  -0.25804  -0.23838  -0.22567
 Alpha  occ. eigenvalues --   -0.21209  -0.18487  -0.16040
 Alpha virt. eigenvalues --   -0.08124  -0.05010  -0.00975   0.01380   0.02743
 Alpha virt. eigenvalues --    0.04070   0.06206   0.06704   0.06925   0.07397
 Alpha virt. eigenvalues --    0.07918   0.08186   0.08495   0.08632   0.08818

 Mulliken charges:
               1
     1  C   -0.014243
     2  C    0.007620
     3  C   -0.166551
     4  C   -0.160327
     5  C   -0.167892
     6  C   -0.182280
     7  C    0.039479
     8  C    0.046210
     9  C   -0.240025
    10  C   -0.223348
    11  C    0.073230
    12  C    0.060008
    13  C   -0.257398
    14  C   -0.324465
    15  C   -0.306669
    16  C   -0.301485
    17  C   -0.135641
    18  C   -0.142139
    19  C   -0.355686
    20  C   -0.357631
    21  C   -0.099410
    22  C   -0.086216
    23  C    0.111006
    24  C    0.122516
    25  C   -0.380290
    26  C   -0.368737
    27  C   -0.126233
    28  C   -0.118356
    29  C   -0.087508
    30  C   -0.069386
    31  C   -0.075780
    32  C   -0.112317
    33  C    0.070877
    34  C    0.114649
    35  C   -0.361509
    36  C   -0.377582
    37  C   -0.136024
    38  C   -0.086338
    39  C   -0.054161
    40  C   -0.123679
    41  H    0.098554
    42  H    0.064943
    43  H    0.101890
    44  H    0.079728
    45  H    0.098344
    46  H    0.106309
    47  H    0.078526
    48  H    0.110830
    49  H    0.110411
    50  H    0.108862
    51  H    0.107070
    52  H    0.071910
    53  H    0.061237
    54  H    0.077518
    55  H    0.119728
    56  H    0.111588
    57  H    0.094139
    58  H    0.099855
    59  H    0.106652
    60  H    0.098138
    61  H    0.105048
    62  H    0.086127
    63  H    0.113307
    64  H    0.091211
    65  H    0.081643
    66  H    0.081091
    67  H    0.130608
    68  H    0.110762
    69  H    0.088193
    70  H    0.122235
    71  H    0.115831
    72  H    0.098107
    73  H    0.086041
    74  H    0.058250
    75  H    0.129769
    76  H    0.098558
    77  H    0.116433
    78  H    0.107010
    79  H    0.116056
    80  H    0.105847
    81  H    0.065569
    82  H    0.075133
    83  H    0.068766
    84  H    0.070325
    85  H    0.069705
    86  H    0.060100
    87  H    0.129499
    88  H    0.107550
    89  H    0.127512
    90  H    0.113916
    91  H    0.127319
    92  H    0.090733
    93  H    0.085528
    94  H    0.072967
    95  H    0.083727
    96  H    0.057001
 Sum of Mulliken charges =  -0.00000

 Dipole moment (field-independent basis, Debye):
    X=             -0.7853    Y=             -0.0181    Z=              0.5611  Tot=              0.9654
 Quadrupole moment (field-independent basis, Debye-Ang):
   XX=           -210.2573   YY=           -233.7733   ZZ=           -255.4154
   XY=              1.0323   XZ=             -8.7874   YZ=              0.6711

 Normal termination of Gaussian 16 at Fri Jul 26 17:15:03 2019.
