 Gaussian 16, Revision A.03,
 Gaussian 16:  ES64L-G16RevA.03 25-Dec-2016

 ---------------------------------
 # td=(NStates=1) B3LYP/6-31G(d,p)
 ---------------------------------

 --
 TD
 --
 Symbolic Z-matrix:
 Charge =  0 Multiplicity = 1

                         Standard orientation:
 ---------------------------------------------------------------------
 Center     Atomic      Atomic             Coordinates (Angstroms)
 Number     Number       Type             X           Y           Z
 ---------------------------------------------------------------------
      1          6           0       12.207178    0.382645   -0.696329
      2          6           0      -12.144346   -0.068444    0.987615
      3          6           0       13.413283   -0.534797   -0.455854
      4          6           0      -13.059306    1.127936    1.357262
      5          6           0       13.167341   -2.046558   -0.419943
      6          6           0      -13.448977    2.029196    0.210752
      7          6           0       11.001247   -0.013077    0.221976
      8          6           0      -11.002273    0.315326   -0.008934
      9          6           0       12.144506   -2.198595    0.821368
     10          6           0      -12.143628    2.599428   -0.386601
     11          6           0       11.028218   -1.198330    0.938855
     12          6           0      -11.022556    1.506836   -0.738227
     13          6           0       11.695494    0.472627   -2.132518
     14          6           0       12.651585    1.853705   -0.208356
     15          6           0      -13.074864   -1.191973    0.333109
     16          6           0      -11.424812   -0.681338    2.272276
     17          6           0        9.839050    0.902777    0.213120
     18          6           0       -9.971753   -0.636676   -0.352826
     19          6           0       10.025300   -1.502908    2.092982
     20          6           0      -10.014153    2.073295   -1.837067
     21          6           0        8.501976    0.550188    0.336934
     22          6           0       -8.609590   -0.460260   -0.254496
     23          6           0        7.399987    1.364159    0.430245
     24          6           0       -7.550610   -1.363437   -0.460230
     25          6           0        7.636577    2.906060    0.624286
     26          6           0       -7.788145   -2.754218   -0.733905
     27          6           0        6.164308    0.836437    0.301138
     28          6           0       -6.236018   -0.982087   -0.460928
     29          6           0        4.834405    1.463037    0.198109
     30          6           0       -4.991319   -1.608354   -0.512729
     31          6           0        3.709128    0.752363    0.159003
     32          6           0       -3.745644   -1.029968   -0.576864
     33          6           0        2.389898    1.347698    0.104203
     34          6           0       -2.566369   -1.670287   -0.413814
     35          6           0        2.258923    2.912374    0.327100
     36          6           0       -2.572258   -3.138332   -0.597013
     37          6           0        1.317146    0.663755    0.030499
     38          6           0       -1.325405   -0.971338   -0.322165
     39          6           0        1.284132   -0.804381   -0.212699
     40          6           0       -0.021032   -1.442297   -0.421822
     41          1           0       13.783769   -0.268906    0.402966
     42          1           0       14.291345   -0.239797   -1.147089
     43          1           0      -12.324357    1.937611    2.044240
     44          1           0      -13.893093    0.767587    1.983160
     45          1           0       14.024788   -2.447893   -0.387690
     46          1           0       12.713140   -2.342220   -1.483277
     47          1           0      -14.091401    2.767941    0.438096
     48          1           0      -14.031748    1.429998   -0.441758
     49          1           0       12.899550   -2.120978    1.754773
     50          1           0       11.796842   -3.270586    0.822786
     51          1           0      -11.786689    3.434432    0.377228
     52          1           0      -12.453745    3.143524   -1.154677
     53          1           0       11.263795   -0.602742   -2.408455
     54          1           0       12.466028    0.660147   -2.802640
     55          1           0       10.891393    1.146538   -2.280628
     56          1           0       12.743238    1.663451    0.922664
     57          1           0       11.943644    2.644874   -0.255617
     58          1           0       13.667591    2.029652   -0.742138
     59          1           0      -13.748849   -0.791328   -0.410951
     60          1           0      -13.601100   -1.570237    1.187467
     61          1           0      -12.278427   -2.037142    0.176460
     62          1           0      -10.627723    0.041454    2.503869
     63          1           0      -11.049228   -1.587775    1.972734
     64          1           0      -12.294746   -0.768491    3.042860
     65          1           0       10.130581    1.822664    0.201809
     66          1           0      -10.093709   -1.619762   -0.269384
     67          1           0        9.528515   -0.443298    2.288018
     68          1           0       10.706708   -1.809348    2.911342
     69          1           0        9.353194   -2.144621    1.686163
     70          1           0       -9.434167    1.287970   -2.285880
     71          1           0       -9.307213    2.642424   -1.226619
     72          1           0      -10.586600    2.456634   -2.656488
     73          1           0        8.125702   -0.651951    0.282131
     74          1           0       -8.207519    0.453879   -0.176812
     75          1           0        8.044490    3.106946    1.641264
     76          1           0        6.859275    3.557781    0.287275
     77          1           0        8.411834    3.263034   -0.162545
     78          1           0       -8.182848   -3.018396   -1.719893
     79          1           0       -8.641337   -3.331036   -0.194397
     80          1           0       -6.939165   -3.544465   -0.598320
     81          1           0        6.262676   -0.330703    0.040403
     82          1           0       -6.228419    0.041095   -0.388818
     83          1           0        4.874363    2.562745    0.242271
     84          1           0       -4.989759   -2.706515   -0.774997
     85          1           0        3.764368   -0.374078    0.162807
     86          1           0       -3.689453    0.249366   -0.637400
     87          1           0        2.525005    3.248884    1.366049
     88          1           0        1.189000    3.019737    0.398043
     89          1           0        2.789472    3.439518   -0.382090
     90          1           0       -2.841113   -3.775716   -1.559865
     91          1           0       -3.199309   -3.531276    0.215152
     92          1           0       -1.539395   -3.546730   -0.348492
     93          1           0        0.455600    1.107619    0.023336
     94          1           0       -1.369699    0.189919   -0.263971
     95          1           0        2.059910   -1.383574   -0.154997
     96          1           0        0.125262   -2.430971   -0.604555
 ---------------------------------------------------------------------

 SCF Done:  E(RB3LYP) =  -1557.54538272     A.U. after   17 cycles

 Excitation energies and oscillator strengths:

 Excited State   1:      Singlet-A      1.9918 eV  622.47 nm  f=2.9059  <S**2>=0.000
     147 ->149        -0.19515
     148 ->149         0.68220
     148 <-149        -0.13039
 This state for optimization and/or second-order correction.
 Total Energy, E(TD-HF/TD-DFT) =  -1557.47218498
 Copying the excited state density for this state as the 1-particle RhoCI density.

 The electronic state is 1-A.
 Alpha  occ. eigenvalues --  -10.20454 -10.20361 -10.20173 -10.20075 -10.19988
 Alpha  occ. eigenvalues --  -10.19978 -10.19883 -10.19738 -10.19684 -10.19561
 Alpha  occ. eigenvalues --  -10.19435 -10.19374 -10.19344 -10.19333 -10.19245
 Alpha  occ. eigenvalues --  -10.19135 -10.19118 -10.19098 -10.19097 -10.19086
 Alpha  occ. eigenvalues --  -10.18964 -10.18751 -10.18454 -10.18288 -10.18194
 Alpha  occ. eigenvalues --  -10.18115 -10.18039 -10.18020 -10.18003 -10.17776
 Alpha  occ. eigenvalues --  -10.17774 -10.17747 -10.17658 -10.17593 -10.17510
 Alpha  occ. eigenvalues --  -10.17474 -10.16884 -10.16560 -10.16560 -10.16340
 Alpha  occ. eigenvalues --   -0.84698  -0.84289  -0.83991  -0.83600  -0.82701
 Alpha  occ. eigenvalues --   -0.82313  -0.78842  -0.77985  -0.77312  -0.77060
 Alpha  occ. eigenvalues --   -0.76859  -0.75704  -0.74357  -0.72318  -0.71841
 Alpha  occ. eigenvalues --   -0.70283  -0.68775  -0.68690  -0.68052  -0.67764
 Alpha  occ. eigenvalues --   -0.67558  -0.67153  -0.66710  -0.66461  -0.65908
 Alpha  occ. eigenvalues --   -0.64132  -0.63361  -0.60708  -0.60165  -0.58269
 Alpha  occ. eigenvalues --   -0.57180  -0.55678  -0.54833  -0.54351  -0.53318
 Alpha  occ. eigenvalues --   -0.52575  -0.51877  -0.50954  -0.50275  -0.49107
 Alpha  occ. eigenvalues --   -0.48058  -0.47378  -0.46842  -0.46743  -0.46471
 Alpha  occ. eigenvalues --   -0.45793  -0.45212  -0.44983  -0.44402  -0.44197
 Alpha  occ. eigenvalues --   -0.43854  -0.43458  -0.43273  -0.42958  -0.42746
 Alpha  occ. eigenvalues --   -0.42575  -0.42281  -0.42106  -0.41192  -0.41104
 Alpha  occ. eigenvalues --   -0.40842  -0.40171  -0.40038  -0.39880  -0.39567
 Alpha  occ. eigenvalues --   -0.39345  -0.39012  -0.38891  -0.38445  -0.38129
 Alpha  occ. eigenvalues --   -0.37743  -0.37346  -0.37153  -0.36898  -0.36478
 Alpha  occ. eigenvalues --   -0.36342  -0.35967  -0.35532  -0.35410  -0.34951
 Alpha  occ. eigenvalues --   -0.34842  -0.34592  -0.34333  -0.34120  -0.33872
 Alpha  occ. eigenvalues --   -0.33593  -0.33417  -0.33213  -0.33017  -0.32837
 Alpha  occ. eigenvalues --   -0.32417  -0.32001  -0.31561  -0.30771  -0.30641
 Alpha  occ. eigenvalues --   -0.30342  -0.29978  -0.29605  -0.29526  -0.28731
 Alpha  occ. eigenvalues --   -0.28486  -0.27988  -0.26660  -0.24383  -0.23113
 Alpha  occ. eigenvalues --   -0.21050  -0.18676  -0.16216
 Alpha virt. eigenvalues --   -0.09209  -0.05663  -0.02414   0.00899   0.02486
 Alpha virt. eigenvalues --    0.04737   0.05966   0.06824   0.06982   0.07185
 Alpha virt. eigenvalues --    0.07812   0.08248   0.08881   0.09311   0.09357

 Mulliken charges:
               1
     1  C   -0.002606
     2  C   -0.025525
     3  C   -0.176721
     4  C   -0.150661
     5  C   -0.163395
     6  C   -0.176108
     7  C    0.074312
     8  C    0.087959
     9  C   -0.232216
    10  C   -0.204475
    11  C    0.026938
    12  C    0.015514
    13  C   -0.282477
    14  C   -0.315917
    15  C   -0.298124
    16  C   -0.291121
    17  C   -0.116653
    18  C   -0.121761
    19  C   -0.342641
    20  C   -0.356679
    21  C   -0.113026
    22  C   -0.096692
    23  C    0.172945
    24  C    0.181808
    25  C   -0.376360
    26  C   -0.417570
    27  C   -0.153380
    28  C   -0.125345
    29  C   -0.087179
    30  C   -0.088953
    31  C   -0.083657
    32  C   -0.087371
    33  C    0.110248
    34  C    0.133928
    35  C   -0.371169
    36  C   -0.384386
    37  C   -0.094348
    38  C   -0.103590
    39  C   -0.076308
    40  C   -0.103566
    41  H    0.106754
    42  H    0.059807
    43  H    0.035982
    44  H    0.078846
    45  H    0.102537
    46  H    0.075032
    47  H    0.098344
    48  H    0.091184
    49  H    0.081687
    50  H    0.098312
    51  H    0.082341
    52  H    0.098560
    53  H    0.077351
    54  H    0.099694
    55  H    0.107686
    56  H    0.094622
    57  H    0.108391
    58  H    0.091541
    59  H    0.114498
    60  H    0.103843
    61  H    0.091207
    62  H    0.115846
    63  H    0.108579
    64  H    0.086925
    65  H    0.066512
    66  H    0.064377
    67  H    0.109079
    68  H    0.105034
    69  H    0.130151
    70  H    0.120283
    71  H    0.130813
    72  H    0.118117
    73  H    0.061910
    74  H    0.057680
    75  H    0.127078
    76  H    0.114299
    77  H    0.101821
    78  H    0.127743
    79  H    0.092087
    80  H    0.100361
    81  H    0.057787
    82  H    0.058510
    83  H    0.084745
    84  H    0.085142
    85  H    0.082633
    86  H    0.050125
    87  H    0.114594
    88  H    0.107342
    89  H    0.127120
    90  H    0.113779
    91  H    0.124894
    92  H    0.098452
    93  H    0.058052
    94  H    0.070673
    95  H    0.076285
    96  H    0.069279
 Sum of Mulliken charges =  -0.00000

 Dipole moment (field-independent basis, Debye):
    X=             -0.3834    Y=              0.4165    Z=             -0.2510  Tot=              0.6193
 Quadrupole moment (field-independent basis, Debye-Ang):
   XX=           -216.5566   YY=           -233.4219   ZZ=           -256.8321
   XY=             -0.4175   XZ=              5.6760   YZ=              0.1018

 Normal termination of Gaussian 16 at Wed Jul 31 18:53:34 2019.
