 Gaussian 16, Revision A.03,
 Gaussian 16:  ES64L-G16RevA.03 25-Dec-2016

 ---------------------------------
 # td=(NStates=1) B3LYP/6-31G(d,p)
 ---------------------------------

 --
 TD
 --
 Symbolic Z-matrix:
 Charge =  0 Multiplicity = 1

                         Standard orientation:
 ---------------------------------------------------------------------
 Center     Atomic      Atomic             Coordinates (Angstroms)
 Number     Number       Type             X           Y           Z
 ---------------------------------------------------------------------
      1          6           0      -12.133102   -0.588469   -0.539210
      2          6           0       12.144941    0.013494    0.911595
      3          6           0      -13.423140    0.312374   -0.528360
      4          6           0       12.805781   -1.137318    1.381626
      5          6           0      -13.109201    1.801742   -0.699287
      6          6           0       13.353425   -1.903115    0.175475
      7          6           0      -10.970450   -0.001211    0.223980
      8          6           0       10.911578   -0.344410   -0.129969
      9          6           0      -12.156195    2.241533    0.498128
     10          6           0       12.253294   -2.574678   -0.722018
     11          6           0      -11.062205    1.317892    0.735959
     12          6           0       11.084095   -1.474777   -0.853465
     13          6           0      -11.676722   -0.674604   -2.027918
     14          6           0      -12.597807   -1.994062   -0.119288
     15          6           0       12.989228    1.145314    0.262054
     16          6           0       11.441391    0.686420    2.210915
     17          6           0       -9.805129   -0.888347    0.454669
     18          6           0        9.887812    0.631518   -0.203970
     19          6           0      -10.052388    1.885509    1.737468
     20          6           0       10.140485   -2.056245   -1.871861
     21          6           0       -8.511635   -0.555403    0.267247
     22          6           0        8.526367    0.319735   -0.121114
     23          6           0       -7.355707   -1.423195    0.410393
     24          6           0        7.425222    1.239409   -0.338094
     25          6           0       -7.538623   -2.809933    0.687333
     26          6           0        7.781781    2.720987   -0.653543
     27          6           0       -6.133850   -0.695175    0.348284
     28          6           0        6.087502    0.734420   -0.340564
     29          6           0       -4.881962   -1.320246    0.457894
     30          6           0        5.035739    1.550972   -0.533462
     31          6           0       -3.687725   -0.787848    0.239052
     32          6           0        3.720925    0.989839   -0.392610
     33          6           0       -2.340825   -1.335800    0.219911
     34          6           0        2.464665    1.782498   -0.486427
     35          6           0       -2.115080   -2.729303    0.503431
     36          6           0        2.552728    3.281275   -0.732342
     37          6           0       -1.201821   -0.533858   -0.003614
     38          6           0        1.297575    1.078195   -0.265820
     39          6           0       -1.178056    0.889015    0.045218
     40          6           0       -0.025202    1.628098   -0.210290
     41          1           0      -13.968994    0.032124    0.544081
     42          1           0      -14.121052   -0.028028   -1.211984
     43          1           0       12.092227   -1.736836    1.800972
     44          1           0       13.728662   -1.023332    1.999316
     45          1           0      -13.957143    2.582829   -0.712037
     46          1           0      -12.676587    1.868198   -1.808980
     47          1           0       13.857097   -2.819442    0.567148
     48          1           0       14.013920   -1.410827   -0.551853
     49          1           0      -12.806856    2.288799    1.273048
     50          1           0      -11.484558    3.251822    0.433595
     51          1           0       11.797722   -3.659704   -0.264009
     52          1           0       12.625374   -3.019648   -1.663493
     53          1           0      -11.363244    0.374370   -2.492800
     54          1           0      -12.607476   -1.000297   -2.444064
     55          1           0      -10.810572   -1.505228   -2.090963
     56          1           0      -12.925780   -1.905288    0.885839
     57          1           0      -11.823486   -2.956783    0.028294
     58          1           0      -13.193933   -2.436715   -0.882804
     59          1           0       13.357783    0.783414   -0.586755
     60          1           0       13.549959    1.577606    0.920106
     61          1           0       12.397128    2.069984   -0.081684
     62          1           0       10.804162   -0.109628    2.795332
     63          1           0       10.730003    1.576227    2.371253
     64          1           0       12.268688    0.938876    3.071090
     65          1           0      -10.205918   -1.919714    0.415651
     66          1           0       10.057044    1.713647   -0.158998
     67          1           0       -9.447012    1.080256    2.302668
     68          1           0      -10.474311    2.628774    2.474426
     69          1           0       -9.312876    2.487710    1.211478
     70          1           0        9.340265   -1.189161   -2.214558
     71          1           0        9.564283   -2.960747   -1.209476
     72          1           0       10.491973   -2.509745   -2.865457
     73          1           0       -8.264645    0.508539    0.051898
     74          1           0        8.240873   -0.722021   -0.010819
     75          1           0       -8.253408   -2.869880    1.560020
     76          1           0       -6.528031   -3.253277    0.933636
     77          1           0       -8.039764   -3.307864   -0.130358
     78          1           0        8.455829    2.853861   -1.517157
     79          1           0        8.387720    3.009350    0.205644
     80          1           0        7.060857    3.340282   -0.789488
     81          1           0       -6.190766    0.311886    0.021673
     82          1           0        6.033316   -0.242327   -0.132507
     83          1           0       -4.795119   -2.380078    0.776653
     84          1           0        5.145150    2.622117   -0.690565
     85          1           0       -3.805720    0.351170    0.040360
     86          1           0        3.721518   -0.173819   -0.451783
     87          1           0       -2.615155   -3.201612    1.325625
     88          1           0       -1.213923   -3.200532    0.357126
     89          1           0       -2.581952   -3.188558   -0.359056
     90          1           0        2.969388    3.484321   -1.829398
     91          1           0        3.099979    3.753608   -0.200197
     92          1           0        1.509553    3.721540   -0.661694
     93          1           0       -0.370957   -1.143159   -0.011441
     94          1           0        1.193122   -0.013236    0.033026
     95          1           0       -2.100084    1.421902   -0.018275
     96          1           0       -0.240525    2.720814   -0.341731
 ---------------------------------------------------------------------

 SCF Done:  E(RB3LYP) =  -1557.55331505     A.U. after   16 cycles

 Excitation energies and oscillator strengths:

 Excited State   1:      Singlet-A      1.9487 eV  636.23 nm  f=3.1614  <S**2>=0.000
     148 ->149         0.70926
     148 <-149        -0.12515
 This state for optimization and/or second-order correction.
 Total Energy, E(TD-HF/TD-DFT) =  -1557.48170069
 Copying the excited state density for this state as the 1-particle RhoCI density.

 The electronic state is 1-A.
 Alpha  occ. eigenvalues --  -10.20574 -10.20455 -10.20285 -10.20242 -10.20191
 Alpha  occ. eigenvalues --  -10.20056 -10.20010 -10.20001 -10.19827 -10.19785
 Alpha  occ. eigenvalues --  -10.19612 -10.19258 -10.19064 -10.18999 -10.18997
 Alpha  occ. eigenvalues --  -10.18779 -10.18765 -10.18735 -10.18725 -10.18646
 Alpha  occ. eigenvalues --  -10.18546 -10.18535 -10.18505 -10.18487 -10.18478
 Alpha  occ. eigenvalues --  -10.18466 -10.18431 -10.18382 -10.18304 -10.18196
 Alpha  occ. eigenvalues --  -10.18178 -10.18092 -10.18021 -10.17897 -10.17877
 Alpha  occ. eigenvalues --  -10.17502 -10.17087 -10.16923 -10.16837 -10.15328
 Alpha  occ. eigenvalues --   -0.84843  -0.84807  -0.83700  -0.82771  -0.82343
 Alpha  occ. eigenvalues --   -0.81027  -0.78873  -0.78828  -0.78009  -0.77028
 Alpha  occ. eigenvalues --   -0.76378  -0.75439  -0.74612  -0.72125  -0.71661
 Alpha  occ. eigenvalues --   -0.70843  -0.69270  -0.69174  -0.68676  -0.67872
 Alpha  occ. eigenvalues --   -0.67374  -0.67075  -0.66382  -0.65483  -0.65256
 Alpha  occ. eigenvalues --   -0.62294  -0.61656  -0.59247  -0.58717  -0.57219
 Alpha  occ. eigenvalues --   -0.56458  -0.55615  -0.54837  -0.54390  -0.53321
 Alpha  occ. eigenvalues --   -0.52572  -0.52272  -0.50677  -0.50402  -0.48859
 Alpha  occ. eigenvalues --   -0.48201  -0.47515  -0.47099  -0.46746  -0.46497
 Alpha  occ. eigenvalues --   -0.45779  -0.45441  -0.45002  -0.44233  -0.44034
 Alpha  occ. eigenvalues --   -0.43660  -0.43151  -0.42604  -0.42558  -0.42254
 Alpha  occ. eigenvalues --   -0.42089  -0.41789  -0.41607  -0.41442  -0.41223
 Alpha  occ. eigenvalues --   -0.40855  -0.40579  -0.40292  -0.39384  -0.39273
 Alpha  occ. eigenvalues --   -0.38990  -0.38820  -0.38540  -0.38320  -0.38050
 Alpha  occ. eigenvalues --   -0.37961  -0.37871  -0.37740  -0.37052  -0.36791
 Alpha  occ. eigenvalues --   -0.36508  -0.35653  -0.35626  -0.35294  -0.35035
 Alpha  occ. eigenvalues --   -0.34814  -0.34578  -0.34484  -0.33865  -0.33802
 Alpha  occ. eigenvalues --   -0.33694  -0.33127  -0.32827  -0.32614  -0.32347
 Alpha  occ. eigenvalues --   -0.32180  -0.31857  -0.31508  -0.31241  -0.31025
 Alpha  occ. eigenvalues --   -0.31000  -0.29971  -0.29439  -0.29407  -0.28581
 Alpha  occ. eigenvalues --   -0.28147  -0.26708  -0.25692  -0.23644  -0.22437
 Alpha  occ. eigenvalues --   -0.20286  -0.17885  -0.15304
 Alpha virt. eigenvalues --   -0.08254  -0.05371  -0.01806   0.00813   0.02323
 Alpha virt. eigenvalues --    0.04156   0.06430   0.06968   0.07740   0.08060
 Alpha virt. eigenvalues --    0.08222   0.08488   0.08792   0.09102   0.09305

 Mulliken charges:
               1
     1  C   -0.036069
     2  C    0.019855
     3  C   -0.158825
     4  C   -0.149988
     5  C   -0.194208
     6  C   -0.209462
     7  C    0.078283
     8  C    0.060335
     9  C   -0.203960
    10  C   -0.205948
    11  C    0.065804
    12  C    0.065143
    13  C   -0.269546
    14  C   -0.300859
    15  C   -0.284300
    16  C   -0.319716
    17  C   -0.147366
    18  C   -0.136192
    19  C   -0.375519
    20  C   -0.337501
    21  C   -0.084323
    22  C   -0.104955
    23  C    0.138128
    24  C    0.078177
    25  C   -0.380597
    26  C   -0.367189
    27  C   -0.124863
    28  C   -0.075063
    29  C   -0.068350
    30  C   -0.076358
    31  C   -0.116062
    32  C   -0.133628
    33  C    0.101775
    34  C    0.083988
    35  C   -0.397037
    36  C   -0.342426
    37  C   -0.106817
    38  C   -0.096331
    39  C   -0.090238
    40  C   -0.097890
    41  H    0.056318
    42  H    0.101287
    43  H    0.115054
    44  H    0.096938
    45  H    0.086044
    46  H    0.082652
    47  H    0.081376
    48  H    0.107247
    49  H    0.129370
    50  H    0.077876
    51  H    0.059296
    52  H    0.106219
    53  H    0.092433
    54  H    0.094554
    55  H    0.088127
    56  H    0.121645
    57  H    0.064411
    58  H    0.111544
    59  H    0.109721
    60  H    0.110882
    61  H    0.083073
    62  H    0.079277
    63  H    0.098929
    64  H    0.059582
    65  H    0.070549
    66  H    0.089012
    67  H    0.113671
    68  H    0.099813
    69  H    0.115135
    70  H    0.086032
    71  H    0.082183
    72  H    0.104822
    73  H    0.079277
    74  H    0.080678
    75  H    0.121877
    76  H    0.105641
    77  H    0.131553
    78  H    0.119464
    79  H    0.120635
    80  H    0.107624
    81  H    0.081491
    82  H    0.070949
    83  H    0.064595
    84  H    0.082512
    85  H    0.057874
    86  H    0.080190
    87  H    0.127176
    88  H    0.116792
    89  H    0.122338
    90  H    0.099223
    91  H    0.134574
    92  H    0.103733
    93  H    0.073880
    94  H    0.084242
    95  H    0.087165
    96  H    0.071543
 Sum of Mulliken charges =  -0.00000

 Dipole moment (field-independent basis, Debye):
    X=             -1.2067    Y=             -0.2843    Z=             -0.3057  Tot=              1.2768
 Quadrupole moment (field-independent basis, Debye-Ang):
   XX=           -214.1779   YY=           -230.1923   ZZ=           -256.8679
   XY=              2.4413   XZ=             -2.5665   YZ=             -1.4302

 Normal termination of Gaussian 16 at Tue Jul 23 08:49:23 2019.
