 Gaussian 16, Revision A.03,
 Gaussian 16:  ES64L-G16RevA.03 25-Dec-2016

 ---------------------------------
 # td=(NStates=1) B3LYP/6-31G(d,p)
 ---------------------------------

 --
 TD
 --
 Symbolic Z-matrix:
 Charge =  0 Multiplicity = 1

                         Standard orientation:
 ---------------------------------------------------------------------
 Center     Atomic      Atomic             Coordinates (Angstroms)
 Number     Number       Type             X           Y           Z
 ---------------------------------------------------------------------
      1          6           0       12.180733    0.595725   -0.595024
      2          6           0      -12.072620    0.028244    0.905312
      3          6           0       13.541000   -0.170110   -0.378156
      4          6           0      -12.834660    1.237370    1.415618
      5          6           0       13.325662   -1.734321   -0.409815
      6          6           0      -13.279091    2.134391    0.304700
      7          6           0       10.947227    0.009419    0.262115
      8          6           0      -10.947835    0.388017   -0.129029
      9          6           0       12.430185   -2.063666    0.802331
     10          6           0      -12.040656    2.749256   -0.358075
     11          6           0       11.066945   -1.130841    0.984828
     12          6           0      -10.945144    1.626071   -0.716800
     13          6           0       11.775617    0.516630   -2.106158
     14          6           0       12.441128    2.186749   -0.283256
     15          6           0      -12.961989   -1.026703    0.160873
     16          6           0      -11.384869   -0.671994    2.200899
     17          6           0        9.733750    0.799278    0.278014
     18          6           0       -9.911413   -0.685428   -0.315082
     19          6           0       10.118915   -1.646904    1.993181
     20          6           0      -10.050903    2.108096   -1.753137
     21          6           0        8.486699    0.312543    0.231595
     22          6           0       -8.644928   -0.333437   -0.327705
     23          6           0        7.318813    1.200014    0.326767
     24          6           0       -7.516352   -1.413145   -0.362115
     25          6           0        7.478828    2.691395    0.385115
     26          6           0       -7.962360   -2.890722   -0.567705
     27          6           0        6.044728    0.705832    0.285308
     28          6           0       -6.205666   -0.972797   -0.193378
     29          6           0        4.770115    1.356096    0.216043
     30          6           0       -4.991346   -1.764908   -0.407123
     31          6           0        3.579915    0.642772    0.236770
     32          6           0       -3.846617   -1.122012   -0.485681
     33          6           0        2.316274    1.247883    0.248175
     34          6           0       -2.495384   -1.790952   -0.590877
     35          6           0        2.299804    2.703276    0.560102
     36          6           0       -2.584836   -3.304886   -0.736303
     37          6           0        1.125919    0.550765    0.050084
     38          6           0       -1.370899   -1.045423   -0.499452
     39          6           0        1.072431   -0.858483   -0.209852
     40          6           0        0.048986   -1.571076   -0.540003
     41          1           0       14.008102    0.040017    0.524235
     42          1           0       14.215751    0.058584   -1.159051
     43          1           0      -12.112366    1.808951    2.207702
     44          1           0      -13.790900    0.915953    1.802589
     45          1           0       14.396017   -2.157263   -0.222118
     46          1           0       13.026000   -2.292235   -1.424392
     47          1           0      -14.122307    2.825833    0.590064
     48          1           0      -13.883753    1.484788   -0.517212
     49          1           0       12.938173   -2.055974    1.707936
     50          1           0       11.935329   -3.112632    0.789851
     51          1           0      -11.657264    3.623961    0.302054
     52          1           0      -12.327746    3.214745   -1.297783
     53          1           0       11.508584   -0.562322   -2.268446
     54          1           0       12.403948    0.934000   -2.652165
     55          1           0       10.876575    1.073706   -2.309943
     56          1           0       12.351194    2.259437    0.834620
     57          1           0       11.742140    2.835283   -0.800477
     58          1           0       13.514396    2.438683   -0.624649
     59          1           0      -13.459877   -0.603960   -0.767089
     60          1           0      -13.757134   -1.248257    0.992312
     61          1           0      -12.458360   -1.966897   -0.115206
     62          1           0      -10.863033    0.067993    2.591597
     63          1           0      -10.774405   -1.644235    1.865409
     64          1           0      -12.163745   -0.823601    3.098895
     65          1           0        9.990311    1.913981    0.582271
     66          1           0      -10.252907   -1.742120   -0.582772
     67          1           0        9.470634   -0.994049    2.420034
     68          1           0       10.753367   -2.103360    2.721174
     69          1           0        9.424158   -2.447191    1.510028
     70          1           0       -9.528836    1.284844   -2.233080
     71          1           0       -9.016761    2.508849   -1.197365
     72          1           0      -10.471104    2.817825   -2.457429
     73          1           0        8.258128   -0.706786    0.115898
     74          1           0       -8.447122    0.725809   -0.077508
     75          1           0        8.127036    3.154833    1.335569
     76          1           0        6.427278    3.437282    0.425433
     77          1           0        8.240895    3.017156   -0.468738
     78          1           0       -8.771185   -2.687426   -1.451159
     79          1           0       -8.437900   -3.134339    0.294557
     80          1           0       -7.159707   -3.596472   -0.664449
     81          1           0        6.199272   -0.332141    0.110673
     82          1           0       -5.923126    0.087011   -0.271927
     83          1           0        4.718306    2.265303    0.434579
     84          1           0       -5.319149   -2.812653   -0.413792
     85          1           0        3.653946   -0.436947   -0.065555
     86          1           0       -3.797141    0.015174   -0.400851
     87          1           0        3.031447    2.755561    1.539714
     88          1           0        1.159882    3.077188    0.738594
     89          1           0        2.753057    3.312844   -0.181110
     90          1           0       -3.023006   -3.684744   -1.642534
     91          1           0       -3.193211   -3.585189   -0.075931
     92          1           0       -1.602932   -3.747106   -0.567651
     93          1           0        0.075978    0.968056   -0.157681
     94          1           0       -1.628990    0.045052   -0.683199
     95          1           0        2.191481   -1.308030   -0.232641
     96          1           0        0.215955   -2.734835   -0.850523
 ---------------------------------------------------------------------

 SCF Done:  E(RB3LYP) =  -1557.56211428     A.U. after   14 cycles

 Excitation energies and oscillator strengths:

 Excited State   1:      Singlet-A      2.5300 eV  490.05 nm  f=2.5707  <S**2>=0.000
     147 ->149         0.11796
     148 ->149         0.69206
 This state for optimization and/or second-order correction.
 Total Energy, E(TD-HF/TD-DFT) =  -1557.46913728
 Copying the excited state density for this state as the 1-particle RhoCI density.

 The electronic state is 1-A.
 Alpha  occ. eigenvalues --  -10.21511 -10.21215 -10.20594 -10.20092 -10.20046
 Alpha  occ. eigenvalues --  -10.19982 -10.19962 -10.19915 -10.19836 -10.19825
 Alpha  occ. eigenvalues --  -10.19562 -10.19416 -10.19410 -10.19399 -10.19320
 Alpha  occ. eigenvalues --  -10.19187 -10.19124 -10.19065 -10.19041 -10.19021
 Alpha  occ. eigenvalues --  -10.18939 -10.18837 -10.18777 -10.18755 -10.18683
 Alpha  occ. eigenvalues --  -10.18643 -10.18586 -10.18574 -10.18431 -10.18403
 Alpha  occ. eigenvalues --  -10.18314 -10.18287 -10.18088 -10.18025 -10.17999
 Alpha  occ. eigenvalues --  -10.17845 -10.17544 -10.17358 -10.16241 -10.15024
 Alpha  occ. eigenvalues --   -0.84232  -0.84119  -0.83477  -0.82849  -0.81732
 Alpha  occ. eigenvalues --   -0.80921  -0.79389  -0.78049  -0.77650  -0.77022
 Alpha  occ. eigenvalues --   -0.76478  -0.75130  -0.74372  -0.72498  -0.71944
 Alpha  occ. eigenvalues --   -0.70429  -0.68531  -0.67989  -0.67915  -0.67548
 Alpha  occ. eigenvalues --   -0.67194  -0.66759  -0.66556  -0.66497  -0.65937
 Alpha  occ. eigenvalues --   -0.62545  -0.60698  -0.59277  -0.57987  -0.56756
 Alpha  occ. eigenvalues --   -0.56052  -0.55316  -0.54625  -0.53603  -0.53332
 Alpha  occ. eigenvalues --   -0.52380  -0.51987  -0.49960  -0.49883  -0.48709
 Alpha  occ. eigenvalues --   -0.47853  -0.47308  -0.46882  -0.46204  -0.45796
 Alpha  occ. eigenvalues --   -0.45086  -0.44646  -0.44599  -0.43982  -0.43652
 Alpha  occ. eigenvalues --   -0.43287  -0.42633  -0.42273  -0.42132  -0.42068
 Alpha  occ. eigenvalues --   -0.41964  -0.41593  -0.41542  -0.41382  -0.40972
 Alpha  occ. eigenvalues --   -0.40900  -0.40757  -0.40288  -0.40063  -0.39678
 Alpha  occ. eigenvalues --   -0.39361  -0.38974  -0.38886  -0.38611  -0.38191
 Alpha  occ. eigenvalues --   -0.38025  -0.37424  -0.37079  -0.36848  -0.36432
 Alpha  occ. eigenvalues --   -0.36384  -0.36249  -0.35897  -0.35680  -0.35512
 Alpha  occ. eigenvalues --   -0.34714  -0.34588  -0.34456  -0.33990  -0.33782
 Alpha  occ. eigenvalues --   -0.33441  -0.33358  -0.32977  -0.32585  -0.32486
 Alpha  occ. eigenvalues --   -0.32398  -0.31862  -0.31156  -0.30672  -0.30611
 Alpha  occ. eigenvalues --   -0.30115  -0.29964  -0.29702  -0.29005  -0.28665
 Alpha  occ. eigenvalues --   -0.27878  -0.27535  -0.26124  -0.24067  -0.22364
 Alpha  occ. eigenvalues --   -0.21384  -0.19282  -0.17249
 Alpha virt. eigenvalues --   -0.07402  -0.04647  -0.01228   0.00582   0.02613
 Alpha virt. eigenvalues --    0.03880   0.05878   0.06226   0.06692   0.07061
 Alpha virt. eigenvalues --    0.07643   0.08046   0.08244   0.08530   0.08775

 Mulliken charges:
               1
     1  C   -0.000477
     2  C    0.002480
     3  C   -0.168954
     4  C   -0.153296
     5  C   -0.197442
     6  C   -0.184775
     7  C    0.046583
     8  C    0.054385
     9  C   -0.215389
    10  C   -0.210168
    11  C    0.039704
    12  C    0.061606
    13  C   -0.284570
    14  C   -0.328432
    15  C   -0.293620
    16  C   -0.291520
    17  C   -0.128019
    18  C   -0.120929
    19  C   -0.354096
    20  C   -0.362726
    21  C   -0.089691
    22  C   -0.082483
    23  C    0.146140
    24  C    0.050042
    25  C   -0.363850
    26  C   -0.361196
    27  C   -0.127642
    28  C   -0.133177
    29  C   -0.047853
    30  C   -0.044332
    31  C   -0.099358
    32  C   -0.133069
    33  C    0.118403
    34  C    0.107445
    35  C   -0.369380
    36  C   -0.358717
    37  C   -0.120269
    38  C   -0.150536
    39  C   -0.031152
    40  C   -0.124801
    41  H    0.103999
    42  H    0.094861
    43  H    0.073538
    44  H    0.091639
    45  H    0.078091
    46  H    0.090360
    47  H    0.083124
    48  H    0.072035
    49  H    0.114694
    50  H    0.086012
    51  H    0.093300
    52  H    0.094614
    53  H    0.095806
    54  H    0.101655
    55  H    0.098094
    56  H    0.102974
    57  H    0.108076
    58  H    0.092018
    59  H    0.100556
    60  H    0.082147
    61  H    0.101853
    62  H    0.120509
    63  H    0.087416
    64  H    0.072706
    65  H    0.086692
    66  H    0.086478
    67  H    0.132210
    68  H    0.109090
    69  H    0.098348
    70  H    0.124216
    71  H    0.080581
    72  H    0.110055
    73  H    0.087530
    74  H    0.095073
    75  H    0.085530
    76  H    0.081835
    77  H    0.106896
    78  H    0.112556
    79  H    0.146463
    80  H    0.112238
    81  H    0.058212
    82  H    0.070906
    83  H    0.054360
    84  H    0.077005
    85  H    0.079186
    86  H    0.079142
    87  H    0.100988
    88  H    0.092670
    89  H    0.132545
    90  H    0.120054
    91  H    0.132652
    92  H    0.101064
    93  H    0.079697
    94  H    0.086480
    95  H    0.061048
    96  H    0.083257
 Sum of Mulliken charges =  -0.00000

 Dipole moment (field-independent basis, Debye):
    X=              0.3954    Y=             -0.3905    Z=             -0.2273  Tot=              0.6004
 Quadrupole moment (field-independent basis, Debye-Ang):
   XX=           -216.1498   YY=           -236.4821   ZZ=           -255.7464
   XY=             -0.2302   XZ=              5.1009   YZ=              0.3203

 Normal termination of Gaussian 16 at Sun Jul 28 08:49:28 2019.
