 Gaussian 16, Revision A.03,
 Gaussian 16:  ES64L-G16RevA.03 25-Dec-2016

 ---------------------------------
 # td=(NStates=1) B3LYP/6-31G(d,p)
 ---------------------------------

 --
 TD
 --
 Symbolic Z-matrix:
 Charge =  0 Multiplicity = 1

                         Standard orientation:
 ---------------------------------------------------------------------
 Center     Atomic      Atomic             Coordinates (Angstroms)
 Number     Number       Type             X           Y           Z
 ---------------------------------------------------------------------
      1          6           0       12.162052    0.423546   -0.816130
      2          6           0      -12.050560   -0.026942    0.961276
      3          6           0       13.441882   -0.360629   -0.586863
      4          6           0      -13.001393    1.180732    1.270290
      5          6           0       13.181221   -1.889145   -0.342741
      6          6           0      -13.293470    2.072766    0.148472
      7          6           0       11.060140    0.039297    0.299795
      8          6           0      -10.929867    0.379795    0.064503
      9          6           0       12.304629   -2.050038    0.965668
     10          6           0      -12.050869    2.566913   -0.522187
     11          6           0       11.206149   -1.080217    1.076849
     12          6           0      -11.006405    1.605527   -0.780943
     13          6           0       11.533119    0.078218   -2.237050
     14          6           0       12.562367    1.859682   -0.741533
     15          6           0      -12.939514   -1.129127    0.266978
     16          6           0      -11.495789   -0.579961    2.263099
     17          6           0        9.863942    0.951708    0.313579
     18          6           0       -9.903458   -0.607073   -0.230228
     19          6           0       10.282708   -1.428069    2.144319
     20          6           0      -10.102549    1.871184   -1.903974
     21          6           0        8.567647    0.571312    0.280477
     22          6           0       -8.573417   -0.283878   -0.243949
     23          6           0        7.350932    1.399918    0.474975
     24          6           0       -7.533173   -1.325534   -0.403003
     25          6           0        7.540319    2.888843    0.579464
     26          6           0       -7.871011   -2.829454   -0.762991
     27          6           0        6.114501    0.766180    0.360331
     28          6           0       -6.324410   -0.968505   -0.241467
     29          6           0        4.859214    1.450824    0.447833
     30          6           0       -5.039386   -1.682957   -0.413437
     31          6           0        3.713172    0.779007    0.119511
     32          6           0       -3.763043   -1.031231   -0.293740
     33          6           0        2.269289    1.282069    0.245279
     34          6           0       -2.500935   -1.710908   -0.414039
     35          6           0        2.174669    2.886751    0.595399
     36          6           0       -2.675597   -3.289873   -0.580320
     37          6           0        1.197752    0.534726   -0.052902
     38          6           0       -1.332404   -1.075337   -0.417718
     39          6           0        1.132778   -0.872132   -0.299939
     40          6           0       -0.023655   -1.575206   -0.404443
     41          1           0       13.919103    0.017331    0.279978
     42          1           0       14.449686   -0.223570   -1.222673
     43          1           0      -12.431621    1.808779    2.256601
     44          1           0      -13.943677    0.873081    1.643654
     45          1           0       14.011435   -2.375242   -0.309208
     46          1           0       12.614104   -2.373286   -1.193194
     47          1           0      -14.009283    2.981679    0.255956
     48          1           0      -13.804172    1.369976   -0.633751
     49          1           0       12.859015   -2.166262    1.702595
     50          1           0       11.962862   -2.892133    1.207004
     51          1           0      -11.646297    3.300247    0.223669
     52          1           0      -12.302171    3.230145   -1.386084
     53          1           0       11.569507   -1.110974   -2.571582
     54          1           0       12.017288    0.682801   -3.127968
     55          1           0       10.509322    0.532640   -2.260952
     56          1           0       13.026936    2.169819    0.086074
     57          1           0       11.595950    2.440081   -0.865026
     58          1           0       13.387173    2.177945   -1.702481
     59          1           0      -13.491640   -0.849042   -0.586314
     60          1           0      -13.676397   -1.469304    1.126812
     61          1           0      -12.242541   -1.851851   -0.071234
     62          1           0      -10.699529    0.210869    2.458420
     63          1           0      -11.115036   -1.501223    2.088382
     64          1           0      -12.181638   -0.792123    2.911822
     65          1           0       10.185796    2.042051    0.332294
     66          1           0      -10.172222   -1.688872   -0.261046
     67          1           0        9.646324   -0.536456    2.456022
     68          1           0       10.761034   -1.587751    3.146277
     69          1           0        9.566288   -2.240862    2.105460
     70          1           0       -9.308065    0.970108   -2.166648
     71          1           0       -9.364070    2.633769   -1.688144
     72          1           0      -10.570828    2.062718   -2.952873
     73          1           0        8.422068   -0.531660    0.259821
     74          1           0       -8.171147    0.679461   -0.061679
     75          1           0        7.983590    3.057991    1.611916
     76          1           0        6.575434    3.591345    0.529838
     77          1           0        8.101868    3.187890   -0.468377
     78          1           0       -8.491758   -2.613761   -1.667896
     79          1           0       -8.572584   -3.368434    0.036287
     80          1           0       -7.067810   -3.513375   -1.240140
     81          1           0        6.111303   -0.516758    0.155360
     82          1           0       -6.200979    0.161861    0.059545
     83          1           0        4.774917    2.404622    0.649136
     84          1           0       -5.294285   -2.890901   -0.265679
     85          1           0        3.830433   -0.222370   -0.157169
     86          1           0       -3.537465    0.010153   -0.244023
     87          1           0        2.769361    3.133817    1.530623
     88          1           0        1.083413    3.251153    0.666945
     89          1           0        2.519470    3.402882   -0.325389
     90          1           0       -3.108546   -3.317273   -1.508687
     91          1           0       -3.067730   -3.817321    0.306454
     92          1           0       -1.609203   -3.605444   -0.921194
     93          1           0        0.274587    1.169296    0.133154
     94          1           0       -1.414282    0.006760   -0.263505
     95          1           0        2.031078   -1.630811   -0.503912
     96          1           0        0.290171   -2.630885   -0.724262
 ---------------------------------------------------------------------

 SCF Done:  E(RB3LYP) =  -1557.49118610     A.U. after   15 cycles

 Excitation energies and oscillator strengths:

 Excited State   1:      Singlet-A      2.3509 eV  527.40 nm  f=2.7568  <S**2>=0.000
     148 ->149         0.70296
 This state for optimization and/or second-order correction.
 Total Energy, E(TD-HF/TD-DFT) =  -1557.40479343
 Copying the excited state density for this state as the 1-particle RhoCI density.

 The electronic state is 1-A.
 Alpha  occ. eigenvalues --  -10.21354 -10.21155 -10.20885 -10.20787 -10.20456
 Alpha  occ. eigenvalues --  -10.20428 -10.20238 -10.20227 -10.19994 -10.19906
 Alpha  occ. eigenvalues --  -10.19752 -10.19544 -10.19392 -10.19150 -10.19095
 Alpha  occ. eigenvalues --  -10.19059 -10.19049 -10.19002 -10.18916 -10.18911
 Alpha  occ. eigenvalues --  -10.18900 -10.18803 -10.18793 -10.18791 -10.18774
 Alpha  occ. eigenvalues --  -10.18739 -10.18663 -10.18638 -10.18227 -10.18022
 Alpha  occ. eigenvalues --  -10.18015 -10.17990 -10.17889 -10.17846 -10.17767
 Alpha  occ. eigenvalues --  -10.17605 -10.17344 -10.16864 -10.15256 -10.14802
 Alpha  occ. eigenvalues --   -0.85322  -0.84485  -0.83323  -0.82588  -0.82148
 Alpha  occ. eigenvalues --   -0.80703  -0.79438  -0.79402  -0.78473  -0.77507
 Alpha  occ. eigenvalues --   -0.76481  -0.74910  -0.73670  -0.71989  -0.71344
 Alpha  occ. eigenvalues --   -0.69214  -0.69091  -0.68887  -0.68023  -0.67567
 Alpha  occ. eigenvalues --   -0.67304  -0.67275  -0.66712  -0.66426  -0.65979
 Alpha  occ. eigenvalues --   -0.62593  -0.61986  -0.60459  -0.59293  -0.57201
 Alpha  occ. eigenvalues --   -0.56186  -0.55807  -0.54603  -0.54406  -0.52966
 Alpha  occ. eigenvalues --   -0.51935  -0.50807  -0.50044  -0.49321  -0.48758
 Alpha  occ. eigenvalues --   -0.47654  -0.47303  -0.46931  -0.46251  -0.45994
 Alpha  occ. eigenvalues --   -0.45442  -0.44875  -0.44595  -0.44347  -0.43882
 Alpha  occ. eigenvalues --   -0.43832  -0.43640  -0.42956  -0.42734  -0.42372
 Alpha  occ. eigenvalues --   -0.41811  -0.41602  -0.41468  -0.41070  -0.40970
 Alpha  occ. eigenvalues --   -0.40779  -0.40551  -0.39573  -0.39448  -0.39266
 Alpha  occ. eigenvalues --   -0.38807  -0.38751  -0.38608  -0.38398  -0.38054
 Alpha  occ. eigenvalues --   -0.37737  -0.37003  -0.36941  -0.36383  -0.36095
 Alpha  occ. eigenvalues --   -0.35531  -0.35499  -0.35192  -0.35123  -0.34688
 Alpha  occ. eigenvalues --   -0.34545  -0.34354  -0.33964  -0.33874  -0.33639
 Alpha  occ. eigenvalues --   -0.33264  -0.33110  -0.32991  -0.32663  -0.32125
 Alpha  occ. eigenvalues --   -0.31956  -0.31845  -0.31368  -0.30707  -0.30487
 Alpha  occ. eigenvalues --   -0.30282  -0.30121  -0.29535  -0.29149  -0.28929
 Alpha  occ. eigenvalues --   -0.28499  -0.27620  -0.26391  -0.24100  -0.22560
 Alpha  occ. eigenvalues --   -0.20470  -0.18683  -0.16883
 Alpha virt. eigenvalues --   -0.07645  -0.04933  -0.02062   0.00256   0.02220
 Alpha virt. eigenvalues --    0.03707   0.05583   0.05965   0.07041   0.07319
 Alpha virt. eigenvalues --    0.07524   0.07733   0.07971   0.08313   0.08865

 Mulliken charges:
               1
     1  C    0.028609
     2  C   -0.034758
     3  C   -0.174666
     4  C   -0.133887
     5  C   -0.184156
     6  C   -0.175674
     7  C    0.026958
     8  C    0.043969
     9  C   -0.184877
    10  C   -0.214437
    11  C    0.105938
    12  C    0.102168
    13  C   -0.288373
    14  C   -0.282865
    15  C   -0.296029
    16  C   -0.270541
    17  C   -0.150975
    18  C   -0.135214
    19  C   -0.406445
    20  C   -0.379813
    21  C   -0.081638
    22  C   -0.090666
    23  C    0.099176
    24  C    0.152196
    25  C   -0.357137
    26  C   -0.383400
    27  C   -0.117381
    28  C   -0.134850
    29  C   -0.041757
    30  C   -0.116942
    31  C   -0.099830
    32  C   -0.100981
    33  C    0.071222
    34  C    0.107705
    35  C   -0.371902
    36  C   -0.363769
    37  C   -0.118388
    38  C   -0.122527
    39  C   -0.094756
    40  C   -0.079013
    41  H    0.096756
    42  H    0.065397
    43  H    0.029845
    44  H    0.092335
    45  H    0.087450
    46  H    0.086839
    47  H    0.083594
    48  H    0.079338
    49  H    0.104048
    50  H    0.089933
    51  H    0.107760
    52  H    0.090638
    53  H    0.084406
    54  H    0.080501
    55  H    0.104680
    56  H    0.118537
    57  H    0.085360
    58  H    0.055547
    59  H    0.111741
    60  H    0.080939
    61  H    0.102561
    62  H    0.103078
    63  H    0.099062
    64  H    0.101385
    65  H    0.085405
    66  H    0.086317
    67  H    0.111334
    68  H    0.096867
    69  H    0.118982
    70  H    0.094174
    71  H    0.121765
    72  H    0.100368
    73  H    0.084423
    74  H    0.090474
    75  H    0.128381
    76  H    0.096240
    77  H    0.113122
    78  H    0.122484
    79  H    0.108072
    80  H    0.113138
    81  H    0.061081
    82  H    0.053825
    83  H    0.068770
    84  H    0.086200
    85  H    0.072841
    86  H    0.077885
    87  H    0.120116
    88  H    0.097502
    89  H    0.129573
    90  H    0.140681
    91  H    0.127473
    92  H    0.083295
    93  H    0.083029
    94  H    0.073621
    95  H    0.084774
    96  H    0.075763
 Sum of Mulliken charges =  -0.00000

 Dipole moment (field-independent basis, Debye):
    X=             -0.6616    Y=             -0.0263    Z=              0.5743  Tot=              0.8765
 Quadrupole moment (field-independent basis, Debye-Ang):
   XX=           -221.4777   YY=           -234.1586   ZZ=           -255.0775
   XY=             -2.7356   XZ=             12.8940   YZ=              0.0253

 Normal termination of Gaussian 16 at Thu Aug  1 14:04:26 2019.
