 Gaussian 16, Revision A.03,
 Gaussian 16:  ES64L-G16RevA.03 25-Dec-2016

 ---------------------------------
 # td=(NStates=1) B3LYP/6-31G(d,p)
 ---------------------------------

 --
 TD
 --
 Symbolic Z-matrix:
 Charge =  0 Multiplicity = 1

                         Standard orientation:
 ---------------------------------------------------------------------
 Center     Atomic      Atomic             Coordinates (Angstroms)
 Number     Number       Type             X           Y           Z
 ---------------------------------------------------------------------
      1          6           0      -12.190223   -0.549550   -0.572604
      2          6           0       12.055334   -0.046846    0.945736
      3          6           0      -13.430379    0.387436   -0.481094
      4          6           0       12.962323   -1.248952    1.322039
      5          6           0      -13.063904    1.866118   -0.458446
      6          6           0       13.386008   -2.028988    0.141049
      7          6           0      -11.058204   -0.029086    0.247453
      8          6           0       10.959638   -0.512459    0.050909
      9          6           0      -12.160738    2.160686    0.768403
     10          6           0       12.159249   -2.557113   -0.506018
     11          6           0      -11.203122    1.075418    0.966560
     12          6           0       11.065090   -1.633220   -0.771221
     13          6           0      -11.755976   -0.641883   -2.066205
     14          6           0      -12.602233   -1.975437   -0.144593
     15          6           0       12.894500    1.091115    0.344289
     16          6           0       11.341465    0.450607    2.253077
     17          6           0       -9.827350   -0.950362    0.232253
     18          6           0        9.914127    0.576361   -0.188875
     19          6           0      -10.139130    1.576171    1.921210
     20          6           0       10.062626   -1.967552   -1.810910
     21          6           0       -8.551019   -0.422680    0.270448
     22          6           0        8.663359    0.414710   -0.165511
     23          6           0       -7.457709   -1.275238    0.402902
     24          6           0        7.582161    1.437990   -0.434571
     25          6           0       -7.660305   -2.750843    0.752210
     26          6           0        8.050507    2.798911   -0.698929
     27          6           0       -6.203791   -0.710153    0.197283
     28          6           0        6.340074    0.884047   -0.337824
     29          6           0       -4.950360   -1.318507    0.388690
     30          6           0        5.024056    1.753739   -0.486169
     31          6           0       -3.762256   -0.704958    0.067717
     32          6           0        3.840576    1.050092   -0.351233
     33          6           0       -2.400153   -1.259464    0.081015
     34          6           0        2.622927    1.705123   -0.439873
     35          6           0       -2.264081   -2.710667    0.253628
     36          6           0        2.513752    3.171666   -0.695748
     37          6           0       -1.240719   -0.567420   -0.106907
     38          6           0        1.342353    1.027913   -0.330788
     39          6           0       -1.070716    0.880040   -0.324431
     40          6           0        0.070989    1.652229   -0.393299
     41          1           0      -14.275290    0.174397    0.198577
     42          1           0      -14.212520    0.197939   -1.341183
     43          1           0       12.483356   -1.707444    2.206872
     44          1           0       13.910508   -0.704680    1.743795
     45          1           0      -13.977250    2.597950   -0.599706
     46          1           0      -12.604171    1.988659   -1.324424
     47          1           0       14.014857   -2.900327    0.816560
     48          1           0       14.038196   -1.468270   -0.425009
     49          1           0      -12.696356    2.193409    1.514501
     50          1           0      -11.690623    3.246334    0.807334
     51          1           0       11.672577   -3.429011    0.020449
     52          1           0       12.372082   -2.984054   -1.528457
     53          1           0      -11.473724    0.429250   -2.584115
     54          1           0      -12.503553   -1.053827   -2.589249
     55          1           0      -10.974251   -1.340699   -2.013201
     56          1           0      -12.673335   -2.118585    0.974905
     57          1           0      -11.896513   -2.738308   -0.493664
     58          1           0      -13.575013   -2.179935   -0.358073
     59          1           0       13.815020    0.573316   -0.276858
     60          1           0       13.537823    1.704021    1.194211
     61          1           0       12.231708    1.758689   -0.131880
     62          1           0       10.741652   -0.267645    2.501292
     63          1           0       10.830478    1.376076    1.884832
     64          1           0       12.068017    0.796918    3.051777
     65          1           0       -9.894875   -2.038863    0.117154
     66          1           0       10.403886    1.677959   -0.489530
     67          1           0       -9.525980    0.942514    2.364460
     68          1           0      -10.532477    2.181402    2.785019
     69          1           0       -9.600013    2.395763    1.338626
     70          1           0        9.431998   -1.071398   -1.935615
     71          1           0        9.392059   -2.736701   -1.530851
     72          1           0       10.572780   -2.127774   -2.817946
     73          1           0       -8.614366    0.550052    0.221276
     74          1           0        8.447007   -0.572810    0.034906
     75          1           0       -8.430076   -2.806595    1.542865
     76          1           0       -6.770568   -3.292203    1.019445
     77          1           0       -7.843191   -3.413418   -0.172677
     78          1           0        8.665532    2.782591   -1.630382
     79          1           0        8.708444    3.081647    0.185977
     80          1           0        7.124844    3.493381   -0.581289
     81          1           0       -6.143230    0.246754   -0.004555
     82          1           0        6.166236   -0.171323   -0.225389
     83          1           0       -5.138343   -2.304775    0.384456
     84          1           0        5.228849    2.823400   -0.923116
     85          1           0       -3.959167    0.339257   -0.053613
     86          1           0        3.853031    0.001661    0.170100
     87          1           0       -2.580695   -2.813920    1.228432
     88          1           0       -1.281029   -2.860959    0.184909
     89          1           0       -2.924036   -3.260497   -0.619212
     90          1           0        3.034230    3.423434   -1.516854
     91          1           0        3.023273    3.735984    0.086512
     92          1           0        1.606042    3.595107   -0.966089
     93          1           0       -0.214869   -0.814455   -0.092623
     94          1           0        1.493388    0.044882    0.115775
     95          1           0       -1.999772    1.565686   -0.206962
     96          1           0       -0.015054    2.666086   -0.312238
 ---------------------------------------------------------------------

 SCF Done:  E(RB3LYP) =  -1557.51981031     A.U. after   16 cycles

 Excitation energies and oscillator strengths:

 Excited State   1:      Singlet-A      2.2111 eV  560.73 nm  f=2.8305  <S**2>=0.000
     148 ->149         0.70845
     148 <-149        -0.10376
 This state for optimization and/or second-order correction.
 Total Energy, E(TD-HF/TD-DFT) =  -1557.43855380
 Copying the excited state density for this state as the 1-particle RhoCI density.

 The electronic state is 1-A.
 Alpha  occ. eigenvalues --  -10.20833 -10.20107 -10.19964 -10.19878 -10.19873
 Alpha  occ. eigenvalues --  -10.19698 -10.19622 -10.19576 -10.19297 -10.19191
 Alpha  occ. eigenvalues --  -10.19077 -10.18999 -10.18982 -10.18959 -10.18711
 Alpha  occ. eigenvalues --  -10.18688 -10.18642 -10.18508 -10.18387 -10.18327
 Alpha  occ. eigenvalues --  -10.18306 -10.18196 -10.18145 -10.18098 -10.18060
 Alpha  occ. eigenvalues --  -10.18008 -10.17559 -10.17532 -10.17458 -10.17206
 Alpha  occ. eigenvalues --  -10.17126 -10.17073 -10.16961 -10.16911 -10.16835
 Alpha  occ. eigenvalues --  -10.16791 -10.16515 -10.16463 -10.16127 -10.15786
 Alpha  occ. eigenvalues --   -0.85713  -0.85524  -0.83835  -0.83138  -0.82469
 Alpha  occ. eigenvalues --   -0.81946  -0.79223  -0.79046  -0.78850  -0.77917
 Alpha  occ. eigenvalues --   -0.77363  -0.75548  -0.74367  -0.72850  -0.72050
 Alpha  occ. eigenvalues --   -0.70184  -0.69201  -0.69163  -0.68388  -0.68124
 Alpha  occ. eigenvalues --   -0.68078  -0.67768  -0.67608  -0.66570  -0.65895
 Alpha  occ. eigenvalues --   -0.63154  -0.61187  -0.60075  -0.59411  -0.57848
 Alpha  occ. eigenvalues --   -0.56516  -0.55563  -0.55393  -0.54444  -0.54117
 Alpha  occ. eigenvalues --   -0.52673  -0.52181  -0.51664  -0.49931  -0.49660
 Alpha  occ. eigenvalues --   -0.48341  -0.48153  -0.47333  -0.46571  -0.46240
 Alpha  occ. eigenvalues --   -0.45903  -0.45312  -0.44790  -0.44495  -0.44082
 Alpha  occ. eigenvalues --   -0.43679  -0.43481  -0.43271  -0.42818  -0.42637
 Alpha  occ. eigenvalues --   -0.42423  -0.42135  -0.42009  -0.41663  -0.41570
 Alpha  occ. eigenvalues --   -0.40985  -0.40905  -0.39998  -0.39862  -0.39616
 Alpha  occ. eigenvalues --   -0.39446  -0.39089  -0.38878  -0.38620  -0.38174
 Alpha  occ. eigenvalues --   -0.37788  -0.37644  -0.37562  -0.37361  -0.37295
 Alpha  occ. eigenvalues --   -0.37044  -0.36610  -0.36443  -0.35789  -0.35587
 Alpha  occ. eigenvalues --   -0.35343  -0.34648  -0.34519  -0.34248  -0.34081
 Alpha  occ. eigenvalues --   -0.34046  -0.34015  -0.33131  -0.32947  -0.32385
 Alpha  occ. eigenvalues --   -0.31799  -0.31256  -0.31150  -0.30861  -0.30634
 Alpha  occ. eigenvalues --   -0.30521  -0.29767  -0.29654  -0.28938  -0.28441
 Alpha  occ. eigenvalues --   -0.28067  -0.26501  -0.25887  -0.23905  -0.22660
 Alpha  occ. eigenvalues --   -0.21102  -0.18859  -0.16360
 Alpha virt. eigenvalues --   -0.08071  -0.05074  -0.00937   0.00579   0.02306
 Alpha virt. eigenvalues --    0.03731   0.06087   0.06400   0.06661   0.07585
 Alpha virt. eigenvalues --    0.08198   0.08437   0.08788   0.08874   0.09318

 Mulliken charges:
               1
     1  C   -0.023040
     2  C   -0.010361
     3  C   -0.196028
     4  C   -0.180353
     5  C   -0.197222
     6  C   -0.158786
     7  C    0.109986
     8  C    0.038880
     9  C   -0.187876
    10  C   -0.206252
    11  C    0.037772
    12  C    0.077179
    13  C   -0.274334
    14  C   -0.312821
    15  C   -0.278392
    16  C   -0.282913
    17  C   -0.155379
    18  C   -0.146052
    19  C   -0.368533
    20  C   -0.371405
    21  C   -0.051272
    22  C   -0.057540
    23  C    0.102036
    24  C    0.119705
    25  C   -0.385728
    26  C   -0.375519
    27  C   -0.110751
    28  C   -0.125657
    29  C   -0.055629
    30  C   -0.113680
    31  C   -0.106275
    32  C   -0.116909
    33  C    0.082535
    34  C    0.104957
    35  C   -0.340689
    36  C   -0.375987
    37  C   -0.108484
    38  C   -0.133731
    39  C   -0.101433
    40  C   -0.084495
    41  H    0.084629
    42  H    0.061809
    43  H    0.090592
    44  H    0.065192
    45  H    0.063486
    46  H    0.116172
    47  H    0.062128
    48  H    0.112345
    49  H    0.126164
    50  H    0.080125
    51  H    0.108372
    52  H    0.082702
    53  H    0.077284
    54  H    0.108804
    55  H    0.103076
    56  H    0.095604
    57  H    0.096631
    58  H    0.111553
    59  H    0.073311
    60  H    0.072521
    61  H    0.107402
    62  H    0.109773
    63  H    0.093036
    64  H    0.083224
    65  H    0.086621
    66  H    0.050731
    67  H    0.122457
    68  H    0.087830
    69  H    0.104782
    70  H    0.122170
    71  H    0.121358
    72  H    0.100719
    73  H    0.075881
    74  H    0.072435
    75  H    0.126576
    76  H    0.115869
    77  H    0.113072
    78  H    0.134418
    79  H    0.125663
    80  H    0.099375
    81  H    0.058660
    82  H    0.085774
    83  H    0.065146
    84  H    0.094577
    85  H    0.078175
    86  H    0.085374
    87  H    0.131433
    88  H    0.116590
    89  H    0.096841
    90  H    0.123661
    91  H    0.115563
    92  H    0.110825
    93  H    0.077956
    94  H    0.082266
    95  H    0.056106
    96  H    0.095642
 Sum of Mulliken charges =  -0.00000

 Dipole moment (field-independent basis, Debye):
    X=             -0.3556    Y=             -0.1765    Z=              0.1661  Tot=              0.4303
 Quadrupole moment (field-independent basis, Debye-Ang):
   XX=           -231.7955   YY=           -233.7613   ZZ=           -254.9443
   XY=              3.0043   XZ=             -6.2042   YZ=             -2.0160

 Normal termination of Gaussian 16 at Tue Jul 30 19:32:58 2019.
