 Gaussian 16, Revision A.03,
 Gaussian 16:  ES64L-G16RevA.03 25-Dec-2016

 ---------------------------------
 # td=(NStates=1) B3LYP/6-31G(d,p)
 ---------------------------------

 --
 TD
 --
 Symbolic Z-matrix:
 Charge =  0 Multiplicity = 1

                         Standard orientation:
 ---------------------------------------------------------------------
 Center     Atomic      Atomic             Coordinates (Angstroms)
 Number     Number       Type             X           Y           Z
 ---------------------------------------------------------------------
      1          6           0       12.256796    0.570815   -0.606020
      2          6           0      -12.075806   -0.006653    0.847393
      3          6           0       13.465929   -0.367682   -0.512487
      4          6           0      -12.988216    1.137511    1.291769
      5          6           0       13.142096   -1.800249   -0.668071
      6          6           0      -13.368306    2.024015    0.035255
      7          6           0       11.057506   -0.015148    0.273203
      8          6           0      -10.893220    0.471669   -0.078544
      9          6           0       12.072319   -2.202600    0.423756
     10          6           0      -12.186180    2.667352   -0.489761
     11          6           0       10.961995   -1.314668    0.753723
     12          6           0      -11.110944    1.655095   -0.783152
     13          6           0       11.872881    0.688317   -2.038822
     14          6           0       12.668438    1.971559   -0.108739
     15          6           0      -12.957738   -0.967910    0.080971
     16          6           0      -11.420947   -0.768678    2.123139
     17          6           0        9.920134    0.924308    0.421892
     18          6           0       -9.943927   -0.542748   -0.310591
     19          6           0       10.074147   -1.793606    1.738108
     20          6           0      -10.068728    2.093950   -1.827191
     21          6           0        8.653393    0.619647    0.328965
     22          6           0       -8.629236   -0.327418   -0.220844
     23          6           0        7.438755    1.399143    0.431060
     24          6           0       -7.559822   -1.297904   -0.370171
     25          6           0        7.559760    2.927871    0.815497
     26          6           0       -7.838529   -2.734350   -0.628609
     27          6           0        6.250057    0.761009    0.184618
     28          6           0       -6.254001   -0.867913   -0.261702
     29          6           0        4.868227    1.441252    0.218292
     30          6           0       -4.994700   -1.790056   -0.400824
     31          6           0        3.716719    0.756287    0.217149
     32          6           0       -3.833220   -1.224211   -0.215282
     33          6           0        2.416961    1.266906    0.217548
     34          6           0       -2.583834   -1.864625   -0.384285
     35          6           0        2.077154    2.802832    0.382313
     36          6           0       -2.542888   -3.381363   -0.745592
     37          6           0        1.261083    0.465023    0.171350
     38          6           0       -1.389782   -1.116309   -0.150466
     39          6           0        1.112788   -0.971798   -0.024369
     40          6           0       -0.046871   -1.675338   -0.136631
     41          1           0       13.990222   -0.137697    0.464245
     42          1           0       14.122828   -0.135981   -1.368637
     43          1           0      -12.494305    1.717072    1.998660
     44          1           0      -14.029027    0.777492    1.882356
     45          1           0       14.167204   -2.361006   -0.577277
     46          1           0       12.885269   -2.055321   -1.711001
     47          1           0      -14.283703    2.733252    0.315030
     48          1           0      -13.783211    1.406685   -0.767315
     49          1           0       12.652286   -2.336004    1.316561
     50          1           0       11.518968   -3.161061    0.304249
     51          1           0      -11.918821    3.495392    0.043728
     52          1           0      -12.480269    3.168160   -1.408387
     53          1           0       11.776483   -0.251700   -2.559224
     54          1           0       12.786631    1.114239   -2.658156
     55          1           0       11.031374    1.314792   -2.286902
     56          1           0       12.843825    1.948485    0.841555
     57          1           0       11.825609    2.811404   -0.399048
     58          1           0       13.491581    2.262334   -0.689737
     59          1           0      -13.582067   -0.514839   -0.621352
     60          1           0      -13.616841   -1.275438    0.858600
     61          1           0      -12.424172   -1.832830   -0.394625
     62          1           0      -10.667127   -0.087870    2.639341
     63          1           0      -10.877342   -1.632433    1.846607
     64          1           0      -12.154751   -0.889670    2.675860
     65          1           0       10.299687    1.921948    0.661472
     66          1           0      -10.458411   -1.619574   -0.170721
     67          1           0        9.452073   -1.001261    2.253547
     68          1           0       10.542530   -2.082787    2.695855
     69          1           0        9.499837   -2.633865    1.342108
     70          1           0       -9.203562    1.439647   -1.775201
     71          1           0       -9.712577    3.178238   -1.368772
     72          1           0      -10.741760    2.166433   -2.674473
     73          1           0        8.278127   -0.416468    0.000429
     74          1           0       -8.466611    0.682997    0.142817
     75          1           0        7.935513    3.031489    1.884693
     76          1           0        6.588295    3.373355    0.435259
     77          1           0        8.261281    3.430820    0.159303
     78          1           0       -8.491832   -2.939796   -1.468700
     79          1           0       -8.386726   -3.117365    0.127666
     80          1           0       -6.833226   -3.431479   -0.638564
     81          1           0        6.138643   -0.258238   -0.145757
     82          1           0       -5.887013    0.179787   -0.395503
     83          1           0        4.727072    2.408650    0.328491
     84          1           0       -5.005945   -2.752150   -0.437363
     85          1           0        3.699549   -0.331327    0.238289
     86          1           0       -3.720896   -0.201839    0.032419
     87          1           0        2.462738    3.237285    1.276421
     88          1           0        1.056498    3.187478    0.226077
     89          1           0        2.714017    3.279019   -0.380612
     90          1           0       -3.251597   -3.665128   -1.555862
     91          1           0       -2.638140   -3.846831    0.263562
     92          1           0       -1.629363   -3.764666   -1.057418
     93          1           0        0.411520    1.097372    0.439138
     94          1           0       -1.615672   -0.034022    0.117323
     95          1           0        2.145559   -1.542964   -0.069225
     96          1           0        0.088295   -2.732227   -0.194919
 ---------------------------------------------------------------------

 SCF Done:  E(RB3LYP) =  -1557.63129852     A.U. after   15 cycles

 Excitation energies and oscillator strengths:

 Excited State   1:      Singlet-A      2.3066 eV  537.52 nm  f=2.9216  <S**2>=0.000
     148 ->149         0.70395
 This state for optimization and/or second-order correction.
 Total Energy, E(TD-HF/TD-DFT) =  -1557.54653215
 Copying the excited state density for this state as the 1-particle RhoCI density.

 The electronic state is 1-A.
 Alpha  occ. eigenvalues --  -10.20133 -10.20028 -10.20025 -10.19969 -10.19812
 Alpha  occ. eigenvalues --  -10.19653 -10.19598 -10.19544 -10.19403 -10.19384
 Alpha  occ. eigenvalues --  -10.19198 -10.19015 -10.18971 -10.18952 -10.18708
 Alpha  occ. eigenvalues --  -10.18611 -10.18542 -10.18399 -10.18359 -10.18319
 Alpha  occ. eigenvalues --  -10.18293 -10.18250 -10.18231 -10.18213 -10.18149
 Alpha  occ. eigenvalues --  -10.18100 -10.17913 -10.17842 -10.17809 -10.17764
 Alpha  occ. eigenvalues --  -10.17734 -10.17494 -10.17492 -10.17378 -10.17254
 Alpha  occ. eigenvalues --  -10.17086 -10.16911 -10.16803 -10.15979 -10.15468
 Alpha  occ. eigenvalues --   -0.85125  -0.85104  -0.83199  -0.82677  -0.81647
 Alpha  occ. eigenvalues --   -0.81080  -0.80114  -0.78971  -0.78644  -0.77451
 Alpha  occ. eigenvalues --   -0.76755  -0.74961  -0.73787  -0.72551  -0.72233
 Alpha  occ. eigenvalues --   -0.69395  -0.68990  -0.68658  -0.68550  -0.68268
 Alpha  occ. eigenvalues --   -0.67993  -0.67562  -0.67215  -0.66621  -0.65992
 Alpha  occ. eigenvalues --   -0.62695  -0.61295  -0.59924  -0.59239  -0.57287
 Alpha  occ. eigenvalues --   -0.56832  -0.55370  -0.55141  -0.54974  -0.53579
 Alpha  occ. eigenvalues --   -0.52492  -0.51604  -0.50052  -0.49657  -0.49241
 Alpha  occ. eigenvalues --   -0.48124  -0.47583  -0.47081  -0.46774  -0.46411
 Alpha  occ. eigenvalues --   -0.45803  -0.45445  -0.44906  -0.44652  -0.43701
 Alpha  occ. eigenvalues --   -0.43338  -0.43281  -0.42859  -0.42836  -0.42429
 Alpha  occ. eigenvalues --   -0.42248  -0.41708  -0.41628  -0.41404  -0.41223
 Alpha  occ. eigenvalues --   -0.41166  -0.40730  -0.40676  -0.40454  -0.39824
 Alpha  occ. eigenvalues --   -0.39435  -0.38950  -0.38668  -0.38599  -0.38337
 Alpha  occ. eigenvalues --   -0.38256  -0.37210  -0.37009  -0.36705  -0.36621
 Alpha  occ. eigenvalues --   -0.36379  -0.35912  -0.35814  -0.35430  -0.35351
 Alpha  occ. eigenvalues --   -0.34864  -0.34749  -0.34574  -0.34365  -0.33776
 Alpha  occ. eigenvalues --   -0.33680  -0.33293  -0.33068  -0.32904  -0.32701
 Alpha  occ. eigenvalues --   -0.32246  -0.31799  -0.31709  -0.31306  -0.31299
 Alpha  occ. eigenvalues --   -0.30813  -0.30577  -0.30024  -0.29159  -0.28749
 Alpha  occ. eigenvalues --   -0.28008  -0.27335  -0.25620  -0.24146  -0.22374
 Alpha  occ. eigenvalues --   -0.20388  -0.18752  -0.16474
 Alpha virt. eigenvalues --   -0.07562  -0.04521  -0.01952   0.00508   0.03075
 Alpha virt. eigenvalues --    0.04052   0.06733   0.07473   0.07717   0.07864
 Alpha virt. eigenvalues --    0.08039   0.08499   0.08844   0.09426   0.09660

 Mulliken charges:
               1
     1  C    0.006594
     2  C   -0.038073
     3  C   -0.165920
     4  C   -0.170779
     5  C   -0.192444
     6  C   -0.189851
     7  C    0.038784
     8  C    0.077680
     9  C   -0.216052
    10  C   -0.193219
    11  C    0.090395
    12  C    0.021095
    13  C   -0.289169
    14  C   -0.287727
    15  C   -0.280748
    16  C   -0.293745
    17  C   -0.149121
    18  C   -0.122650
    19  C   -0.372605
    20  C   -0.333393
    21  C   -0.068276
    22  C   -0.114836
    23  C    0.114469
    24  C    0.119857
    25  C   -0.369970
    26  C   -0.373111
    27  C   -0.143204
    28  C   -0.148431
    29  C   -0.079570
    30  C   -0.069948
    31  C   -0.085974
    32  C   -0.080054
    33  C    0.092600
    34  C    0.101272
    35  C   -0.389483
    36  C   -0.380948
    37  C   -0.118504
    38  C   -0.128624
    39  C   -0.092737
    40  C   -0.089817
    41  H    0.082279
    42  H    0.084346
    43  H    0.100853
    44  H    0.051386
    45  H    0.079249
    46  H    0.100619
    47  H    0.063261
    48  H    0.102820
    49  H    0.109762
    50  H    0.084489
    51  H    0.118195
    52  H    0.091814
    53  H    0.102005
    54  H    0.066975
    55  H    0.108892
    56  H    0.111471
    57  H    0.071605
    58  H    0.106851
    59  H    0.107338
    60  H    0.096940
    61  H    0.087506
    62  H    0.089167
    63  H    0.102226
    64  H    0.105143
    65  H    0.078069
    66  H    0.070905
    67  H    0.118622
    68  H    0.107690
    69  H    0.111958
    70  H    0.121246
    71  H    0.077862
    72  H    0.118946
    73  H    0.066526
    74  H    0.099597
    75  H    0.123340
    76  H    0.108870
    77  H    0.121967
    78  H    0.124443
    79  H    0.131515
    80  H    0.090490
    81  H    0.086793
    82  H    0.085987
    83  H    0.063029
    84  H    0.068525
    85  H    0.068838
    86  H    0.068645
    87  H    0.124255
    88  H    0.114354
    89  H    0.112959
    90  H    0.115861
    91  H    0.126313
    92  H    0.119376
    93  H    0.076523
    94  H    0.079787
    95  H    0.073562
    96  H    0.084190
 Sum of Mulliken charges =  -0.00000

 Dipole moment (field-independent basis, Debye):
    X=              0.6469    Y=             -0.1253    Z=              0.4781  Tot=              0.8141
 Quadrupole moment (field-independent basis, Debye-Ang):
   XX=           -214.2203   YY=           -233.0099   ZZ=           -254.0773
   XY=             -2.3874   XZ=              2.3275   YZ=              2.5133

 Normal termination of Gaussian 16 at Tue Jul 30 03:12:06 2019.
