 Gaussian 16, Revision A.03,
 Gaussian 16:  ES64L-G16RevA.03 25-Dec-2016

 ---------------------------------
 # td=(NStates=1) B3LYP/6-31G(d,p)
 ---------------------------------

 --
 TD
 --
 Symbolic Z-matrix:
 Charge =  0 Multiplicity = 1

                         Standard orientation:
 ---------------------------------------------------------------------
 Center     Atomic      Atomic             Coordinates (Angstroms)
 Number     Number       Type             X           Y           Z
 ---------------------------------------------------------------------
      1          6           0      -12.127170   -0.663666   -0.630075
      2          6           0       12.023319   -0.215524    0.871546
      3          6           0      -13.478568    0.078254   -0.536719
      4          6           0       12.848147   -1.417737    1.284772
      5          6           0      -13.320413    1.553280   -0.317403
      6          6           0       13.208184   -2.309067    0.087927
      7          6           0      -10.979436   -0.059330    0.252248
      8          6           0       10.944883   -0.504328   -0.176652
      9          6           0      -12.419839    1.886407    0.874559
     10          6           0       11.952448   -2.689977   -0.595484
     11          6           0      -11.153042    1.111412    0.881941
     12          6           0       10.901446   -1.670521   -0.855550
     13          6           0      -11.704983   -0.448109   -2.086039
     14          6           0      -12.380847   -2.172547   -0.357993
     15          6           0       13.084673    1.014779    0.377287
     16          6           0       11.495748    0.372761    2.248420
     17          6           0       -9.766525   -0.872672    0.389421
     18          6           0        9.770862    0.471921   -0.272193
     19          6           0      -10.116266    1.729566    1.897666
     20          6           0        9.875177   -1.925057   -1.856412
     21          6           0       -8.474228   -0.499764    0.179268
     22          6           0        8.550840    0.379222   -0.308312
     23          6           0       -7.346233   -1.323311    0.303413
     24          6           0        7.539155    1.454875   -0.402562
     25          6           0       -7.440179   -2.789252    0.666697
     26          6           0        8.030443    2.829521   -0.571304
     27          6           0       -6.069684   -0.757816    0.003712
     28          6           0        6.137229    1.074173   -0.384613
     29          6           0       -4.854558   -1.312605    0.212075
     30          6           0        4.927960    1.846617   -0.416179
     31          6           0       -3.711850   -0.673965   -0.083306
     32          6           0        3.689415    1.368652   -0.244027
     33          6           0       -2.275271   -1.139702    0.177165
     34          6           0        2.527053    2.119464   -0.320760
     35          6           0       -2.076181   -2.606260    0.703067
     36          6           0        2.563508    3.547200   -0.736351
     37          6           0       -1.164679   -0.366367    0.083483
     38          6           0        1.439757    1.336602   -0.127136
     39          6           0       -1.098951    1.148842   -0.134735
     40          6           0        0.034589    1.859100   -0.351735
     41          1           0      -14.045499   -0.228384    0.271890
     42          1           0      -14.241539   -0.090778   -1.417678
     43          1           0       12.301235   -2.025988    2.023269
     44          1           0       13.603570   -1.109201    1.857228
     45          1           0      -14.393679    2.071818   -0.243982
     46          1           0      -13.211840    1.949972   -1.351611
     47          1           0       13.880450   -3.135639    0.456964
     48          1           0       13.793756   -1.685059   -0.459721
     49          1           0      -12.756576    1.800641    1.898416
     50          1           0      -11.971633    3.004222    0.875181
     51          1           0       11.622967   -3.661721    0.149412
     52          1           0       12.210414   -3.061631   -1.587998
     53          1           0      -11.603474    0.545647   -2.630450
     54          1           0      -12.359912   -1.043622   -2.665559
     55          1           0      -10.821653   -0.993800   -2.387199
     56          1           0      -12.437066   -2.324923    0.848304
     57          1           0      -11.598654   -2.912591   -0.648422
     58          1           0      -13.353799   -2.510619   -0.810477
     59          1           0       13.420233    0.550935   -0.477847
     60          1           0       13.661008    0.937415    1.201359
     61          1           0       12.528707    1.967579    0.270494
     62          1           0       10.780504   -0.511910    2.727148
     63          1           0       10.975269    1.210677    2.278944
     64          1           0       12.214122    0.477780    2.913378
     65          1           0       -9.861064   -1.917910    0.617998
     66          1           0       10.311804    1.535908   -0.257097
     67          1           0       -9.604137    0.803810    2.278808
     68          1           0      -10.453909    2.391657    2.725760
     69          1           0       -9.077778    2.400444    1.610358
     70          1           0        9.265018   -1.239260   -2.413041
     71          1           0        9.240550   -2.842405   -1.505659
     72          1           0       10.432412   -2.355202   -2.665463
     73          1           0       -8.545902    0.431400   -0.169513
     74          1           0        8.278945   -0.640965   -0.217464
     75          1           0       -7.862043   -2.949362    1.545616
     76          1           0       -6.603029   -3.203816    0.665490
     77          1           0       -7.730405   -3.477945   -0.126492
     78          1           0        8.929250    2.781505   -1.311467
     79          1           0        8.674666    3.038115    0.387909
     80          1           0        7.200035    3.476211   -0.758109
     81          1           0       -6.057377    0.256547   -0.144494
     82          1           0        6.045111    0.010548   -0.329385
     83          1           0       -4.703416   -2.329088    0.582698
     84          1           0        5.143109    2.836615   -1.016234
     85          1           0       -3.738019    0.370342   -0.551814
     86          1           0        3.728485    0.224282    0.327378
     87          1           0       -2.494741   -2.885479    1.641580
     88          1           0       -1.006028   -2.812314    0.819168
     89          1           0       -2.478603   -3.193337   -0.226364
     90          1           0        2.989052    3.620912   -1.729389
     91          1           0        3.404485    4.217617   -0.182719
     92          1           0        1.646496    3.913149   -0.763258
     93          1           0       -0.220839   -0.964560    0.316189
     94          1           0        1.597076    0.242953    0.213528
     95          1           0       -1.992598    1.643946   -0.221697
     96          1           0       -0.169140    2.804446   -0.608621
 ---------------------------------------------------------------------

 SCF Done:  E(RB3LYP) =  -1557.51077899     A.U. after   15 cycles

 Excitation energies and oscillator strengths:

 Excited State   1:      Singlet-A      2.3917 eV  518.40 nm  f=2.5618  <S**2>=0.000
     148 ->149         0.70618
 This state for optimization and/or second-order correction.
 Total Energy, E(TD-HF/TD-DFT) =  -1557.42288678
 Copying the excited state density for this state as the 1-particle RhoCI density.

 The electronic state is 1-A.
 Alpha  occ. eigenvalues --  -10.20726 -10.20467 -10.20265 -10.20177 -10.20015
 Alpha  occ. eigenvalues --  -10.19903 -10.19506 -10.19486 -10.19468 -10.19453
 Alpha  occ. eigenvalues --  -10.19437 -10.19418 -10.19375 -10.19308 -10.19289
 Alpha  occ. eigenvalues --  -10.18952 -10.18925 -10.18868 -10.18845 -10.18842
 Alpha  occ. eigenvalues --  -10.18637 -10.18590 -10.18564 -10.18548 -10.18396
 Alpha  occ. eigenvalues --  -10.18301 -10.18121 -10.17885 -10.17619 -10.17600
 Alpha  occ. eigenvalues --  -10.17582 -10.17552 -10.17165 -10.16901 -10.16473
 Alpha  occ. eigenvalues --  -10.16392 -10.16333 -10.16188 -10.15835 -10.15662
 Alpha  occ. eigenvalues --   -0.85148  -0.85055  -0.84100  -0.83408  -0.82088
 Alpha  occ. eigenvalues --   -0.81022  -0.79149  -0.78786  -0.78252  -0.77732
 Alpha  occ. eigenvalues --   -0.76888  -0.75856  -0.75023  -0.73285  -0.72993
 Alpha  occ. eigenvalues --   -0.70217  -0.69596  -0.68753  -0.68159  -0.68119
 Alpha  occ. eigenvalues --   -0.67670  -0.67508  -0.67156  -0.66565  -0.66358
 Alpha  occ. eigenvalues --   -0.62433  -0.61727  -0.59988  -0.59168  -0.56894
 Alpha  occ. eigenvalues --   -0.56740  -0.56362  -0.55400  -0.54470  -0.53813
 Alpha  occ. eigenvalues --   -0.52369  -0.51427  -0.51139  -0.50115  -0.49131
 Alpha  occ. eigenvalues --   -0.48672  -0.47583  -0.47267  -0.46829  -0.46344
 Alpha  occ. eigenvalues --   -0.45661  -0.45534  -0.45155  -0.44873  -0.44515
 Alpha  occ. eigenvalues --   -0.43746  -0.43413  -0.42716  -0.42276  -0.42098
 Alpha  occ. eigenvalues --   -0.41867  -0.41624  -0.41457  -0.41160  -0.41022
 Alpha  occ. eigenvalues --   -0.40467  -0.40410  -0.40065  -0.39844  -0.39769
 Alpha  occ. eigenvalues --   -0.39455  -0.39084  -0.38892  -0.38825  -0.38294
 Alpha  occ. eigenvalues --   -0.38232  -0.37934  -0.37074  -0.36940  -0.36887
 Alpha  occ. eigenvalues --   -0.36241  -0.36100  -0.35834  -0.35491  -0.34834
 Alpha  occ. eigenvalues --   -0.34718  -0.34696  -0.34552  -0.34438  -0.33993
 Alpha  occ. eigenvalues --   -0.33443  -0.33059  -0.32972  -0.32855  -0.32575
 Alpha  occ. eigenvalues --   -0.32247  -0.32107  -0.31217  -0.31102  -0.30733
 Alpha  occ. eigenvalues --   -0.30654  -0.30367  -0.30023  -0.29058  -0.28786
 Alpha  occ. eigenvalues --   -0.27940  -0.27329  -0.26108  -0.23741  -0.22455
 Alpha  occ. eigenvalues --   -0.21295  -0.18429  -0.16742
 Alpha virt. eigenvalues --   -0.07340  -0.05187  -0.01027   0.01208   0.02487
 Alpha virt. eigenvalues --    0.04008   0.06445   0.06764   0.07316   0.07386
 Alpha virt. eigenvalues --    0.07896   0.08621   0.08844   0.09060   0.09291

 Mulliken charges:
               1
     1  C    0.014622
     2  C   -0.051019
     3  C   -0.172137
     4  C   -0.165732
     5  C   -0.195002
     6  C   -0.193882
     7  C    0.062973
     8  C    0.070001
     9  C   -0.212972
    10  C   -0.195501
    11  C    0.071901
    12  C    0.077279
    13  C   -0.301312
    14  C   -0.315262
    15  C   -0.304753
    16  C   -0.285698
    17  C   -0.161381
    18  C   -0.125874
    19  C   -0.365870
    20  C   -0.373279
    21  C   -0.051175
    22  C   -0.053010
    23  C    0.076037
    24  C    0.101255
    25  C   -0.351470
    26  C   -0.370314
    27  C   -0.112775
    28  C   -0.133077
    29  C   -0.049176
    30  C   -0.098156
    31  C   -0.122419
    32  C   -0.103550
    33  C    0.087063
    34  C    0.164099
    35  C   -0.367555
    36  C   -0.362791
    37  C   -0.127757
    38  C   -0.125064
    39  C   -0.094376
    40  C   -0.087759
    41  H    0.100369
    42  H    0.075676
    43  H    0.086296
    44  H    0.087717
    45  H    0.062602
    46  H    0.107597
    47  H    0.087478
    48  H    0.105598
    49  H    0.125483
    50  H    0.089511
    51  H    0.067684
    52  H    0.092344
    53  H    0.101409
    54  H    0.095959
    55  H    0.098097
    56  H    0.082640
    57  H    0.106203
    58  H    0.103182
    59  H    0.112859
    60  H    0.111257
    61  H    0.103325
    62  H    0.059638
    63  H    0.104461
    64  H    0.105306
    65  H    0.076838
    66  H    0.034530
    67  H    0.121509
    68  H    0.106715
    69  H    0.074613
    70  H    0.135092
    71  H    0.099254
    72  H    0.102557
    73  H    0.073481
    74  H    0.077816
    75  H    0.127184
    76  H    0.108503
    77  H    0.111032
    78  H    0.115796
    79  H    0.113255
    80  H    0.109903
    81  H    0.077424
    82  H    0.070556
    83  H    0.084674
    84  H    0.066330
    85  H    0.070144
    86  H    0.061745
    87  H    0.128663
    88  H    0.104609
    89  H    0.106529
    90  H    0.132335
    91  H    0.106119
    92  H    0.116490
    93  H    0.072601
    94  H    0.090950
    95  H    0.079619
    96  H    0.075308
 Sum of Mulliken charges =  -0.00000

 Dipole moment (field-independent basis, Debye):
    X=             -0.5387    Y=             -0.4893    Z=             -0.0526  Tot=              0.7296
 Quadrupole moment (field-independent basis, Debye-Ang):
   XX=           -219.9595   YY=           -234.6654   ZZ=           -250.9305
   XY=              1.6025   XZ=             -0.5052   YZ=             -3.7637

 Normal termination of Gaussian 16 at Thu Aug  1 14:57:11 2019.
