 Gaussian 16, Revision A.03,
 Gaussian 16:  ES64L-G16RevA.03 25-Dec-2016

 ---------------------------------
 # td=(NStates=1) B3LYP/6-31G(d,p)
 ---------------------------------

 --
 TD
 --
 Symbolic Z-matrix:
 Charge =  0 Multiplicity = 1

                         Standard orientation:
 ---------------------------------------------------------------------
 Center     Atomic      Atomic             Coordinates (Angstroms)
 Number     Number       Type             X           Y           Z
 ---------------------------------------------------------------------
      1          6           0      -12.275591   -0.815273   -0.488266
      2          6           0       12.237556   -0.135879    0.890161
      3          6           0      -13.571479    0.115019   -0.519732
      4          6           0       13.035119   -1.351270    1.241076
      5          6           0      -13.329056    1.611161   -0.581739
      6          6           0       13.320405   -2.269959    0.035775
      7          6           0      -11.115199   -0.033338    0.369266
      8          6           0       11.108907   -0.479769    0.013434
      9          6           0      -12.389759    2.195723    0.452392
     10          6           0       12.045373   -2.762967   -0.540170
     11          6           0      -11.233642    1.266766    0.848607
     12          6           0       10.929553   -1.677383   -0.749747
     13          6           0      -11.807565   -1.098614   -1.911561
     14          6           0      -12.576868   -2.088002    0.291547
     15          6           0       13.159777    0.919871    0.282723
     16          6           0       11.609198    0.488596    2.290594
     17          6           0       -9.906169   -0.828598    0.493868
     18          6           0        9.994031    0.604984   -0.077219
     19          6           0      -10.088040    2.009128    1.646609
     20          6           0        9.764587   -1.998472   -1.689553
     21          6           0       -8.600095   -0.527829    0.296264
     22          6           0        8.617152    0.361805   -0.289481
     23          6           0       -7.356963   -1.340825    0.458129
     24          6           0        7.583239    1.348058   -0.374565
     25          6           0       -7.573925   -2.687036    0.777950
     26          6           0        7.960796    2.914109   -0.204658
     27          6           0       -6.134389   -0.692735    0.230745
     28          6           0        6.286390    0.850443   -0.484648
     29          6           0       -4.895124   -1.297459    0.199772
     30          6           0        5.118678    1.772962   -0.421487
     31          6           0       -3.773319   -0.509423    0.009148
     32          6           0        3.791958    1.240380   -0.314479
     33          6           0       -2.402109   -1.084275    0.005789
     34          6           0        2.548951    1.932596   -0.488870
     35          6           0       -2.169771   -2.561753    0.324504
     36          6           0        2.784104    3.392896   -0.816107
     37          6           0       -1.243587   -0.338672   -0.089750
     38          6           0        1.384160    1.239113   -0.333933
     39          6           0       -1.166365    1.022617   -0.376655
     40          6           0        0.129315    1.753402   -0.484624
     41          1           0      -14.089032   -0.007256    0.426603
     42          1           0      -14.241925   -0.362428   -1.335212
     43          1           0       12.532220   -2.034854    1.895176
     44          1           0       14.005359   -1.070464    1.605722
     45          1           0      -14.316422    2.166171   -0.700242
     46          1           0      -12.811393    1.726976   -1.455092
     47          1           0       13.958212   -2.987457    0.313655
     48          1           0       13.786955   -1.480511   -0.647241
     49          1           0      -12.694290    2.514241    1.579460
     50          1           0      -11.805021    3.219402    0.139151
     51          1           0       11.607088   -3.504178    0.104812
     52          1           0       11.981120   -3.558212   -1.552855
     53          1           0      -11.713194   -0.031153   -2.420787
     54          1           0      -12.591982   -1.769839   -2.478479
     55          1           0      -10.858684   -1.549721   -2.138762
     56          1           0      -12.470867   -1.846063    1.565926
     57          1           0      -11.807059   -2.886390    0.085919
     58          1           0      -13.731188   -2.591417    0.053000
     59          1           0       13.450051    0.678588   -0.802327
     60          1           0       13.788757    1.249533    1.007549
     61          1           0       12.387021    1.808591    0.164680
     62          1           0       10.758382   -0.191850    2.564462
     63          1           0       11.124360    1.593792    2.421360
     64          1           0       12.491380    0.312695    3.074348
     65          1           0      -10.238198   -1.747625    0.906709
     66          1           0       10.405371    1.655486   -0.183289
     67          1           0       -9.388334    1.259944    2.089779
     68          1           0      -10.565793    2.705109    2.362777
     69          1           0       -9.572526    2.697876    0.951673
     70          1           0        9.437626   -1.106583   -2.265853
     71          1           0        8.829631   -2.482612   -1.225955
     72          1           0       10.514665   -2.671560   -2.440473
     73          1           0       -8.268968    0.390335   -0.009100
     74          1           0        8.186478   -0.580137   -0.018747
     75          1           0       -8.160335   -2.594593    1.662895
     76          1           0       -6.619344   -3.312344    0.695835
     77          1           0       -8.105868   -3.269942    0.083507
     78          1           0        8.261965    3.316108   -1.305233
     79          1           0        8.997575    2.829303    0.404468
     80          1           0        7.177792    3.647659   -0.010240
     81          1           0       -6.154932    0.246363    0.072571
     82          1           0        6.044913   -0.197148   -0.462146
     83          1           0       -4.603794   -2.360470    0.242236
     84          1           0        5.397782    2.852153   -0.548523
     85          1           0       -3.806429    0.575208   -0.497134
     86          1           0        3.662546    0.034733   -0.036606
     87          1           0       -2.497926   -2.882911    1.366292
     88          1           0       -1.159109   -2.871293    0.084991
     89          1           0       -2.806316   -3.181345   -0.362426
     90          1           0        2.987963    3.290567   -1.898000
     91          1           0        3.464612    4.065422   -0.140859
     92          1           0        1.846949    3.818265   -0.569636
     93          1           0       -0.198820   -0.949472   -0.357490
     94          1           0        1.549681    0.130375   -0.195997
     95          1           0       -2.100160    1.665911   -0.641606
     96          1           0       -0.059934    2.868445   -0.751897
 ---------------------------------------------------------------------

 SCF Done:  E(RB3LYP) =  -1557.52884924     A.U. after   16 cycles

 Excitation energies and oscillator strengths:

 Excited State   1:      Singlet-A      1.9151 eV  647.40 nm  f=3.2060  <S**2>=0.000
     148 ->149         0.71272
     148 <-149        -0.14787
 This state for optimization and/or second-order correction.
 Total Energy, E(TD-HF/TD-DFT) =  -1557.45846983
 Copying the excited state density for this state as the 1-particle RhoCI density.

 The electronic state is 1-A.
 Alpha  occ. eigenvalues --  -10.21206 -10.21172 -10.21082 -10.20947 -10.20516
 Alpha  occ. eigenvalues --  -10.20319 -10.20250 -10.20218 -10.20163 -10.20144
 Alpha  occ. eigenvalues --  -10.20056 -10.19982 -10.19953 -10.19944 -10.19878
 Alpha  occ. eigenvalues --  -10.19835 -10.19789 -10.19698 -10.19676 -10.19665
 Alpha  occ. eigenvalues --  -10.19508 -10.19278 -10.19107 -10.19000 -10.18849
 Alpha  occ. eigenvalues --  -10.18845 -10.18769 -10.18765 -10.18689 -10.18668
 Alpha  occ. eigenvalues --  -10.18634 -10.18556 -10.18375 -10.18191 -10.17996
 Alpha  occ. eigenvalues --  -10.17973 -10.17511 -10.17420 -10.17274 -10.17084
 Alpha  occ. eigenvalues --   -0.85037  -0.84285  -0.83446  -0.83057  -0.81587
 Alpha  occ. eigenvalues --   -0.81048  -0.78450  -0.77764  -0.77702  -0.77098
 Alpha  occ. eigenvalues --   -0.76528  -0.75447  -0.73429  -0.72494  -0.70751
 Alpha  occ. eigenvalues --   -0.69799  -0.69166  -0.67640  -0.67485  -0.67322
 Alpha  occ. eigenvalues --   -0.67124  -0.66869  -0.65944  -0.65751  -0.65010
 Alpha  occ. eigenvalues --   -0.62638  -0.61601  -0.59683  -0.58632  -0.56798
 Alpha  occ. eigenvalues --   -0.55859  -0.55725  -0.54616  -0.53921  -0.53156
 Alpha  occ. eigenvalues --   -0.51995  -0.51482  -0.49959  -0.49710  -0.48748
 Alpha  occ. eigenvalues --   -0.47914  -0.47300  -0.46961  -0.46574  -0.45972
 Alpha  occ. eigenvalues --   -0.45585  -0.45282  -0.44774  -0.44126  -0.43950
 Alpha  occ. eigenvalues --   -0.43516  -0.43103  -0.42921  -0.42156  -0.42033
 Alpha  occ. eigenvalues --   -0.41485  -0.41370  -0.41148  -0.40856  -0.40839
 Alpha  occ. eigenvalues --   -0.40511  -0.40209  -0.39845  -0.39545  -0.39426
 Alpha  occ. eigenvalues --   -0.39313  -0.38451  -0.38298  -0.38017  -0.37821
 Alpha  occ. eigenvalues --   -0.37704  -0.37339  -0.36886  -0.36567  -0.36473
 Alpha  occ. eigenvalues --   -0.35966  -0.35725  -0.35699  -0.35529  -0.35059
 Alpha  occ. eigenvalues --   -0.34796  -0.34761  -0.34130  -0.33767  -0.33479
 Alpha  occ. eigenvalues --   -0.33026  -0.32934  -0.32923  -0.32875  -0.32589
 Alpha  occ. eigenvalues --   -0.32581  -0.31761  -0.31448  -0.31359  -0.30837
 Alpha  occ. eigenvalues --   -0.30680  -0.30371  -0.29354  -0.28863  -0.28297
 Alpha  occ. eigenvalues --   -0.28124  -0.27179  -0.26112  -0.23293  -0.22170
 Alpha  occ. eigenvalues --   -0.20627  -0.18727  -0.15460
 Alpha virt. eigenvalues --   -0.08819  -0.05297  -0.02367   0.00503   0.02005
 Alpha virt. eigenvalues --    0.03717   0.04977   0.06169   0.06194   0.06459
 Alpha virt. eigenvalues --    0.06665   0.07110   0.08015   0.08136   0.08341

 Mulliken charges:
               1
     1  C    0.033914
     2  C   -0.007910
     3  C   -0.179872
     4  C   -0.177391
     5  C   -0.188631
     6  C   -0.183715
     7  C    0.019684
     8  C    0.064184
     9  C   -0.205979
    10  C   -0.196645
    11  C    0.049338
    12  C    0.047040
    13  C   -0.293119
    14  C   -0.283027
    15  C   -0.283535
    16  C   -0.306787
    17  C   -0.132950
    18  C   -0.153483
    19  C   -0.357252
    20  C   -0.341881
    21  C   -0.079641
    22  C   -0.102884
    23  C    0.113080
    24  C    0.112193
    25  C   -0.379477
    26  C   -0.359119
    27  C   -0.093592
    28  C   -0.125996
    29  C   -0.069976
    30  C   -0.093209
    31  C   -0.107162
    32  C   -0.123714
    33  C    0.088282
    34  C    0.115085
    35  C   -0.372728
    36  C   -0.363465
    37  C   -0.110842
    38  C   -0.090044
    39  C   -0.097841
    40  C   -0.125192
    41  H    0.101765
    42  H    0.083450
    43  H    0.095741
    44  H    0.087118
    45  H    0.092961
    46  H    0.120247
    47  H    0.101096
    48  H    0.088623
    49  H    0.083780
    50  H    0.086756
    51  H    0.115873
    52  H    0.043924
    53  H    0.086028
    54  H    0.084136
    55  H    0.117600
    56  H    0.071638
    57  H    0.108146
    58  H    0.067465
    59  H    0.108016
    60  H    0.115568
    61  H    0.078253
    62  H    0.112830
    63  H    0.089271
    64  H    0.079684
    65  H    0.078859
    66  H    0.085284
    67  H    0.122180
    68  H    0.099949
    69  H    0.115807
    70  H    0.136239
    71  H    0.115005
    72  H    0.074995
    73  H    0.067996
    74  H    0.091048
    75  H    0.131688
    76  H    0.092684
    77  H    0.130358
    78  H    0.098214
    79  H    0.111853
    80  H    0.122929
    81  H    0.060733
    82  H    0.081836
    83  H    0.088150
    84  H    0.081801
    85  H    0.075225
    86  H    0.051417
    87  H    0.121111
    88  H    0.111361
    89  H    0.103759
    90  H    0.139435
    91  H    0.111081
    92  H    0.111440
    93  H    0.071222
    94  H    0.081013
    95  H    0.080052
    96  H    0.079564
 Sum of Mulliken charges =  -0.00000

 Dipole moment (field-independent basis, Debye):
    X=             -0.4964    Y=             -0.0854    Z=             -0.3143  Tot=              0.5937
 Quadrupole moment (field-independent basis, Debye-Ang):
   XX=           -224.8110   YY=           -234.4826   ZZ=           -258.6323
   XY=             -0.5349   XZ=             10.3577   YZ=             -2.5102

 Normal termination of Gaussian 16 at Thu Aug  1 12:35:39 2019.
