 Gaussian 16, Revision A.03,
 Gaussian 16:  ES64L-G16RevA.03 25-Dec-2016

 ---------------------------------
 # td=(NStates=1) B3LYP/6-31G(d,p)
 ---------------------------------

 --
 TD
 --
 Symbolic Z-matrix:
 Charge =  0 Multiplicity = 1

                         Standard orientation:
 ---------------------------------------------------------------------
 Center     Atomic      Atomic             Coordinates (Angstroms)
 Number     Number       Type             X           Y           Z
 ---------------------------------------------------------------------
      1          6           0       12.067249   -0.525680    0.835078
      2          6           0      -12.086332   -0.005549   -0.810729
      3          6           0       13.428712    0.280025    0.727323
      4          6           0      -13.057129   -1.122562   -1.235726
      5          6           0       13.216600    1.785189    0.581148
      6          6           0      -13.476748   -1.986116   -0.004029
      7          6           0       11.031194    0.014158   -0.133139
      8          6           0      -11.008947   -0.467616    0.211861
      9          6           0       12.354408    2.145143   -0.665494
     10          6           0      -12.184220   -2.556647    0.595733
     11          6           0       11.198151    1.200359   -0.830420
     12          6           0      -11.028892   -1.612197    0.882659
     13          6           0       11.596051   -0.643111    2.271102
     14          6           0       12.550217   -1.934355    0.341081
     15          6           0      -12.829197    1.121056   -0.172478
     16          6           0      -11.505335    0.620038   -2.155389
     17          6           0        9.840135   -0.808997   -0.353408
     18          6           0       -9.997978    0.553596    0.311078
     19          6           0       10.158435    1.753167   -1.749099
     20          6           0       -9.966509   -2.084065    1.744600
     21          6           0        8.536173   -0.492104   -0.337864
     22          6           0       -8.620918    0.365687    0.232213
     23          6           0        7.420072   -1.375913   -0.473525
     24          6           0       -7.552222    1.399052    0.395942
     25          6           0        7.704139   -2.851322   -0.823111
     26          6           0       -7.900311    2.750753    0.604600
     27          6           0        6.145519   -0.822152   -0.440363
     28          6           0       -6.278528    0.879066    0.357112
     29          6           0        4.839157   -1.419786   -0.567497
     30          6           0       -5.068149    1.566223    0.371252
     31          6           0        3.698288   -0.728042   -0.331023
     32          6           0       -3.783818    1.044531    0.226781
     33          6           0        2.382200   -1.310439   -0.439584
     34          6           0       -2.520126    1.818941    0.330693
     35          6           0        2.119658   -2.856515   -0.614003
     36          6           0       -2.565107    3.370758    0.600779
     37          6           0        1.246962   -0.487121   -0.171708
     38          6           0       -1.307260    1.183286    0.122731
     39          6           0        1.234242    0.910477    0.149927
     40          6           0        0.104833    1.672727    0.249706
     41          1           0       13.998675   -0.019622   -0.089217
     42          1           0       14.102736    0.090972    1.686033
     43          1           0      -12.503084   -1.776413   -1.934015
     44          1           0      -13.923576   -0.612836   -1.816160
     45          1           0       14.209014    2.263309    0.639517
     46          1           0       12.673316    2.252330    1.404641
     47          1           0      -14.370971   -2.672670   -0.245810
     48          1           0      -13.969205   -1.488912    0.865412
     49          1           0       13.029310    2.011360   -1.555080
     50          1           0       11.982242    3.186278   -0.514210
     51          1           0      -11.846516   -3.427970    0.062416
     52          1           0      -12.454784   -3.177308    1.457391
     53          1           0       11.225092    0.318863    2.785567
     54          1           0       12.389233   -1.091341    2.822659
     55          1           0       10.596460   -1.324050    2.122863
     56          1           0       12.973786   -2.035433   -0.802766
     57          1           0       11.612085   -2.684933    0.308011
     58          1           0       13.166631   -2.352503    1.110073
     59          1           0      -13.652292    0.600974    0.653784
     60          1           0      -13.339874    1.581998   -0.864692
     61          1           0      -12.218456    1.901242    0.322688
     62          1           0      -10.968793   -0.066203   -2.738284
     63          1           0      -10.837083    1.519780   -1.866796
     64          1           0      -12.524483    0.787888   -2.850017
     65          1           0        9.862667   -1.813480   -0.529263
     66          1           0      -10.226322    1.586298    0.508091
     67          1           0        9.527049    1.010886   -2.130602
     68          1           0       10.538254    2.335703   -2.476842
     69          1           0        9.578953    2.468271   -1.054199
     70          1           0       -9.408049   -1.327058    2.183578
     71          1           0       -9.416686   -3.056848    1.287901
     72          1           0      -10.372485   -2.674700    2.686059
     73          1           0        8.280346    0.576862    0.295987
     74          1           0       -8.315426   -0.584860   -0.038695
     75          1           0        8.714063   -2.802538   -1.415575
     76          1           0        6.812676   -3.476992   -1.369721
     77          1           0        8.069083   -3.435419    0.031814
     78          1           0       -8.275365    2.845215    1.633506
     79          1           0       -8.624030    2.981987   -0.180289
     80          1           0       -6.837113    3.528348    0.451697
     81          1           0        6.019056    0.314499   -0.289024
     82          1           0       -6.289987   -0.307561    0.317253
     83          1           0        4.569175   -2.591684   -0.669520
     84          1           0       -5.164550    2.633800    0.525383
     85          1           0        3.959506    0.213746   -0.063850
     86          1           0       -3.574278   -0.105156   -0.111279
     87          1           0        2.566106   -3.202542   -1.640910
     88          1           0        1.083634   -2.925922   -0.446957
     89          1           0        2.982925   -2.998773    0.273349
     90          1           0       -2.863813    3.805118    1.518795
     91          1           0       -3.068311    3.976224   -0.188427
     92          1           0       -1.461511    3.963047    0.577167
     93          1           0        0.404947   -1.087122   -0.107392
     94          1           0       -1.373475    0.237037   -0.277831
     95          1           0        2.085889    1.462675    0.138352
     96          1           0        0.059586    2.602470    0.588586
 ---------------------------------------------------------------------

 SCF Done:  E(RB3LYP) =  -1557.57022273     A.U. after   16 cycles

 Excitation energies and oscillator strengths:

 Excited State   1:      Singlet-A      2.1839 eV  567.73 nm  f=2.9474  <S**2>=0.000
     148 ->149         0.70857
 This state for optimization and/or second-order correction.
 Total Energy, E(TD-HF/TD-DFT) =  -1557.48996753
 Copying the excited state density for this state as the 1-particle RhoCI density.

 The electronic state is 1-A.
 Alpha  occ. eigenvalues --  -10.21299 -10.21082 -10.20881 -10.20802 -10.20697
 Alpha  occ. eigenvalues --  -10.20584 -10.20208 -10.20003 -10.19955 -10.19827
 Alpha  occ. eigenvalues --  -10.19732 -10.19707 -10.19491 -10.19472 -10.19116
 Alpha  occ. eigenvalues --  -10.19079 -10.19035 -10.19032 -10.18930 -10.18871
 Alpha  occ. eigenvalues --  -10.18817 -10.18785 -10.18750 -10.18719 -10.18616
 Alpha  occ. eigenvalues --  -10.18596 -10.18586 -10.18531 -10.18352 -10.18306
 Alpha  occ. eigenvalues --  -10.18220 -10.18142 -10.18088 -10.17975 -10.17922
 Alpha  occ. eigenvalues --  -10.17848 -10.17568 -10.17468 -10.16811 -10.16231
 Alpha  occ. eigenvalues --   -0.85365  -0.84734  -0.83296  -0.83163  -0.81888
 Alpha  occ. eigenvalues --   -0.80869  -0.79133  -0.78761  -0.78608  -0.77416
 Alpha  occ. eigenvalues --   -0.76706  -0.75343  -0.74318  -0.72382  -0.72212
 Alpha  occ. eigenvalues --   -0.69323  -0.68510  -0.68029  -0.67854  -0.67748
 Alpha  occ. eigenvalues --   -0.67432  -0.67206  -0.66490  -0.66223  -0.66066
 Alpha  occ. eigenvalues --   -0.62680  -0.62030  -0.59801  -0.58995  -0.57749
 Alpha  occ. eigenvalues --   -0.56281  -0.55969  -0.55316  -0.53831  -0.53514
 Alpha  occ. eigenvalues --   -0.52552  -0.51291  -0.50553  -0.50055  -0.49417
 Alpha  occ. eigenvalues --   -0.47822  -0.47397  -0.47170  -0.46745  -0.45951
 Alpha  occ. eigenvalues --   -0.45571  -0.45023  -0.44914  -0.44534  -0.44140
 Alpha  occ. eigenvalues --   -0.43853  -0.43212  -0.43040  -0.42250  -0.41783
 Alpha  occ. eigenvalues --   -0.41682  -0.41517  -0.41343  -0.41122  -0.40925
 Alpha  occ. eigenvalues --   -0.40900  -0.40671  -0.40543  -0.39975  -0.39703
 Alpha  occ. eigenvalues --   -0.39222  -0.39142  -0.38937  -0.38591  -0.38016
 Alpha  occ. eigenvalues --   -0.37677  -0.37477  -0.37350  -0.36507  -0.36465
 Alpha  occ. eigenvalues --   -0.35829  -0.35342  -0.35111  -0.35050  -0.34744
 Alpha  occ. eigenvalues --   -0.34637  -0.34204  -0.34114  -0.33939  -0.33683
 Alpha  occ. eigenvalues --   -0.33556  -0.33329  -0.33095  -0.32708  -0.32649
 Alpha  occ. eigenvalues --   -0.32410  -0.31880  -0.31841  -0.31510  -0.31201
 Alpha  occ. eigenvalues --   -0.30891  -0.30218  -0.29931  -0.29061  -0.28474
 Alpha  occ. eigenvalues --   -0.27894  -0.27732  -0.25921  -0.23876  -0.22590
 Alpha  occ. eigenvalues --   -0.21119  -0.18848  -0.16464
 Alpha virt. eigenvalues --   -0.08137  -0.05353  -0.01716   0.00775   0.02397
 Alpha virt. eigenvalues --    0.03871   0.04947   0.05711   0.06343   0.07051
 Alpha virt. eigenvalues --    0.07266   0.07475   0.08234   0.08513   0.08736

 Mulliken charges:
               1
     1  C   -0.014989
     2  C   -0.016073
     3  C   -0.161927
     4  C   -0.168404
     5  C   -0.195083
     6  C   -0.192215
     7  C    0.097942
     8  C    0.089705
     9  C   -0.226031
    10  C   -0.240273
    11  C    0.047679
    12  C    0.119081
    13  C   -0.279458
    14  C   -0.288553
    15  C   -0.259609
    16  C   -0.287631
    17  C   -0.141493
    18  C   -0.170034
    19  C   -0.342492
    20  C   -0.372305
    21  C   -0.082898
    22  C   -0.092732
    23  C    0.123308
    24  C    0.133495
    25  C   -0.380238
    26  C   -0.369805
    27  C   -0.152480
    28  C   -0.101640
    29  C   -0.072308
    30  C   -0.091382
    31  C   -0.061038
    32  C   -0.120144
    33  C    0.037372
    34  C    0.126628
    35  C   -0.340995
    36  C   -0.384333
    37  C   -0.106837
    38  C   -0.125609
    39  C   -0.065835
    40  C   -0.073874
    41  H    0.103667
    42  H    0.064401
    43  H    0.097800
    44  H    0.073997
    45  H    0.082429
    46  H    0.092910
    47  H    0.081764
    48  H    0.101455
    49  H    0.105506
    50  H    0.101286
    51  H    0.105219
    52  H    0.088815
    53  H    0.100185
    54  H    0.106605
    55  H    0.083030
    56  H    0.088842
    57  H    0.065309
    58  H    0.105959
    59  H    0.057769
    60  H    0.107220
    61  H    0.096250
    62  H    0.112658
    63  H    0.094321
    64  H    0.068406
    65  H    0.066114
    66  H    0.079476
    67  H    0.125180
    68  H    0.108976
    69  H    0.103063
    70  H    0.133200
    71  H    0.098563
    72  H    0.082636
    73  H    0.054392
    74  H    0.079520
    75  H    0.111403
    76  H    0.105965
    77  H    0.130214
    78  H    0.137932
    79  H    0.127059
    80  H    0.067583
    81  H    0.076457
    82  H    0.066795
    83  H    0.057474
    84  H    0.078427
    85  H    0.073570
    86  H    0.071549
    87  H    0.124689
    88  H    0.122556
    89  H    0.115895
    90  H    0.131559
    91  H    0.122850
    92  H    0.073064
    93  H    0.069535
    94  H    0.070720
    95  H    0.085221
    96  H    0.066072
 Sum of Mulliken charges =  -0.00000

 Dipole moment (field-independent basis, Debye):
    X=              0.2256    Y=             -0.0279    Z=              0.1583  Tot=              0.2770
 Quadrupole moment (field-independent basis, Debye-Ang):
   XX=           -222.5225   YY=           -235.4803   ZZ=           -255.4856
   XY=              6.1214   XZ=              0.5697   YZ=              3.3066

 Normal termination of Gaussian 16 at Wed Jul 24 01:54:28 2019.
