 Gaussian 16, Revision A.03,
 Gaussian 16:  ES64L-G16RevA.03 25-Dec-2016

 ---------------------------------
 # td=(NStates=1) B3LYP/6-31G(d,p)
 ---------------------------------

 --
 TD
 --
 Symbolic Z-matrix:
 Charge =  0 Multiplicity = 1

                         Standard orientation:
 ---------------------------------------------------------------------
 Center     Atomic      Atomic             Coordinates (Angstroms)
 Number     Number       Type             X           Y           Z
 ---------------------------------------------------------------------
      1          6           0      -12.127729   -0.596795   -0.660319
      2          6           0       12.141623   -0.045025    0.974875
      3          6           0      -13.503491    0.169910   -0.632760
      4          6           0       12.989326   -1.306664    1.217399
      5          6           0      -13.195120    1.684141   -0.726831
      6          6           0       13.329965   -2.212788    0.051358
      7          6           0      -10.929603    0.071828    0.110583
      8          6           0       11.013308   -0.520385   -0.135592
      9          6           0      -12.323140    2.066484    0.395662
     10          6           0       12.000895   -2.722197   -0.589511
     11          6           0      -11.155660    1.182741    0.747458
     12          6           0       11.001471   -1.619354   -0.806080
     13          6           0      -11.672014   -0.576614   -2.136323
     14          6           0      -12.377079   -2.071872   -0.280477
     15          6           0       12.970443    1.030129    0.131336
     16          6           0       11.536931    0.599605    2.270387
     17          6           0       -9.835360   -0.818437    0.368322
     18          6           0        9.984666    0.591006   -0.339615
     19          6           0      -10.308431    1.782300    1.857371
     20          6           0        9.971689   -1.969059   -1.922532
     21          6           0       -8.582804   -0.499158    0.411201
     22          6           0        8.640613    0.420157   -0.245705
     23          6           0       -7.390829   -1.284125    0.582789
     24          6           0        7.604400    1.359660   -0.463904
     25          6           0       -7.460755   -2.807237    0.806843
     26          6           0        7.933901    2.873136   -0.768727
     27          6           0       -6.083774   -0.785365    0.370085
     28          6           0        6.327633    0.976800   -0.194480
     29          6           0       -4.879917   -1.340378    0.405268
     30          6           0        5.024498    1.709586   -0.431996
     31          6           0       -3.742414   -0.734546    0.196806
     32          6           0        3.745046    1.221495   -0.363694
     33          6           0       -2.329835   -1.324431    0.187733
     34          6           0        2.532716    1.987297   -0.277842
     35          6           0       -2.186958   -2.788892    0.428798
     36          6           0        2.439824    3.386032   -0.575510
     37          6           0       -1.185037   -0.515605    0.196294
     38          6           0        1.310167    1.192650   -0.000778
     39          6           0       -1.140487    0.912838    0.025004
     40          6           0       -0.026978    1.662703   -0.063805
     41          1           0      -13.937332   -0.067910    0.248434
     42          1           0      -14.221632   -0.029768   -1.432168
     43          1           0       12.665910   -1.845691    1.875512
     44          1           0       13.935890   -0.842654    1.723364
     45          1           0      -14.254988    2.127777   -0.539453
     46          1           0      -12.800186    1.979061   -1.751782
     47          1           0       13.814800   -3.059721    0.446908
     48          1           0       13.838760   -1.692327   -0.756007
     49          1           0      -12.897588    2.107433    1.220727
     50          1           0      -11.983006    3.036746    0.175342
     51          1           0       11.618842   -3.430049   -0.005169
     52          1           0       12.091791   -3.238184   -1.688379
     53          1           0      -11.227371    0.440988   -2.561730
     54          1           0      -12.536191   -0.860559   -2.729516
     55          1           0      -10.928617   -1.384255   -2.125843
     56          1           0      -12.627527   -2.231284    0.889576
     57          1           0      -11.678269   -2.751173   -0.742399
     58          1           0      -13.371882   -2.364082   -0.721196
     59          1           0       13.474218    0.494958   -0.556942
     60          1           0       13.776989    1.402478    0.646290
     61          1           0       12.350047    1.772202   -0.146262
     62          1           0       10.527193    0.142894    2.624607
     63          1           0       11.176027    1.663384    2.041675
     64          1           0       12.294160    0.556660    3.082478
     65          1           0      -10.255926   -1.840276    0.269858
     66          1           0       10.344673    1.521265   -0.583917
     67          1           0       -9.774736    0.869815    2.498883
     68          1           0      -10.778427    2.402201    2.768138
     69          1           0       -9.629818    2.512313    1.327635
     70          1           0        9.229580   -1.185020   -2.094914
     71          1           0        9.085747   -2.837100   -1.543342
     72          1           0       10.426682   -2.239800   -2.869785
     73          1           0       -8.376374    0.522412    0.157386
     74          1           0        8.285191   -0.552558   -0.158896
     75          1           0       -8.198290   -3.126246    1.452300
     76          1           0       -6.468969   -3.139927    1.018459
     77          1           0       -7.895710   -3.290260   -0.001800
     78          1           0        8.135099    2.827617   -1.950867
     79          1           0        8.868890    3.378672   -0.225910
     80          1           0        7.052816    3.641697   -0.773400
     81          1           0       -6.060413    0.349557    0.302579
     82          1           0        6.238648   -0.004418   -0.075395
     83          1           0       -4.620705   -2.532716    0.489835
     84          1           0        5.106089    2.869737   -0.531169
     85          1           0       -3.713363    0.300716    0.258627
     86          1           0        3.704598    0.098335   -0.445772
     87          1           0       -2.692345   -2.938905    1.416217
     88          1           0       -1.230641   -3.187603    0.579292
     89          1           0       -2.618301   -3.359908   -0.565025
     90          1           0        3.184850    3.764413   -1.288015
     91          1           0        2.826956    3.670423    0.355117
     92          1           0        1.496716    3.894509   -0.779152
     93          1           0       -0.388288   -0.939350    0.490895
     94          1           0        1.388671    0.274378    0.545043
     95          1           0       -1.983617    1.406123    0.147293
     96          1           0       -0.159513    2.893577   -0.122816
 ---------------------------------------------------------------------

 SCF Done:  E(RB3LYP) =  -1557.52805844     A.U. after   16 cycles

 Excitation energies and oscillator strengths:

 Excited State   1:      Singlet-A      2.1686 eV  571.73 nm  f=2.7783  <S**2>=0.000
     148 ->149         0.70809
 This state for optimization and/or second-order correction.
 Total Energy, E(TD-HF/TD-DFT) =  -1557.44836521
 Copying the excited state density for this state as the 1-particle RhoCI density.

 The electronic state is 1-A.
 Alpha  occ. eigenvalues --  -10.21111 -10.21076 -10.20891 -10.20264 -10.20261
 Alpha  occ. eigenvalues --  -10.20025 -10.19999 -10.19970 -10.19750 -10.19313
 Alpha  occ. eigenvalues --  -10.19270 -10.19097 -10.18950 -10.18940 -10.18902
 Alpha  occ. eigenvalues --  -10.18608 -10.18405 -10.18315 -10.18268 -10.18222
 Alpha  occ. eigenvalues --  -10.18202 -10.18183 -10.18113 -10.18088 -10.17905
 Alpha  occ. eigenvalues --  -10.17868 -10.17783 -10.17734 -10.17636 -10.17469
 Alpha  occ. eigenvalues --  -10.17348 -10.17281 -10.17206 -10.17138 -10.16990
 Alpha  occ. eigenvalues --  -10.16741 -10.16520 -10.15951 -10.15909 -10.14968
 Alpha  occ. eigenvalues --   -0.85589  -0.84466  -0.83473  -0.82994  -0.82072
 Alpha  occ. eigenvalues --   -0.81333  -0.79711  -0.78644  -0.78029  -0.77667
 Alpha  occ. eigenvalues --   -0.77105  -0.75754  -0.74582  -0.72640  -0.71768
 Alpha  occ. eigenvalues --   -0.70347  -0.69094  -0.68536  -0.67860  -0.67772
 Alpha  occ. eigenvalues --   -0.67333  -0.67298  -0.67033  -0.66933  -0.65855
 Alpha  occ. eigenvalues --   -0.62827  -0.62484  -0.60193  -0.58905  -0.58012
 Alpha  occ. eigenvalues --   -0.56981  -0.55645  -0.55207  -0.53331  -0.52689
 Alpha  occ. eigenvalues --   -0.52540  -0.52277  -0.50976  -0.50379  -0.49456
 Alpha  occ. eigenvalues --   -0.48445  -0.47866  -0.47276  -0.46856  -0.45729
 Alpha  occ. eigenvalues --   -0.45621  -0.45196  -0.45074  -0.44863  -0.44527
 Alpha  occ. eigenvalues --   -0.43823  -0.43753  -0.42993  -0.42431  -0.42253
 Alpha  occ. eigenvalues --   -0.42140  -0.42081  -0.41807  -0.41022  -0.40763
 Alpha  occ. eigenvalues --   -0.40455  -0.40103  -0.39989  -0.39873  -0.39819
 Alpha  occ. eigenvalues --   -0.39543  -0.39214  -0.39045  -0.38751  -0.38645
 Alpha  occ. eigenvalues --   -0.38214  -0.38195  -0.37935  -0.37134  -0.36561
 Alpha  occ. eigenvalues --   -0.36422  -0.36137  -0.35476  -0.35074  -0.34958
 Alpha  occ. eigenvalues --   -0.34914  -0.34584  -0.34385  -0.34038  -0.33898
 Alpha  occ. eigenvalues --   -0.33365  -0.33051  -0.32964  -0.32603  -0.32359
 Alpha  occ. eigenvalues --   -0.32049  -0.31888  -0.31395  -0.31260  -0.31067
 Alpha  occ. eigenvalues --   -0.30849  -0.30573  -0.29961  -0.29379  -0.28393
 Alpha  occ. eigenvalues --   -0.27499  -0.26772  -0.25404  -0.24254  -0.22931
 Alpha  occ. eigenvalues --   -0.21237  -0.18570  -0.16111
 Alpha virt. eigenvalues --   -0.07842  -0.05293  -0.01510   0.01281   0.03589
 Alpha virt. eigenvalues --    0.04324   0.06421   0.07422   0.07545   0.07744
 Alpha virt. eigenvalues --    0.07911   0.08353   0.08748   0.09148   0.09642

 Mulliken charges:
               1
     1  C   -0.032989
     2  C    0.003485
     3  C   -0.170429
     4  C   -0.152274
     5  C   -0.203633
     6  C   -0.199050
     7  C    0.097188
     8  C    0.037918
     9  C   -0.191916
    10  C   -0.215477
    11  C    0.045602
    12  C    0.079589
    13  C   -0.275928
    14  C   -0.321795
    15  C   -0.297033
    16  C   -0.311160
    17  C   -0.112521
    18  C   -0.140069
    19  C   -0.353652
    20  C   -0.349213
    21  C   -0.091273
    22  C   -0.090892
    23  C    0.101783
    24  C    0.144045
    25  C   -0.373333
    26  C   -0.364529
    27  C   -0.143824
    28  C   -0.125809
    29  C   -0.029362
    30  C   -0.103334
    31  C   -0.108169
    32  C   -0.096647
    33  C    0.075409
    34  C    0.089254
    35  C   -0.370310
    36  C   -0.375120
    37  C   -0.096706
    38  C   -0.131754
    39  C   -0.056342
    40  C   -0.098826
    41  H    0.094486
    42  H    0.090156
    43  H    0.098441
    44  H    0.059419
    45  H    0.073808
    46  H    0.091828
    47  H    0.098901
    48  H    0.104900
    49  H    0.113058
    50  H    0.103244
    51  H    0.120309
    52  H    0.065063
    53  H    0.089840
    54  H    0.092467
    55  H    0.093333
    56  H    0.091907
    57  H    0.111742
    58  H    0.099046
    59  H    0.109469
    60  H    0.097394
    61  H    0.107628
    62  H    0.101850
    63  H    0.095847
    64  H    0.103184
    65  H    0.071449
    66  H    0.083814
    67  H    0.098281
    68  H    0.090976
    69  H    0.116923
    70  H    0.120043
    71  H    0.060021
    72  H    0.113927
    73  H    0.074732
    74  H    0.078315
    75  H    0.114411
    76  H    0.112875
    77  H    0.120961
    78  H    0.104122
    79  H    0.104694
    80  H    0.106664
    81  H    0.067132
    82  H    0.066811
    83  H    0.069234
    84  H    0.058088
    85  H    0.070105
    86  H    0.085932
    87  H    0.122550
    88  H    0.115887
    89  H    0.101818
    90  H    0.118152
    91  H    0.148339
    92  H    0.124840
    93  H    0.061004
    94  H    0.090097
    95  H    0.074205
    96  H    0.055371
 Sum of Mulliken charges =  -0.00000

 Dipole moment (field-independent basis, Debye):
    X=              0.0902    Y=              0.2467    Z=              0.6286  Tot=              0.6813
 Quadrupole moment (field-independent basis, Debye-Ang):
   XX=           -203.0842   YY=           -233.3040   ZZ=           -254.0693
   XY=             -0.3186   XZ=              0.2383   YZ=             -2.7064

 Normal termination of Gaussian 16 at Tue Jul 30 05:58:01 2019.
