 Gaussian 16, Revision A.03,
 Gaussian 16:  ES64L-G16RevA.03 25-Dec-2016

 ---------------------------------
 # td=(NStates=1) B3LYP/6-31G(d,p)
 ---------------------------------

 --
 TD
 --
 Symbolic Z-matrix:
 Charge =  0 Multiplicity = 1

                         Standard orientation:
 ---------------------------------------------------------------------
 Center     Atomic      Atomic             Coordinates (Angstroms)
 Number     Number       Type             X           Y           Z
 ---------------------------------------------------------------------
      1          6           0      -12.151258    0.516934    0.922232
      2          6           0       12.118625   -0.069662   -0.743010
      3          6           0      -13.402797   -0.310606    0.863206
      4          6           0       13.008636    1.228697   -1.172099
      5          6           0      -13.069670   -1.853521    0.774011
      6          6           0       13.358298    2.061693    0.083257
      7          6           0      -11.089359    0.055738   -0.156808
      8          6           0       10.923141    0.416061    0.198987
      9          6           0      -12.173999   -2.043817   -0.640568
     10          6           0       12.206692    2.609109    0.741631
     11          6           0      -11.123000   -1.079912   -0.801983
     12          6           0       11.077872    1.585437    0.848038
     13          6           0      -11.511404    0.339882    2.407207
     14          6           0      -12.579830    1.882998    0.616900
     15          6           0       13.039107   -1.124546    0.004672
     16          6           0       11.715178   -0.573234   -2.095355
     17          6           0       -9.831629    0.959824   -0.427427
     18          6           0        9.927414   -0.633872    0.386332
     19          6           0      -10.205380   -1.598796   -1.905304
     20          6           0       10.028010    1.945891    1.860405
     21          6           0       -8.548746    0.542691   -0.389102
     22          6           0        8.572430   -0.341825    0.215325
     23          6           0       -7.336944    1.380776   -0.403780
     24          6           0        7.462709   -1.342786    0.317940
     25          6           0       -7.477082    2.853769   -0.607935
     26          6           0        7.920321   -2.721170    0.549964
     27          6           0       -6.211971    0.729451   -0.400874
     28          6           0        6.160331   -0.825572    0.269056
     29          6           0       -4.940943    1.361114   -0.585858
     30          6           0        4.989708   -1.635765    0.352947
     31          6           0       -3.805295    0.654236   -0.398486
     32          6           0        3.715485   -1.133146    0.138101
     33          6           0       -2.484939    1.336238   -0.514287
     34          6           0        2.481067   -1.825961    0.279730
     35          6           0       -2.367581    2.817028   -0.854915
     36          6           0        2.549190   -3.257855    0.609713
     37          6           0       -1.318212    0.514441   -0.446021
     38          6           0        1.277955   -1.066545    0.073851
     39          6           0       -1.155255   -0.835932   -0.147956
     40          6           0        0.015663   -1.566537   -0.039553
     41          1           0      -14.015605   -0.069171    0.085240
     42          1           0      -14.045097   -0.217326    1.689133
     43          1           0       12.442718    1.862650   -1.781327
     44          1           0       13.788911    0.903705   -1.682745
     45          1           0      -13.952853   -2.440244    0.780072
     46          1           0      -12.596407   -2.038192    1.708386
     47          1           0       14.079323    2.906793   -0.198049
     48          1           0       13.824788    1.487659    0.821176
     49          1           0      -13.014634   -1.975679   -1.254767
     50          1           0      -11.964849   -3.182492   -0.751037
     51          1           0       11.926444    3.469075    0.057063
     52          1           0       12.419924    3.122431    1.570214
     53          1           0      -11.532786   -0.755045    2.462628
     54          1           0      -12.102160    0.710939    3.096638
     55          1           0      -10.366621    0.704203    2.309349
     56          1           0      -12.737866    1.811750   -0.351483
     57          1           0      -11.764069    2.731458    0.933343
     58          1           0      -13.558156    2.249735    1.060766
     59          1           0       13.131398   -0.744675    1.189498
     60          1           0       13.989728   -1.127993   -0.488553
     61          1           0       12.512060   -2.159984    0.027124
     62          1           0       11.104270    0.080830   -2.748488
     63          1           0       11.088127   -1.589165   -1.874249
     64          1           0       12.509112   -1.086431   -2.723473
     65          1           0      -10.140389    2.038914   -0.711429
     66          1           0       10.222281   -1.666581    0.383522
     67          1           0       -9.268762   -0.928862   -2.202514
     68          1           0      -10.999283   -1.632948   -2.908424
     69          1           0       -9.947154   -2.814194   -1.704995
     70          1           0        9.409334    1.126497    2.130646
     71          1           0        9.543686    2.765547    1.546693
     72          1           0       10.452924    2.234721    2.770774
     73          1           0       -8.516627   -0.470053   -0.074733
     74          1           0        8.422928    0.724314    0.193967
     75          1           0       -7.969153    2.975257   -1.670268
     76          1           0       -6.593769    3.638440   -0.748093
     77          1           0       -8.324158    3.170029   -0.043581
     78          1           0        8.796183   -2.947937    1.330923
     79          1           0        8.309369   -3.268940   -0.376144
     80          1           0        7.115503   -3.480692    0.792433
     81          1           0       -6.085447   -0.279369   -0.323885
     82          1           0        5.975838    0.211572    0.051245
     83          1           0       -4.943529    2.358443   -0.585097
     84          1           0        4.888847   -2.712212    0.753660
     85          1           0       -3.743035   -0.421694   -0.113412
     86          1           0        3.810946   -0.089551   -0.127712
     87          1           0       -3.059105    2.871088   -1.563705
     88          1           0       -1.221566    3.007656   -1.176906
     89          1           0       -2.578505    3.519451    0.098427
     90          1           0        2.950478   -3.341666    1.716321
     91          1           0        3.066490   -3.837353   -0.055516
     92          1           0        1.559620   -3.743603    0.593957
     93          1           0       -0.343564    0.952643   -0.580866
     94          1           0        1.667965   -0.134619   -0.022568
     95          1           0       -2.040075   -1.507226   -0.121229
     96          1           0       -0.159174   -2.677595    0.118953
 ---------------------------------------------------------------------

 SCF Done:  E(RB3LYP) =  -1557.57581969     A.U. after   16 cycles

 Excitation energies and oscillator strengths:

 Excited State   1:      Singlet-A      2.0800 eV  596.06 nm  f=3.2025  <S**2>=0.000
     148 ->149         0.71043
     148 <-149        -0.14394
 This state for optimization and/or second-order correction.
 Total Energy, E(TD-HF/TD-DFT) =  -1557.49937938
 Copying the excited state density for this state as the 1-particle RhoCI density.

 The electronic state is 1-A.
 Alpha  occ. eigenvalues --  -10.21383 -10.20751 -10.20689 -10.19929 -10.19885
 Alpha  occ. eigenvalues --  -10.19856 -10.19805 -10.19789 -10.19695 -10.19510
 Alpha  occ. eigenvalues --  -10.19423 -10.19416 -10.19268 -10.19229 -10.19012
 Alpha  occ. eigenvalues --  -10.18958 -10.18777 -10.18639 -10.18517 -10.18508
 Alpha  occ. eigenvalues --  -10.18432 -10.18422 -10.18295 -10.18289 -10.18284
 Alpha  occ. eigenvalues --  -10.18237 -10.18201 -10.18138 -10.17987 -10.17925
 Alpha  occ. eigenvalues --  -10.17512 -10.17332 -10.17007 -10.16972 -10.16881
 Alpha  occ. eigenvalues --  -10.16768 -10.16467 -10.16212 -10.15932 -10.14735
 Alpha  occ. eigenvalues --   -0.85118  -0.84426  -0.84017  -0.83484  -0.81910
 Alpha  occ. eigenvalues --   -0.81137  -0.79547  -0.78968  -0.78138  -0.77687
 Alpha  occ. eigenvalues --   -0.76557  -0.75065  -0.74256  -0.72039  -0.71792
 Alpha  occ. eigenvalues --   -0.70984  -0.68865  -0.68753  -0.68554  -0.68039
 Alpha  occ. eigenvalues --   -0.67184  -0.66981  -0.66393  -0.66096  -0.65806
 Alpha  occ. eigenvalues --   -0.62521  -0.61361  -0.59958  -0.58921  -0.57281
 Alpha  occ. eigenvalues --   -0.56303  -0.55464  -0.55260  -0.54590  -0.53353
 Alpha  occ. eigenvalues --   -0.53198  -0.52320  -0.50946  -0.50177  -0.49685
 Alpha  occ. eigenvalues --   -0.48209  -0.47837  -0.47742  -0.46908  -0.46063
 Alpha  occ. eigenvalues --   -0.45367  -0.45110  -0.44887  -0.44245  -0.44103
 Alpha  occ. eigenvalues --   -0.43562  -0.43410  -0.43038  -0.42770  -0.42615
 Alpha  occ. eigenvalues --   -0.42204  -0.41704  -0.41336  -0.40990  -0.40799
 Alpha  occ. eigenvalues --   -0.40667  -0.40211  -0.39724  -0.39587  -0.39502
 Alpha  occ. eigenvalues --   -0.39437  -0.38836  -0.38446  -0.37991  -0.37835
 Alpha  occ. eigenvalues --   -0.37528  -0.37351  -0.36899  -0.36662  -0.36574
 Alpha  occ. eigenvalues --   -0.36331  -0.36141  -0.35979  -0.35860  -0.35312
 Alpha  occ. eigenvalues --   -0.35183  -0.34607  -0.34484  -0.34395  -0.33830
 Alpha  occ. eigenvalues --   -0.33602  -0.33523  -0.33338  -0.32928  -0.32886
 Alpha  occ. eigenvalues --   -0.32503  -0.32228  -0.31575  -0.31433  -0.30806
 Alpha  occ. eigenvalues --   -0.30378  -0.30015  -0.29294  -0.28831  -0.28238
 Alpha  occ. eigenvalues --   -0.27599  -0.26456  -0.26088  -0.24223  -0.22966
 Alpha  occ. eigenvalues --   -0.21102  -0.19288  -0.15727
 Alpha virt. eigenvalues --   -0.08531  -0.04316  -0.01541   0.01171   0.02636
 Alpha virt. eigenvalues --    0.03843   0.05755   0.06875   0.07561   0.07682
 Alpha virt. eigenvalues --    0.07955   0.08238   0.08421   0.09044   0.09188

 Mulliken charges:
               1
     1  C    0.017771
     2  C   -0.011566
     3  C   -0.184834
     4  C   -0.162804
     5  C   -0.221913
     6  C   -0.194109
     7  C    0.006508
     8  C    0.056156
     9  C   -0.241386
    10  C   -0.191400
    11  C    0.136641
    12  C    0.056625
    13  C   -0.298392
    14  C   -0.291436
    15  C   -0.289432
    16  C   -0.289935
    17  C   -0.155257
    18  C   -0.125083
    19  C   -0.331926
    20  C   -0.375189
    21  C   -0.096714
    22  C   -0.106712
    23  C    0.123034
    24  C    0.142167
    25  C   -0.385942
    26  C   -0.394873
    27  C   -0.093234
    28  C   -0.136478
    29  C   -0.075866
    30  C   -0.074028
    31  C   -0.095854
    32  C   -0.119099
    33  C    0.075314
    34  C    0.091246
    35  C   -0.351677
    36  C   -0.385805
    37  C   -0.123092
    38  C   -0.055037
    39  C   -0.062912
    40  C   -0.125075
    41  H    0.093521
    42  H    0.091574
    43  H    0.095332
    44  H    0.089533
    45  H    0.084628
    46  H    0.101770
    47  H    0.063219
    48  H    0.099533
    49  H    0.125540
    50  H    0.083838
    51  H    0.088358
    52  H    0.105018
    53  H    0.100666
    54  H    0.110955
    55  H    0.091541
    56  H    0.117862
    57  H    0.069583
    58  H    0.088091
    59  H    0.079883
    60  H    0.112302
    61  H    0.091082
    62  H    0.108685
    63  H    0.055172
    64  H    0.093290
    65  H    0.075670
    66  H    0.084372
    67  H    0.112295
    68  H    0.073461
    69  H    0.087484
    70  H    0.119068
    71  H    0.118921
    72  H    0.099790
    73  H    0.100654
    74  H    0.087236
    75  H    0.109985
    76  H    0.112581
    77  H    0.129957
    78  H    0.110044
    79  H    0.121537
    80  H    0.107279
    81  H    0.069071
    82  H    0.090391
    83  H    0.071880
    84  H    0.074943
    85  H    0.087621
    86  H    0.066640
    87  H    0.138107
    88  H    0.100195
    89  H    0.106500
    90  H    0.113191
    91  H    0.136317
    92  H    0.103541
    93  H    0.071707
    94  H    0.072325
    95  H    0.065898
    96  H    0.081959
 Sum of Mulliken charges =  -0.00000

 Dipole moment (field-independent basis, Debye):
    X=             -0.7124    Y=              0.1422    Z=             -0.0102  Tot=              0.7265
 Quadrupole moment (field-independent basis, Debye-Ang):
   XX=           -216.8356   YY=           -232.6143   ZZ=           -255.5244
   XY=              1.2159   XZ=              0.6994   YZ=             -2.1722

 Normal termination of Gaussian 16 at Thu Aug  1 22:13:10 2019.
