 Gaussian 16, Revision A.03,
 Gaussian 16:  ES64L-G16RevA.03 25-Dec-2016

 ---------------------------------
 # td=(NStates=1) B3LYP/6-31G(d,p)
 ---------------------------------

 --
 TD
 --
 Symbolic Z-matrix:
 Charge =  0 Multiplicity = 1

                         Standard orientation:
 ---------------------------------------------------------------------
 Center     Atomic      Atomic             Coordinates (Angstroms)
 Number     Number       Type             X           Y           Z
 ---------------------------------------------------------------------
      1          6           0      -12.252116   -0.731125   -0.520528
      2          6           0       12.076577   -0.102827    0.935101
      3          6           0      -13.510476    0.288069   -0.413097
      4          6           0       12.805135   -1.336889    1.307336
      5          6           0      -13.198551    1.741907   -0.483564
      6          6           0       13.355233   -2.125068    0.127928
      7          6           0      -11.013178   -0.074127    0.291114
      8          6           0       11.057677   -0.402827   -0.104270
      9          6           0      -12.259685    2.163836    0.591185
     10          6           0       11.992301   -2.580488   -0.573924
     11          6           0      -11.138555    1.159368    0.796407
     12          6           0       11.123398   -1.560256   -0.739629
     13          6           0      -11.838335   -0.991895   -2.053526
     14          6           0      -12.625565   -2.139861    0.012456
     15          6           0       12.937566    1.061046    0.401734
     16          6           0       11.404933    0.511666    2.198220
     17          6           0       -9.858206   -0.878868    0.483317
     18          6           0        9.877763    0.597858   -0.108901
     19          6           0      -10.167549    1.857109    1.719045
     20          6           0       10.075646   -2.012265   -1.749984
     21          6           0       -8.538164   -0.499564    0.349732
     22          6           0        8.556954    0.265924   -0.185737
     23          6           0       -7.326544   -1.291059    0.328845
     24          6           0        7.562602    1.156689   -0.424690
     25          6           0       -7.487970   -2.824232    0.689193
     26          6           0        8.056156    2.659030   -0.690476
     27          6           0       -6.103657   -0.699206    0.136000
     28          6           0        6.230409    0.941152   -0.299645
     29          6           0       -4.829083   -1.270340    0.230528
     30          6           0        5.097479    1.761841   -0.431915
     31          6           0       -3.602844   -0.587063    0.079845
     32          6           0        3.884261    1.193858   -0.292100
     33          6           0       -2.356289   -1.118702    0.055740
     34          6           0        2.517317    1.932394   -0.390343
     35          6           0       -2.245839   -2.621594    0.284354
     36          6           0        2.604600    3.454641   -0.838170
     37          6           0       -1.222248   -0.367193   -0.049262
     38          6           0        1.346020    1.221825   -0.240724
     39          6           0       -1.191222    1.032229   -0.240429
     40          6           0        0.040640    1.796089   -0.325776
     41          1           0      -14.021922    0.268178    0.608742
     42          1           0      -14.417569    0.120844   -1.034812
     43          1           0       12.274266   -2.163677    1.668977
     44          1           0       13.667508   -1.225167    2.017489
     45          1           0      -14.240051    2.344360   -0.717875
     46          1           0      -12.862082    1.901291   -1.647146
     47          1           0       14.163656   -2.933242    0.354116
     48          1           0       14.052907   -1.329185   -0.405731
     49          1           0      -12.810431    2.108741    1.621339
     50          1           0      -11.920557    3.267334    0.688757
     51          1           0       11.708576   -3.495819   -0.005691
     52          1           0       12.147279   -3.121235   -1.575009
     53          1           0      -11.524005    0.045119   -2.651711
     54          1           0      -12.624699   -1.525407   -2.453356
     55          1           0      -10.776956   -1.367579   -2.087773
     56          1           0      -12.966803   -1.981607    1.024932
     57          1           0      -11.581320   -2.758188    0.095501
     58          1           0      -13.377011   -2.391846   -0.738151
     59          1           0       13.509987    0.786147   -0.494823
     60          1           0       13.868450    1.324342    0.883258
     61          1           0       12.393180    2.090771    0.054345
     62          1           0       10.735610   -0.373067    2.763817
     63          1           0       10.816817    1.253445    2.151640
     64          1           0       12.286337    0.539381    3.075493
     65          1           0      -10.159475   -1.909309    0.672771
     66          1           0       10.124870    1.625815   -0.216462
     67          1           0       -9.424276    1.041445    2.283690
     68          1           0      -10.575185    2.426145    2.511549
     69          1           0       -9.584052    2.668100    1.231721
     70          1           0        9.379123   -1.307871   -2.166135
     71          1           0        9.413692   -2.838411   -1.199634
     72          1           0       10.320726   -2.580815   -2.549498
     73          1           0       -8.274761    0.420145    0.099130
     74          1           0        8.210584   -0.636961    0.313767
     75          1           0       -7.837790   -2.989710    1.596809
     76          1           0       -6.600793   -3.403360    0.654696
     77          1           0       -8.154450   -3.288967    0.033961
     78          1           0        8.380363    2.461393   -1.749341
     79          1           0        8.775910    3.111763   -0.002425
     80          1           0        7.278812    3.382763   -0.718223
     81          1           0       -6.156761    0.372977   -0.143865
     82          1           0        5.860066   -0.198768   -0.305773
     83          1           0       -4.792379   -2.475489    0.561907
     84          1           0        5.447176    2.821652   -0.229329
     85          1           0       -3.622024    0.433648   -0.042705
     86          1           0        3.858866    0.008955    0.051286
     87          1           0       -2.885140   -3.079093    1.130374
     88          1           0       -1.197982   -2.935618    0.387227
     89          1           0       -2.587772   -2.984844   -0.719847
     90          1           0        3.389176    3.462960   -1.762553
     91          1           0        3.249892    4.015085   -0.050485
     92          1           0        1.663889    3.873258   -0.929992
     93          1           0       -0.200184   -1.102788   -0.188023
     94          1           0        1.526951    0.191701   -0.139979
     95          1           0       -2.058754    1.709095   -0.293685
     96          1           0       -0.289033    2.834679   -0.485619
 ---------------------------------------------------------------------

 SCF Done:  E(RB3LYP) =  -1557.49952795     A.U. after   16 cycles

 Excitation energies and oscillator strengths:

 Excited State   1:      Singlet-A      1.9971 eV  620.84 nm  f=3.2240  <S**2>=0.000
     148 ->149         0.70960
     148 <-149        -0.12656
 This state for optimization and/or second-order correction.
 Total Energy, E(TD-HF/TD-DFT) =  -1557.42613757
 Copying the excited state density for this state as the 1-particle RhoCI density.

 The electronic state is 1-A.
 Alpha  occ. eigenvalues --  -10.21539 -10.21315 -10.21235 -10.20676 -10.20455
 Alpha  occ. eigenvalues --  -10.20235 -10.20047 -10.20015 -10.19969 -10.19947
 Alpha  occ. eigenvalues --  -10.19900 -10.19757 -10.19316 -10.19215 -10.19168
 Alpha  occ. eigenvalues --  -10.19123 -10.19113 -10.19095 -10.19040 -10.18988
 Alpha  occ. eigenvalues --  -10.18899 -10.18803 -10.18798 -10.18694 -10.18637
 Alpha  occ. eigenvalues --  -10.18619 -10.18456 -10.18396 -10.18383 -10.18283
 Alpha  occ. eigenvalues --  -10.18171 -10.18131 -10.17896 -10.17892 -10.17856
 Alpha  occ. eigenvalues --  -10.17855 -10.17683 -10.16832 -10.16659 -10.16374
 Alpha  occ. eigenvalues --   -0.86755  -0.84666  -0.84064  -0.83413  -0.82028
 Alpha  occ. eigenvalues --   -0.81179  -0.79575  -0.78887  -0.78190  -0.77982
 Alpha  occ. eigenvalues --   -0.76325  -0.75393  -0.74209  -0.72380  -0.71503
 Alpha  occ. eigenvalues --   -0.69925  -0.69563  -0.68481  -0.68165  -0.67643
 Alpha  occ. eigenvalues --   -0.67413  -0.67044  -0.66880  -0.66570  -0.66448
 Alpha  occ. eigenvalues --   -0.63463  -0.62438  -0.59421  -0.58602  -0.57513
 Alpha  occ. eigenvalues --   -0.56811  -0.56354  -0.54866  -0.54026  -0.52804
 Alpha  occ. eigenvalues --   -0.52384  -0.51482  -0.50730  -0.50387  -0.49263
 Alpha  occ. eigenvalues --   -0.48816  -0.47955  -0.47404  -0.47237  -0.46836
 Alpha  occ. eigenvalues --   -0.46415  -0.45754  -0.44462  -0.44095  -0.43859
 Alpha  occ. eigenvalues --   -0.43412  -0.43173  -0.42652  -0.42486  -0.42303
 Alpha  occ. eigenvalues --   -0.42052  -0.41688  -0.41637  -0.41470  -0.40887
 Alpha  occ. eigenvalues --   -0.40660  -0.40332  -0.39888  -0.39540  -0.39264
 Alpha  occ. eigenvalues --   -0.38952  -0.38747  -0.38492  -0.38141  -0.37658
 Alpha  occ. eigenvalues --   -0.37597  -0.37511  -0.37180  -0.37088  -0.36885
 Alpha  occ. eigenvalues --   -0.36757  -0.36282  -0.35969  -0.35324  -0.35094
 Alpha  occ. eigenvalues --   -0.34726  -0.34346  -0.34126  -0.33984  -0.33569
 Alpha  occ. eigenvalues --   -0.33482  -0.33104  -0.32499  -0.32292  -0.32207
 Alpha  occ. eigenvalues --   -0.31994  -0.31824  -0.31745  -0.31151  -0.30696
 Alpha  occ. eigenvalues --   -0.30465  -0.29583  -0.29465  -0.29143  -0.28059
 Alpha  occ. eigenvalues --   -0.27624  -0.27463  -0.26681  -0.24209  -0.23002
 Alpha  occ. eigenvalues --   -0.21181  -0.18872  -0.16147
 Alpha virt. eigenvalues --   -0.08952  -0.05788  -0.02398   0.00487   0.02522
 Alpha virt. eigenvalues --    0.04253   0.05461   0.05871   0.06905   0.07292
 Alpha virt. eigenvalues --    0.07433   0.07706   0.07965   0.08373   0.09100

 Mulliken charges:
               1
     1  C   -0.013169
     2  C    0.022195
     3  C   -0.182430
     4  C   -0.191483
     5  C   -0.166485
     6  C   -0.200991
     7  C    0.072872
     8  C    0.085692
     9  C   -0.218664
    10  C   -0.262230
    11  C    0.091631
    12  C    0.127589
    13  C   -0.288642
    14  C   -0.283364
    15  C   -0.308022
    16  C   -0.252240
    17  C   -0.146511
    18  C   -0.154990
    19  C   -0.371205
    20  C   -0.364534
    21  C   -0.069819
    22  C   -0.080651
    23  C    0.103356
    24  C    0.104651
    25  C   -0.378078
    26  C   -0.374804
    27  C   -0.125948
    28  C   -0.141378
    29  C   -0.085670
    30  C   -0.053796
    31  C   -0.090934
    32  C   -0.131013
    33  C    0.128353
    34  C    0.085317
    35  C   -0.367423
    36  C   -0.352788
    37  C   -0.119575
    38  C   -0.085746
    39  C   -0.110594
    40  C   -0.106520
    41  H    0.080627
    42  H    0.086839
    43  H    0.111443
    44  H    0.077683
    45  H    0.065961
    46  H    0.070787
    47  H    0.077862
    48  H    0.074703
    49  H    0.100997
    50  H    0.100726
    51  H    0.117278
    52  H    0.089135
    53  H    0.073642
    54  H    0.107437
    55  H    0.111440
    56  H    0.114063
    57  H    0.083949
    58  H    0.107536
    59  H    0.098085
    60  H    0.101471
    61  H    0.084822
    62  H    0.055152
    63  H    0.110425
    64  H    0.067277
    65  H    0.074937
    66  H    0.092534
    67  H    0.085804
    68  H    0.111837
    69  H    0.111848
    70  H    0.114701
    71  H    0.079844
    72  H    0.111995
    73  H    0.070823
    74  H    0.089820
    75  H    0.132783
    76  H    0.103283
    77  H    0.120192
    78  H    0.129068
    79  H    0.118201
    80  H    0.098194
    81  H    0.075875
    82  H    0.048784
    83  H    0.066271
    84  H    0.093665
    85  H    0.068010
    86  H    0.078341
    87  H    0.113569
    88  H    0.100596
    89  H    0.123462
    90  H    0.112252
    91  H    0.109222
    92  H    0.119000
    93  H    0.068231
    94  H    0.086450
    95  H    0.094307
    96  H    0.084804
 Sum of Mulliken charges =  -0.00000

 Dipole moment (field-independent basis, Debye):
    X=             -1.4166    Y=              0.1071    Z=              0.0786  Tot=              1.4228
 Quadrupole moment (field-independent basis, Debye-Ang):
   XX=           -229.9916   YY=           -233.0154   ZZ=           -257.9517
   XY=             -3.9273   XZ=             -2.9672   YZ=             -1.1298

 Normal termination of Gaussian 16 at Mon Jul 29 04:53:49 2019.
