 Gaussian 16, Revision A.03,
 Gaussian 16:  ES64L-G16RevA.03 25-Dec-2016

 ---------------------------------
 # td=(NStates=1) B3LYP/6-31G(d,p)
 ---------------------------------

 --
 TD
 --
 Symbolic Z-matrix:
 Charge =  0 Multiplicity = 1

                         Standard orientation:
 ---------------------------------------------------------------------
 Center     Atomic      Atomic             Coordinates (Angstroms)
 Number     Number       Type             X           Y           Z
 ---------------------------------------------------------------------
      1          6           0       12.212988    0.554735   -0.560212
      2          6           0      -12.195582   -0.206367    0.782902
      3          6           0       13.541194   -0.356212   -0.447479
      4          6           0      -13.161891    1.002378    1.292627
      5          6           0       13.213563   -1.811374   -0.484083
      6          6           0      -13.487055    2.059854    0.212664
      7          6           0       11.082032   -0.062426    0.323408
      8          6           0      -11.071011    0.381623   -0.000375
      9          6           0       12.343771   -2.188991    0.728927
     10          6           0      -12.201988    2.725918   -0.307075
     11          6           0       11.191841   -1.342495    0.822278
     12          6           0      -11.102985    1.655380   -0.505785
     13          6           0       11.707321    0.636009   -1.952954
     14          6           0       12.648210    2.012525   -0.053172
     15          6           0      -13.023007   -1.087880   -0.186087
     16          6           0      -11.735602   -0.945829    2.106058
     17          6           0        9.924690    0.772129    0.560820
     18          6           0       -9.914622   -0.542156   -0.146294
     19          6           0       10.208039   -1.805364    1.841115
     20          6           0       -9.898532    2.190376   -1.417668
     21          6           0        8.605872    0.429850    0.326812
     22          6           0       -8.591893   -0.288530   -0.024535
     23          6           0        7.340661    1.349909    0.367499
     24          6           0       -7.621908   -1.328306   -0.317739
     25          6           0        7.666854    2.766863    0.646377
     26          6           0       -8.010795   -2.652679   -0.782084
     27          6           0        6.149274    0.780283    0.199458
     28          6           0       -6.313380   -0.895699   -0.305676
     29          6           0        4.931394    1.338857    0.220351
     30          6           0       -5.071598   -1.663595   -0.333649
     31          6           0        3.727606    0.768479   -0.064331
     32          6           0       -3.790325   -1.099150   -0.291117
     33          6           0        2.505179    1.369332   -0.016822
     34          6           0       -2.496644   -1.735153   -0.434624
     35          6           0        2.363982    2.805611    0.316490
     36          6           0       -2.611562   -3.233565   -0.663278
     37          6           0        1.341002    0.656405   -0.154289
     38          6           0       -1.401000   -0.996127   -0.359894
     39          6           0        1.147637   -0.775529   -0.415072
     40          6           0       -0.063180   -1.463170   -0.540475
     41          1           0       14.233241   -0.114140    0.361345
     42          1           0       14.259349   -0.025910   -1.321810
     43          1           0      -12.702769    1.497630    2.180679
     44          1           0      -13.974366    0.524270    1.764155
     45          1           0       13.977596   -2.557844   -0.534986
     46          1           0       12.765681   -1.956852   -1.551750
     47          1           0      -14.143809    2.692508    0.618552
     48          1           0      -14.093198    1.597127   -0.545454
     49          1           0       13.088149   -2.177367    1.561182
     50          1           0       12.293150   -3.332176    0.452120
     51          1           0      -11.926234    3.403292    0.531314
     52          1           0      -12.346793    3.315523   -1.212949
     53          1           0       11.426710   -0.318521   -2.375802
     54          1           0       12.325021    1.243597   -2.636783
     55          1           0       10.702835    1.252818   -2.090735
     56          1           0       13.036636    1.826579    0.874514
     57          1           0       11.828777    2.812471   -0.011638
     58          1           0       13.409277    2.462177   -0.564143
     59          1           0      -13.395471   -0.396651   -0.985336
     60          1           0      -13.838391   -1.603822    0.413775
     61          1           0      -12.527293   -1.939564   -0.822665
     62          1           0      -11.045616   -0.219326    2.603143
     63          1           0      -11.222635   -1.780875    2.024587
     64          1           0      -12.561435   -1.282014    2.748213
     65          1           0       10.077806    1.835514    0.859869
     66          1           0      -10.093866   -1.719599   -0.500291
     67          1           0        9.463067   -1.144459    2.156240
     68          1           0       10.627577   -2.406755    2.775998
     69          1           0        9.769593   -2.639138    1.166305
     70          1           0       -9.179905    1.378270   -1.790358
     71          1           0       -9.204070    2.828738   -0.906380
     72          1           0      -10.364453    2.508351   -2.331450
     73          1           0        8.396798   -0.590819    0.098220
     74          1           0       -8.409796    0.864454    0.168405
     75          1           0        8.567264    2.563142    1.381877
     76          1           0        6.624377    3.180843    0.980494
     77          1           0        8.122722    3.301957   -0.287643
     78          1           0       -8.667016   -2.507943   -1.659541
     79          1           0       -8.579310   -3.323618    0.052710
     80          1           0       -7.011062   -2.968379   -1.135069
     81          1           0        6.078326   -0.221974   -0.003448
     82          1           0       -6.297080    0.244184    0.139372
     83          1           0        4.788382    2.455827    0.307349
     84          1           0       -4.878630   -2.815702   -0.262499
     85          1           0        3.576556   -0.197491   -0.004546
     86          1           0       -3.564509   -0.077883    0.010934
     87          1           0        2.977620    3.154878    1.252434
     88          1           0        1.278130    3.138552    0.451674
     89          1           0        2.787485    3.335204   -0.561515
     90          1           0       -3.319656   -3.563845   -1.259924
     91          1           0       -2.977865   -3.879805    0.318693
     92          1           0       -1.771619   -3.723210   -1.069243
     93          1           0        0.485327    1.325655   -0.341220
     94          1           0       -1.714997    0.015014   -0.401170
     95          1           0        2.062317   -1.334342   -0.416755
     96          1           0        0.250799   -2.594053   -0.567152
 ---------------------------------------------------------------------

 SCF Done:  E(RB3LYP) =  -1557.60283373     A.U. after   15 cycles

 Excitation energies and oscillator strengths:

 Excited State   1:      Singlet-A      2.1850 eV  567.43 nm  f=3.1045  <S**2>=0.000
     148 ->149         0.70728
     148 <-149        -0.10285
 This state for optimization and/or second-order correction.
 Total Energy, E(TD-HF/TD-DFT) =  -1557.52253611
 Copying the excited state density for this state as the 1-particle RhoCI density.

 The electronic state is 1-A.
 Alpha  occ. eigenvalues --  -10.20829 -10.20381 -10.20326 -10.20296 -10.20200
 Alpha  occ. eigenvalues --  -10.20010 -10.19993 -10.19796 -10.19726 -10.19620
 Alpha  occ. eigenvalues --  -10.19393 -10.19297 -10.19233 -10.19153 -10.19150
 Alpha  occ. eigenvalues --  -10.19124 -10.19094 -10.19051 -10.19030 -10.18965
 Alpha  occ. eigenvalues --  -10.18816 -10.18717 -10.18689 -10.18594 -10.18537
 Alpha  occ. eigenvalues --  -10.18499 -10.18442 -10.18432 -10.18294 -10.17932
 Alpha  occ. eigenvalues --  -10.17789 -10.17708 -10.17541 -10.17528 -10.17201
 Alpha  occ. eigenvalues --  -10.17107 -10.16840 -10.16589 -10.16575 -10.16180
 Alpha  occ. eigenvalues --   -0.85199  -0.84824  -0.84178  -0.83571  -0.82480
 Alpha  occ. eigenvalues --   -0.82228  -0.78718  -0.78550  -0.77705  -0.77270
 Alpha  occ. eigenvalues --   -0.76465  -0.75510  -0.74015  -0.72311  -0.71609
 Alpha  occ. eigenvalues --   -0.70855  -0.69242  -0.68709  -0.68521  -0.68355
 Alpha  occ. eigenvalues --   -0.67402  -0.67142  -0.66887  -0.66703  -0.66209
 Alpha  occ. eigenvalues --   -0.62975  -0.61811  -0.60186  -0.59336  -0.56901
 Alpha  occ. eigenvalues --   -0.56622  -0.56016  -0.55374  -0.53832  -0.53219
 Alpha  occ. eigenvalues --   -0.52641  -0.50937  -0.50534  -0.49998  -0.49171
 Alpha  occ. eigenvalues --   -0.48479  -0.47549  -0.47375  -0.46747  -0.46200
 Alpha  occ. eigenvalues --   -0.45771  -0.45462  -0.44726  -0.44237  -0.43524
 Alpha  occ. eigenvalues --   -0.43281  -0.43018  -0.42737  -0.42305  -0.41933
 Alpha  occ. eigenvalues --   -0.41814  -0.41541  -0.41390  -0.41363  -0.41105
 Alpha  occ. eigenvalues --   -0.40774  -0.40349  -0.40217  -0.39651  -0.39547
 Alpha  occ. eigenvalues --   -0.39515  -0.38955  -0.38589  -0.37973  -0.37813
 Alpha  occ. eigenvalues --   -0.37653  -0.37604  -0.37301  -0.37171  -0.36893
 Alpha  occ. eigenvalues --   -0.36203  -0.35760  -0.35461  -0.35368  -0.35190
 Alpha  occ. eigenvalues --   -0.34907  -0.34657  -0.34432  -0.34221  -0.33833
 Alpha  occ. eigenvalues --   -0.33630  -0.33267  -0.33093  -0.32720  -0.32495
 Alpha  occ. eigenvalues --   -0.32466  -0.31802  -0.31673  -0.31396  -0.30723
 Alpha  occ. eigenvalues --   -0.30615  -0.30293  -0.29908  -0.28949  -0.28347
 Alpha  occ. eigenvalues --   -0.28084  -0.27549  -0.26437  -0.24229  -0.22516
 Alpha  occ. eigenvalues --   -0.21163  -0.19067  -0.16527
 Alpha virt. eigenvalues --   -0.08347  -0.05165  -0.01692   0.00076   0.02123
 Alpha virt. eigenvalues --    0.03864   0.05529   0.06941   0.07301   0.07442
 Alpha virt. eigenvalues --    0.07840   0.08063   0.08649   0.08880   0.09050

 Mulliken charges:
               1
     1  C    0.008240
     2  C   -0.006601
     3  C   -0.176273
     4  C   -0.183432
     5  C   -0.192202
     6  C   -0.193205
     7  C    0.060274
     8  C    0.073097
     9  C   -0.228320
    10  C   -0.210522
    11  C    0.089592
    12  C    0.031912
    13  C   -0.289258
    14  C   -0.319025
    15  C   -0.291996
    16  C   -0.309355
    17  C   -0.156446
    18  C   -0.128156
    19  C   -0.341989
    20  C   -0.376293
    21  C   -0.079906
    22  C   -0.077724
    23  C    0.096364
    24  C    0.132225
    25  C   -0.360627
    26  C   -0.373414
    27  C   -0.077044
    28  C   -0.139199
    29  C   -0.091272
    30  C   -0.110618
    31  C   -0.083972
    32  C   -0.122461
    33  C    0.132246
    34  C    0.182235
    35  C   -0.381127
    36  C   -0.389561
    37  C   -0.136067
    38  C   -0.133202
    39  C   -0.096978
    40  C   -0.106072
    41  H    0.089605
    42  H    0.066914
    43  H    0.084625
    44  H    0.089446
    45  H    0.086384
    46  H    0.082295
    47  H    0.096847
    48  H    0.099529
    49  H    0.115833
    50  H    0.089216
    51  H    0.111628
    52  H    0.102137
    53  H    0.106163
    54  H    0.094691
    55  H    0.084277
    56  H    0.113099
    57  H    0.087075
    58  H    0.110027
    59  H    0.103250
    60  H    0.088567
    61  H    0.087588
    62  H    0.101591
    63  H    0.110784
    64  H    0.089348
    65  H    0.081806
    66  H    0.060136
    67  H    0.122021
    68  H    0.089951
    69  H    0.099160
    70  H    0.111390
    71  H    0.119271
    72  H    0.108345
    73  H    0.077459
    74  H    0.080813
    75  H    0.115401
    76  H    0.105697
    77  H    0.121395
    78  H    0.129598
    79  H    0.108932
    80  H    0.115280
    81  H    0.070919
    82  H    0.074072
    83  H    0.063536
    84  H    0.089010
    85  H    0.062088
    86  H    0.065528
    87  H    0.108456
    88  H    0.102320
    89  H    0.120485
    90  H    0.137623
    91  H    0.086505
    92  H    0.109730
    93  H    0.073706
    94  H    0.087260
    95  H    0.085004
    96  H    0.082319
 Sum of Mulliken charges =  -0.00000

 Dipole moment (field-independent basis, Debye):
    X=              0.3829    Y=              0.0812    Z=              0.0141  Tot=              0.3917
 Quadrupole moment (field-independent basis, Debye-Ang):
   XX=           -209.7275   YY=           -234.8801   ZZ=           -255.3177
   XY=             -4.7154   XZ=              1.3884   YZ=              0.9748

 Normal termination of Gaussian 16 at Mon Jul 29 15:23:33 2019.
