 Gaussian 16, Revision A.03,
 Gaussian 16:  ES64L-G16RevA.03 25-Dec-2016

 ---------------------------------
 # td=(NStates=1) B3LYP/6-31G(d,p)
 ---------------------------------

 --
 TD
 --
 Symbolic Z-matrix:
 Charge =  0 Multiplicity = 1

                         Standard orientation:
 ---------------------------------------------------------------------
 Center     Atomic      Atomic             Coordinates (Angstroms)
 Number     Number       Type             X           Y           Z
 ---------------------------------------------------------------------
      1          6           0       12.217380    0.538599   -0.540169
      2          6           0      -12.109602   -0.101761    0.840324
      3          6           0       13.511404   -0.235593   -0.425956
      4          6           0      -13.025816    1.086893    1.339739
      5          6           0       13.247846   -1.767898   -0.710489
      6          6           0      -13.515768    2.016708    0.159237
      7          6           0       11.072060    0.009096    0.332678
      8          6           0      -11.079123    0.473192   -0.164850
      9          6           0       12.330677   -2.258365    0.484948
     10          6           0      -12.379499    2.524664   -0.555655
     11          6           0       11.189548   -1.333917    0.775463
     12          6           0      -11.127089    1.603495   -0.707913
     13          6           0       11.739238    0.719606   -2.032664
     14          6           0       12.498249    1.959911   -0.033911
     15          6           0      -13.116459   -1.147835    0.160491
     16          6           0      -11.592519   -0.651852    2.111673
     17          6           0        9.936887    0.825671    0.460951
     18          6           0       -9.918921   -0.547132   -0.371133
     19          6           0       10.190209   -1.964233    1.666966
     20          6           0      -10.055630    2.212551   -1.680158
     21          6           0        8.566604    0.378971    0.312144
     22          6           0       -8.576509   -0.481277   -0.171228
     23          6           0        7.470648    1.276912    0.409065
     24          6           0       -7.478379   -1.462985   -0.316531
     25          6           0        7.561328    2.763147    0.720219
     26          6           0       -7.908578   -2.803327   -0.701859
     27          6           0        6.187372    0.809083    0.268323
     28          6           0       -6.275683   -0.983932   -0.210938
     29          6           0        4.945944    1.373101    0.205419
     30          6           0       -5.018854   -1.647338   -0.359249
     31          6           0        3.713560    0.720594    0.181677
     32          6           0       -3.757068   -1.029072   -0.351559
     33          6           0        2.457313    1.405752    0.252739
     34          6           0       -2.523848   -1.783986   -0.354046
     35          6           0        2.270766    2.898006    0.429075
     36          6           0       -2.496620   -3.207977   -0.533692
     37          6           0        1.240836    0.590780    0.153463
     38          6           0       -1.340251   -1.001957   -0.301074
     39          6           0        1.188428   -0.813328   -0.275024
     40          6           0        0.033676   -1.438106   -0.453125
     41          1           0       13.837442   -0.197574    0.559184
     42          1           0       14.325448    0.288411   -1.120260
     43          1           0      -12.531042    1.699794    2.027803
     44          1           0      -13.937675    0.706258    1.918085
     45          1           0       14.176925   -2.223546   -0.701880
     46          1           0       12.877408   -1.869508   -1.627103
     47          1           0      -14.222776    2.680397    0.354824
     48          1           0      -13.880000    1.294194   -0.666424
     49          1           0       12.833821   -2.231767    1.352593
     50          1           0       11.970935   -3.220583    0.384943
     51          1           0      -11.864744    3.492068    0.081746
     52          1           0      -12.790931    2.837135   -1.657322
     53          1           0       11.274749   -0.147764   -2.569960
     54          1           0       12.622759    0.965218   -2.671261
     55          1           0       10.864388    1.441470   -2.102087
     56          1           0       12.710764    1.972596    1.107757
     57          1           0       11.760636    2.581083   -0.389601
     58          1           0       13.562503    2.249485   -0.501824
     59          1           0      -13.481840   -0.939495   -0.823585
     60          1           0      -14.036629   -1.330936    0.823368
     61          1           0      -12.509459   -2.145681   -0.138903
     62          1           0      -10.814361   -0.008595    2.452946
     63          1           0      -11.117281   -1.853254    2.096108
     64          1           0      -12.397083   -0.560200    2.918193
     65          1           0       10.066853    1.791058    0.666389
     66          1           0      -10.205564   -1.367751   -0.683870
     67          1           0        9.515686   -1.216962    2.086978
     68          1           0       10.661234   -2.543438    2.391814
     69          1           0        9.292791   -2.594535    1.022793
     70          1           0       -9.185830    1.497152   -1.722050
     71          1           0       -9.861223    3.192355   -1.197543
     72          1           0      -10.503345    2.428285   -2.606269
     73          1           0        8.375490   -0.585987    0.234876
     74          1           0       -8.268336    0.596495    0.082398
     75          1           0        8.225362    3.019555    1.527262
     76          1           0        6.701220    3.582815    0.786835
     77          1           0        8.042766    3.122676   -0.147473
     78          1           0       -8.617327   -2.684018   -1.621567
     79          1           0       -8.476503   -3.318095    0.215342
     80          1           0       -7.006870   -3.251296   -0.984995
     81          1           0        6.081737   -0.297925    0.075412
     82          1           0       -6.163747    0.033202    0.122684
     83          1           0        4.906408    2.613907    0.119133
     84          1           0       -4.991419   -2.774660   -0.591933
     85          1           0        3.814507   -0.293166    0.038091
     86          1           0       -3.654397   -0.050879    0.121615
     87          1           0        2.747066    3.228503    1.497251
     88          1           0        1.191421    3.156110    0.274286
     89          1           0        2.854083    3.422674   -0.411388
     90          1           0       -2.833163   -3.512849   -1.578989
     91          1           0       -3.273670   -3.442823    0.416825
     92          1           0       -1.675112   -3.601627   -0.412802
     93          1           0        0.334291    1.252863    0.305161
     94          1           0       -1.324602    0.030001   -0.146284
     95          1           0        2.105168   -1.627308   -0.297041
     96          1           0        0.248541   -2.432695   -0.770505
 ---------------------------------------------------------------------

 SCF Done:  E(RB3LYP) =  -1557.52552512     A.U. after   16 cycles

 Excitation energies and oscillator strengths:

 Excited State   1:      Singlet-A      2.0343 eV  609.46 nm  f=2.9426  <S**2>=0.000
     148 ->149         0.70844
     148 <-149        -0.12481
 This state for optimization and/or second-order correction.
 Total Energy, E(TD-HF/TD-DFT) =  -1557.45076477
 Copying the excited state density for this state as the 1-particle RhoCI density.

 The electronic state is 1-A.
 Alpha  occ. eigenvalues --  -10.20685 -10.20504 -10.20459 -10.20280 -10.20215
 Alpha  occ. eigenvalues --  -10.20169 -10.20127 -10.20090 -10.19606 -10.19479
 Alpha  occ. eigenvalues --  -10.19323 -10.19190 -10.19120 -10.19034 -10.18937
 Alpha  occ. eigenvalues --  -10.18615 -10.18609 -10.18535 -10.18524 -10.18408
 Alpha  occ. eigenvalues --  -10.18398 -10.18345 -10.18310 -10.18263 -10.18213
 Alpha  occ. eigenvalues --  -10.18175 -10.18146 -10.18136 -10.17988 -10.17971
 Alpha  occ. eigenvalues --  -10.17920 -10.17902 -10.17822 -10.17806 -10.17655
 Alpha  occ. eigenvalues --  -10.17570 -10.17246 -10.16974 -10.16839 -10.16730
 Alpha  occ. eigenvalues --   -0.85073  -0.84996  -0.83859  -0.83096  -0.82692
 Alpha  occ. eigenvalues --   -0.81175  -0.79019  -0.78914  -0.78095  -0.77697
 Alpha  occ. eigenvalues --   -0.77293  -0.75185  -0.74621  -0.72424  -0.72047
 Alpha  occ. eigenvalues --   -0.69938  -0.69036  -0.68908  -0.68108  -0.67597
 Alpha  occ. eigenvalues --   -0.67473  -0.67216  -0.66902  -0.65946  -0.65527
 Alpha  occ. eigenvalues --   -0.63560  -0.62521  -0.60473  -0.59021  -0.57456
 Alpha  occ. eigenvalues --   -0.56737  -0.55653  -0.54758  -0.53713  -0.53036
 Alpha  occ. eigenvalues --   -0.52397  -0.52024  -0.51158  -0.49660  -0.49118
 Alpha  occ. eigenvalues --   -0.48280  -0.47861  -0.47769  -0.46597  -0.46202
 Alpha  occ. eigenvalues --   -0.45445  -0.44925  -0.44663  -0.44446  -0.43978
 Alpha  occ. eigenvalues --   -0.43710  -0.43295  -0.43192  -0.42642  -0.42324
 Alpha  occ. eigenvalues --   -0.41887  -0.41842  -0.41580  -0.41335  -0.41192
 Alpha  occ. eigenvalues --   -0.40581  -0.40338  -0.40241  -0.39974  -0.39379
 Alpha  occ. eigenvalues --   -0.39132  -0.39037  -0.38619  -0.38409  -0.38286
 Alpha  occ. eigenvalues --   -0.38040  -0.37886  -0.37623  -0.37466  -0.37429
 Alpha  occ. eigenvalues --   -0.37098  -0.36280  -0.35420  -0.35017  -0.34933
 Alpha  occ. eigenvalues --   -0.34611  -0.34432  -0.34174  -0.34031  -0.33628
 Alpha  occ. eigenvalues --   -0.33481  -0.33261  -0.32925  -0.32442  -0.32329
 Alpha  occ. eigenvalues --   -0.32157  -0.32138  -0.31901  -0.31336  -0.31047
 Alpha  occ. eigenvalues --   -0.30277  -0.30067  -0.29874  -0.29614  -0.28371
 Alpha  occ. eigenvalues --   -0.27676  -0.27493  -0.25687  -0.24402  -0.23003
 Alpha  occ. eigenvalues --   -0.21233  -0.18713  -0.15845
 Alpha virt. eigenvalues --   -0.08478  -0.05544  -0.01538   0.00815   0.03356
 Alpha virt. eigenvalues --    0.04473   0.05819   0.06133   0.06794   0.06955
 Alpha virt. eigenvalues --    0.07353   0.07819   0.08041   0.08259   0.09197

 Mulliken charges:
               1
     1  C   -0.000858
     2  C    0.012833
     3  C   -0.184564
     4  C   -0.193570
     5  C   -0.188364
     6  C   -0.166294
     7  C    0.098611
     8  C    0.060749
     9  C   -0.232508
    10  C   -0.184162
    11  C    0.049454
    12  C    0.054047
    13  C   -0.301511
    14  C   -0.287670
    15  C   -0.293080
    16  C   -0.277198
    17  C   -0.146127
    18  C   -0.130944
    19  C   -0.358171
    20  C   -0.345575
    21  C   -0.087381
    22  C   -0.093514
    23  C    0.133484
    24  C    0.143341
    25  C   -0.388558
    26  C   -0.363767
    27  C   -0.139390
    28  C   -0.108517
    29  C   -0.059849
    30  C   -0.121569
    31  C   -0.087639
    32  C   -0.105219
    33  C    0.097258
    34  C    0.094608
    35  C   -0.359881
    36  C   -0.321505
    37  C   -0.146707
    38  C   -0.100187
    39  C   -0.090501
    40  C   -0.080465
    41  H    0.100814
    42  H    0.066384
    43  H    0.100368
    44  H    0.077493
    45  H    0.091596
    46  H    0.111980
    47  H    0.100423
    48  H    0.084883
    49  H    0.125193
    50  H    0.110020
    51  H    0.047852
    52  H    0.073991
    53  H    0.097110
    54  H    0.095314
    55  H    0.097149
    56  H    0.090634
    57  H    0.110088
    58  H    0.069231
    59  H    0.110594
    60  H    0.096443
    61  H    0.071565
    62  H    0.116204
    63  H    0.057518
    64  H    0.096019
    65  H    0.081680
    66  H    0.058678
    67  H    0.124242
    68  H    0.108194
    69  H    0.071571
    70  H    0.115045
    71  H    0.108514
    72  H    0.118360
    73  H    0.073556
    74  H    0.056735
    75  H    0.121318
    76  H    0.106531
    77  H    0.129658
    78  H    0.112992
    79  H    0.113543
    80  H    0.113933
    81  H    0.054820
    82  H    0.079321
    83  H    0.047753
    84  H    0.080251
    85  H    0.077322
    86  H    0.085841
    87  H    0.108240
    88  H    0.109522
    89  H    0.118589
    90  H    0.117324
    91  H    0.095748
    92  H    0.112876
    93  H    0.082484
    94  H    0.069143
    95  H    0.085533
    96  H    0.062676
 Sum of Mulliken charges =  -0.00000

 Dipole moment (field-independent basis, Debye):
    X=              0.7699    Y=             -0.3373    Z=             -0.0374  Tot=              0.8413
 Quadrupole moment (field-independent basis, Debye-Ang):
   XX=           -216.2149   YY=           -236.7993   ZZ=           -253.4838
   XY=             -8.1748   XZ=              2.9340   YZ=              3.0057

 Normal termination of Gaussian 16 at Wed Jul 31 06:19:25 2019.
