 Gaussian 16, Revision A.03,
 Gaussian 16:  ES64L-G16RevA.03 25-Dec-2016

 ---------------------------------
 # td=(NStates=1) B3LYP/6-31G(d,p)
 ---------------------------------

 --
 TD
 --
 Symbolic Z-matrix:
 Charge =  0 Multiplicity = 1

                         Standard orientation:
 ---------------------------------------------------------------------
 Center     Atomic      Atomic             Coordinates (Angstroms)
 Number     Number       Type             X           Y           Z
 ---------------------------------------------------------------------
      1          6           0       12.181692   -0.725860    0.605648
      2          6           0      -12.048618   -0.112761   -0.784993
      3          6           0       13.476303    0.164986    0.594012
      4          6           0      -12.889400   -1.357678   -1.201775
      5          6           0       13.202936    1.661711    0.809841
      6          6           0      -13.305311   -2.250894   -0.068399
      7          6           0       11.026883   -0.083642   -0.198054
      8          6           0      -10.957649   -0.525408    0.186358
      9          6           0       12.364418    2.163719   -0.420367
     10          6           0      -12.134794   -2.762958    0.683244
     11          6           0       11.141268    1.230650   -0.685780
     12          6           0      -11.013900   -1.644319    0.854625
     13          6           0       11.720359   -0.817591    2.086945
     14          6           0       12.561636   -2.065735    0.130372
     15          6           0      -13.030974    0.919519   -0.223457
     16          6           0      -11.529249    0.513434   -2.129447
     17          6           0        9.836383   -0.887651   -0.305919
     18          6           0       -9.905265    0.580765    0.395207
     19          6           0       10.119778    1.813301   -1.705744
     20          6           0       -9.905093   -2.086094    1.929276
     21          6           0        8.534507   -0.575823   -0.349379
     22          6           0       -8.547575    0.332649    0.157494
     23          6           0        7.405395   -1.375545   -0.425128
     24          6           0       -7.554931    1.438955    0.338438
     25          6           0        7.633854   -2.767849   -0.653274
     26          6           0       -8.003262    2.825233    0.593666
     27          6           0        6.173362   -0.733363   -0.428299
     28          6           0       -6.287863    0.975279    0.262940
     29          6           0        4.793300   -1.255995   -0.351547
     30          6           0       -5.116822    1.738114    0.348950
     31          6           0        3.601833   -0.574014   -0.318303
     32          6           0       -3.848966    1.337658    0.083539
     33          6           0        2.309639   -1.182055   -0.389967
     34          6           0       -2.526706    2.063474    0.246145
     35          6           0        2.178054   -2.670354   -0.572086
     36          6           0       -2.452816    3.454227    0.790475
     37          6           0        1.279295   -0.405565   -0.249210
     38          6           0       -1.396673    1.373260    0.019069
     39          6           0        1.094248    0.984164   -0.054974
     40          6           0       -0.060935    1.732773    0.182897
     41          1           0       14.110929    0.070449   -0.271536
     42          1           0       14.027006   -0.340900    1.347255
     43          1           0      -12.034182   -1.857731   -1.906810
     44          1           0      -13.831996   -1.161730   -1.849217
     45          1           0       14.189454    2.119493    0.814497
     46          1           0       12.637746    1.774304    1.857911
     47          1           0      -13.718117   -3.132022   -0.544295
     48          1           0      -14.087718   -1.923854    0.577995
     49          1           0       12.968543    2.304194   -1.496799
     50          1           0       11.720996    3.208622   -0.304508
     51          1           0      -11.780756   -3.562604   -0.047928
     52          1           0      -12.329186   -2.992367    1.719458
     53          1           0       11.469032    0.099441    2.591484
     54          1           0       12.291992   -1.378131    2.668018
     55          1           0       10.733530   -1.300347    2.150302
     56          1           0       12.716173   -1.978147   -0.904781
     57          1           0       11.761677   -2.726842    0.424542
     58          1           0       13.485238   -2.313908    0.927940
     59          1           0      -13.836973    0.651894    0.623496
     60          1           0      -13.603462    1.331440   -0.989559
     61          1           0      -12.469186    1.912947    0.371947
     62          1           0      -10.582852   -0.047815   -2.315232
     63          1           0      -11.272955    1.451728   -2.111659
     64          1           0      -12.360587    0.559532   -2.886014
     65          1           0       10.035615   -1.975365   -0.327719
     66          1           0      -10.305909    1.467359    0.450349
     67          1           0        9.539803    1.092116   -2.176280
     68          1           0       10.727073    2.135299   -2.504640
     69          1           0        9.470368    2.494601   -1.091764
     70          1           0       -9.431537   -1.247017    2.201950
     71          1           0       -9.083723   -2.902157    1.719804
     72          1           0      -10.215410   -2.312494    2.935674
     73          1           0        8.114284    0.586366   -0.300362
     74          1           0       -8.247976   -0.476340   -0.183873
     75          1           0        8.376206   -2.840716   -1.568474
     76          1           0        6.748761   -3.399781   -1.071576
     77          1           0        8.009461   -3.463518    0.280658
     78          1           0       -8.534771    2.971211    1.646454
     79          1           0       -8.556350    3.231630   -0.192764
     80          1           0       -7.160775    3.381765    0.841782
     81          1           0        6.208855    0.484497   -0.563118
     82          1           0       -6.021725    0.031502    0.112605
     83          1           0        4.851804   -2.324200   -0.300569
     84          1           0       -4.998379    2.999558    0.470926
     85          1           0        3.783550    0.421119   -0.423309
     86          1           0       -3.722904    0.297191   -0.078533
     87          1           0        2.817165   -3.183122   -1.434124
     88          1           0        1.203020   -2.989377   -0.555424
     89          1           0        2.461721   -3.130284    0.253635
     90          1           0       -3.298798    3.422895    1.717845
     91          1           0       -3.085041    4.372632    0.286388
     92          1           0       -1.421424    3.852339    0.939390
     93          1           0        0.263769   -0.948940   -0.451568
     94          1           0       -1.635589    0.361240   -0.374428
     95          1           0        2.093836    1.438870    0.278859
     96          1           0        0.100619    2.727178    0.317456
 ---------------------------------------------------------------------

 SCF Done:  E(RB3LYP) =  -1557.51002941     A.U. after   15 cycles

 Excitation energies and oscillator strengths:

 Excited State   1:      Singlet-A      2.2331 eV  555.21 nm  f=2.8509  <S**2>=0.000
     148 ->149         0.70664
 This state for optimization and/or second-order correction.
 Total Energy, E(TD-HF/TD-DFT) =  -1557.42796381
 Copying the excited state density for this state as the 1-particle RhoCI density.

 The electronic state is 1-A.
 Alpha  occ. eigenvalues --  -10.21701 -10.21134 -10.20696 -10.20455 -10.20392
 Alpha  occ. eigenvalues --  -10.20127 -10.20009 -10.19939 -10.19734 -10.19681
 Alpha  occ. eigenvalues --  -10.19529 -10.19525 -10.19475 -10.19198 -10.19107
 Alpha  occ. eigenvalues --  -10.19081 -10.19063 -10.18915 -10.18905 -10.18713
 Alpha  occ. eigenvalues --  -10.18505 -10.18376 -10.18311 -10.18306 -10.18296
 Alpha  occ. eigenvalues --  -10.18161 -10.18131 -10.18103 -10.18100 -10.18069
 Alpha  occ. eigenvalues --  -10.17991 -10.17783 -10.17753 -10.17418 -10.16995
 Alpha  occ. eigenvalues --  -10.16986 -10.16865 -10.16614 -10.16536 -10.15375
 Alpha  occ. eigenvalues --   -0.84812  -0.84740  -0.84257  -0.83653  -0.83036
 Alpha  occ. eigenvalues --   -0.82338  -0.78757  -0.78106  -0.77802  -0.77342
 Alpha  occ. eigenvalues --   -0.76736  -0.75670  -0.74723  -0.72305  -0.72196
 Alpha  occ. eigenvalues --   -0.71201  -0.69461  -0.68843  -0.68270  -0.68151
 Alpha  occ. eigenvalues --   -0.67785  -0.67393  -0.66765  -0.66291  -0.66131
 Alpha  occ. eigenvalues --   -0.63454  -0.62304  -0.60350  -0.58784  -0.58080
 Alpha  occ. eigenvalues --   -0.56756  -0.55428  -0.55244  -0.54710  -0.53843
 Alpha  occ. eigenvalues --   -0.52721  -0.51998  -0.50271  -0.49850  -0.48650
 Alpha  occ. eigenvalues --   -0.48294  -0.47967  -0.47372  -0.47142  -0.46121
 Alpha  occ. eigenvalues --   -0.45774  -0.45311  -0.44792  -0.44680  -0.44335
 Alpha  occ. eigenvalues --   -0.43725  -0.43374  -0.43278  -0.43149  -0.42797
 Alpha  occ. eigenvalues --   -0.42719  -0.42108  -0.41533  -0.41288  -0.41064
 Alpha  occ. eigenvalues --   -0.40564  -0.40056  -0.39571  -0.39404  -0.39114
 Alpha  occ. eigenvalues --   -0.38910  -0.38813  -0.38304  -0.38043  -0.37963
 Alpha  occ. eigenvalues --   -0.37608  -0.37399  -0.37352  -0.36995  -0.36967
 Alpha  occ. eigenvalues --   -0.36903  -0.35507  -0.35418  -0.35338  -0.35014
 Alpha  occ. eigenvalues --   -0.34941  -0.34517  -0.34413  -0.33825  -0.33790
 Alpha  occ. eigenvalues --   -0.33527  -0.33400  -0.33241  -0.32384  -0.32113
 Alpha  occ. eigenvalues --   -0.32071  -0.31955  -0.31666  -0.31222  -0.30901
 Alpha  occ. eigenvalues --   -0.30721  -0.29964  -0.29714  -0.29428  -0.28172
 Alpha  occ. eigenvalues --   -0.28068  -0.27116  -0.26656  -0.24438  -0.23315
 Alpha  occ. eigenvalues --   -0.21279  -0.18895  -0.16767
 Alpha virt. eigenvalues --   -0.08174  -0.05266  -0.02276   0.01045   0.02618
 Alpha virt. eigenvalues --    0.04482   0.05381   0.06400   0.06774   0.07287
 Alpha virt. eigenvalues --    0.07347   0.07509   0.08612   0.08848   0.09173

 Mulliken charges:
               1
     1  C   -0.028804
     2  C   -0.000721
     3  C   -0.161110
     4  C   -0.162072
     5  C   -0.185506
     6  C   -0.187059
     7  C    0.108180
     8  C    0.065965
     9  C   -0.193625
    10  C   -0.196932
    11  C    0.005474
    12  C    0.026502
    13  C   -0.308350
    14  C   -0.275802
    15  C   -0.275649
    16  C   -0.302430
    17  C   -0.163100
    18  C   -0.129862
    19  C   -0.347422
    20  C   -0.371488
    21  C   -0.075537
    22  C   -0.039271
    23  C    0.198269
    24  C    0.110364
    25  C   -0.390778
    26  C   -0.373868
    27  C   -0.158202
    28  C   -0.106235
    29  C   -0.084536
    30  C   -0.066961
    31  C   -0.111341
    32  C   -0.130791
    33  C    0.151419
    34  C    0.160502
    35  C   -0.368032
    36  C   -0.380909
    37  C   -0.127239
    38  C   -0.106775
    39  C   -0.093683
    40  C   -0.090667
    41  H    0.088204
    42  H    0.085880
    43  H    0.067093
    44  H    0.076263
    45  H    0.097794
    46  H    0.092566
    47  H    0.092479
    48  H    0.101395
    49  H    0.081797
    50  H    0.082220
    51  H    0.102417
    52  H    0.104198
    53  H    0.102913
    54  H    0.102047
    55  H    0.097327
    56  H    0.112956
    57  H    0.105198
    58  H    0.066426
    59  H    0.080289
    60  H    0.110902
    61  H    0.045558
    62  H    0.101368
    63  H    0.109677
    64  H    0.094952
    65  H    0.076239
    66  H    0.083153
    67  H    0.126194
    68  H    0.109792
    69  H    0.114593
    70  H    0.125870
    71  H    0.093359
    72  H    0.099216
    73  H    0.050829
    74  H    0.063410
    75  H    0.115205
    76  H    0.099910
    77  H    0.099989
    78  H    0.104443
    79  H    0.134579
    80  H    0.122203
    81  H    0.055356
    82  H    0.077628
    83  H    0.068067
    84  H    0.046472
    85  H    0.081617
    86  H    0.068321
    87  H    0.102067
    88  H    0.110546
    89  H    0.140519
    90  H    0.096932
    91  H    0.099332
    92  H    0.120550
    93  H    0.053509
    94  H    0.074819
    95  H    0.073806
    96  H    0.077642
 Sum of Mulliken charges =  -0.00000

 Dipole moment (field-independent basis, Debye):
    X=             -0.1892    Y=             -0.1575    Z=             -0.1307  Tot=              0.2787
 Quadrupole moment (field-independent basis, Debye-Ang):
   XX=           -220.1151   YY=           -236.8422   ZZ=           -253.3983
   XY=             -5.6653   XZ=             -0.7000   YZ=              0.7869

 Normal termination of Gaussian 16 at Mon Jul 29 03:29:01 2019.
