 Gaussian 16, Revision A.03,
 Gaussian 16:  ES64L-G16RevA.03 25-Dec-2016

 ---------------------------------
 # td=(NStates=1) B3LYP/6-31G(d,p)
 ---------------------------------

 --
 TD
 --
 Symbolic Z-matrix:
 Charge =  0 Multiplicity = 1

                         Standard orientation:
 ---------------------------------------------------------------------
 Center     Atomic      Atomic             Coordinates (Angstroms)
 Number     Number       Type             X           Y           Z
 ---------------------------------------------------------------------
      1          6           0       12.175088   -0.580821    0.787275
      2          6           0      -12.159907   -0.007513   -0.795545
      3          6           0       13.373433    0.247727    0.783934
      4          6           0      -13.038886   -1.243331   -0.998650
      5          6           0       13.131653    1.767049    0.855175
      6          6           0      -13.293157   -2.033955    0.087382
      7          6           0       10.970017    0.121527   -0.053998
      8          6           0      -11.033247   -0.335205    0.233544
      9          6           0       12.165546    2.146643   -0.277507
     10          6           0      -12.122315   -2.513987    0.866614
     11          6           0       11.106753    1.298376   -0.661282
     12          6           0      -11.027430   -1.463727    1.122406
     13          6           0       11.705921   -0.623038    2.399797
     14          6           0       12.496453   -2.044674    0.337364
     15          6           0      -12.969171    1.057899   -0.098204
     16          6           0      -11.569176    0.376710   -2.164441
     17          6           0        9.863988   -0.851763   -0.239779
     18          6           0       -9.881677    0.673072    0.190829
     19          6           0       10.116306    1.809287   -1.695149
     20          6           0      -10.004652   -1.814487    2.165548
     21          6           0        8.496881   -0.556563   -0.312670
     22          6           0       -8.478416    0.338990    0.274698
     23          6           0        7.362080   -1.367349   -0.505018
     24          6           0       -7.502345    1.322547    0.334509
     25          6           0        7.521891   -2.767732   -0.967727
     26          6           0       -7.837310    2.758759    0.423236
     27          6           0        6.105313   -0.782638   -0.596772
     28          6           0       -6.223762    0.901583    0.249925
     29          6           0        4.876106   -1.327516   -0.636618
     30          6           0       -4.935231    1.566056    0.327826
     31          6           0        3.622153   -0.715431   -0.526842
     32          6           0       -3.758535    1.024429    0.249859
     33          6           0        2.356058   -1.278314   -0.565955
     34          6           0       -2.488033    1.789131    0.221702
     35          6           0        2.277445   -2.722003   -0.888388
     36          6           0       -2.610696    3.208965    0.359735
     37          6           0        1.213532   -0.573859   -0.398900
     38          6           0       -1.286960    1.048462    0.149206
     39          6           0        1.159379    0.816519   -0.138789
     40          6           0        0.065938    1.537057    0.145828
     41          1           0       13.954642   -0.058849   -0.085030
     42          1           0       14.166214    0.004288    1.479947
     43          1           0      -12.663063   -1.830734   -1.874587
     44          1           0      -14.108042   -0.958438   -1.324374
     45          1           0       14.026710    2.383692    1.000493
     46          1           0       12.821356    2.225882    1.939250
     47          1           0      -14.007348   -2.887306   -0.143391
     48          1           0      -13.861002   -1.299461    0.756922
     49          1           0       12.757744    2.416877   -1.165209
     50          1           0       11.887325    3.212381   -0.116589
     51          1           0      -11.785658   -3.314173    0.222772
     52          1           0      -12.356142   -2.854612    1.693255
     53          1           0       11.360002    0.415297    2.402444
     54          1           0       12.553785   -0.969987    3.012023
     55          1           0       10.821268   -1.164192    2.574431
     56          1           0       12.940942   -2.045089   -0.772582
     57          1           0       11.611880   -2.644620    0.468902
     58          1           0       13.510911   -2.322550    0.913811
     59          1           0      -13.387071    0.642063    0.966141
     60          1           0      -13.599381    1.451280   -0.835288
     61          1           0      -12.334960    2.018711    0.146678
     62          1           0      -10.890943   -0.380766   -2.905087
     63          1           0      -10.997139    1.381069   -2.099060
     64          1           0      -12.489597    0.687767   -2.890925
     65          1           0       10.244512   -1.831051   -0.344016
     66          1           0       -9.907991    1.838427   -0.180077
     67          1           0        9.386551    0.974510   -1.940683
     68          1           0       10.682961    2.306337   -2.497226
     69          1           0        9.443163    2.564937   -1.388851
     70          1           0       -9.460207   -0.970791    2.789290
     71          1           0       -9.096694   -2.480869    1.476313
     72          1           0      -10.305145   -2.263416    2.913198
     73          1           0        8.249705    0.488695   -0.153517
     74          1           0       -8.028419   -0.693536    0.374076
     75          1           0        8.156176   -2.750179   -1.839328
     76          1           0        6.609497   -3.346868   -1.271492
     77          1           0        8.159609   -3.291749   -0.253565
     78          1           0       -8.575559    2.984904    1.012593
     79          1           0       -8.443416    2.996854   -0.484158
     80          1           0       -6.970907    3.580615    0.457356
     81          1           0        6.106102    0.393601   -0.389493
     82          1           0       -6.029004   -0.349870    0.208623
     83          1           0        4.762932   -2.508412   -0.953422
     84          1           0       -5.051552    2.489473    0.452403
     85          1           0        3.757284    0.381251   -0.250378
     86          1           0       -3.669881   -0.094921    0.151602
     87          1           0        2.736822   -3.029917   -1.817132
     88          1           0        1.303230   -3.067901   -0.741863
     89          1           0        2.919200   -3.198872   -0.229954
     90          1           0       -2.804213    3.310379    1.532385
     91          1           0       -3.497534    3.806566   -0.208515
     92          1           0       -1.532880    3.735987    0.001877
     93          1           0        0.269882   -1.319428   -0.512126
     94          1           0       -1.217044   -0.127130    0.020821
     95          1           0        2.047380    1.536537    0.075341
     96          1           0        0.176840    2.586044    0.360001
 ---------------------------------------------------------------------

 SCF Done:  E(RB3LYP) =  -1557.47078295     A.U. after   16 cycles

 Excitation energies and oscillator strengths:

 Excited State   1:      Singlet-A      2.0079 eV  617.49 nm  f=2.6650  <S**2>=0.000
     147 ->149         0.14997
     148 ->149         0.69463
 This state for optimization and/or second-order correction.
 Total Energy, E(TD-HF/TD-DFT) =  -1557.39699480
 Copying the excited state density for this state as the 1-particle RhoCI density.

 The electronic state is 1-A.
 Alpha  occ. eigenvalues --  -10.21496 -10.20446 -10.20432 -10.20419 -10.20325
 Alpha  occ. eigenvalues --  -10.20286 -10.20089 -10.19964 -10.19927 -10.19770
 Alpha  occ. eigenvalues --  -10.19733 -10.19462 -10.19452 -10.19439 -10.19379
 Alpha  occ. eigenvalues --  -10.19220 -10.19179 -10.19142 -10.19032 -10.19029
 Alpha  occ. eigenvalues --  -10.18912 -10.18786 -10.18759 -10.18744 -10.18737
 Alpha  occ. eigenvalues --  -10.18706 -10.18550 -10.18279 -10.18273 -10.18110
 Alpha  occ. eigenvalues --  -10.18093 -10.17961 -10.17691 -10.17166 -10.17123
 Alpha  occ. eigenvalues --  -10.17032 -10.16525 -10.16426 -10.16385 -10.15847
 Alpha  occ. eigenvalues --   -0.85563  -0.85185  -0.84336  -0.83835  -0.82857
 Alpha  occ. eigenvalues --   -0.82176  -0.79429  -0.78915  -0.78806  -0.77506
 Alpha  occ. eigenvalues --   -0.77174  -0.75723  -0.74986  -0.71747  -0.71567
 Alpha  occ. eigenvalues --   -0.70549  -0.69530  -0.68975  -0.68835  -0.68226
 Alpha  occ. eigenvalues --   -0.67275  -0.67044  -0.66933  -0.66618  -0.66008
 Alpha  occ. eigenvalues --   -0.63898  -0.61966  -0.60247  -0.58698  -0.57305
 Alpha  occ. eigenvalues --   -0.56648  -0.55757  -0.54907  -0.53903  -0.53075
 Alpha  occ. eigenvalues --   -0.51870  -0.51190  -0.50762  -0.49737  -0.48914
 Alpha  occ. eigenvalues --   -0.48486  -0.47530  -0.47199  -0.46638  -0.46349
 Alpha  occ. eigenvalues --   -0.45819  -0.45693  -0.45256  -0.44708  -0.44011
 Alpha  occ. eigenvalues --   -0.43420  -0.43180  -0.42630  -0.42296  -0.42211
 Alpha  occ. eigenvalues --   -0.41855  -0.41679  -0.41605  -0.41546  -0.41221
 Alpha  occ. eigenvalues --   -0.40954  -0.40880  -0.40689  -0.39770  -0.39595
 Alpha  occ. eigenvalues --   -0.39224  -0.38974  -0.38741  -0.38343  -0.37947
 Alpha  occ. eigenvalues --   -0.37688  -0.37399  -0.37038  -0.36957  -0.36892
 Alpha  occ. eigenvalues --   -0.36341  -0.36127  -0.35910  -0.35648  -0.35053
 Alpha  occ. eigenvalues --   -0.34900  -0.34711  -0.34489  -0.34014  -0.33590
 Alpha  occ. eigenvalues --   -0.33396  -0.33254  -0.33055  -0.32782  -0.32446
 Alpha  occ. eigenvalues --   -0.32267  -0.31647  -0.31300  -0.30798  -0.30629
 Alpha  occ. eigenvalues --   -0.30362  -0.29538  -0.29058  -0.28825  -0.28619
 Alpha  occ. eigenvalues --   -0.27863  -0.27164  -0.26273  -0.23898  -0.22759
 Alpha  occ. eigenvalues --   -0.20769  -0.18053  -0.16049
 Alpha virt. eigenvalues --   -0.08490  -0.05634  -0.02261   0.00709   0.02294
 Alpha virt. eigenvalues --    0.04543   0.05730   0.06275   0.06776   0.07315
 Alpha virt. eigenvalues --    0.07578   0.07738   0.08098   0.08283   0.08340

 Mulliken charges:
               1
     1  C   -0.000999
     2  C    0.014655
     3  C   -0.168946
     4  C   -0.140286
     5  C   -0.191031
     6  C   -0.192984
     7  C    0.021100
     8  C    0.058545
     9  C   -0.238445
    10  C   -0.165541
    11  C    0.137717
    12  C    0.021029
    13  C   -0.305989
    14  C   -0.300817
    15  C   -0.286819
    16  C   -0.292471
    17  C   -0.129638
    18  C   -0.157953
    19  C   -0.376547
    20  C   -0.310538
    21  C   -0.121270
    22  C   -0.090479
    23  C    0.141645
    24  C    0.185627
    25  C   -0.381131
    26  C   -0.389173
    27  C   -0.132985
    28  C   -0.164584
    29  C   -0.065320
    30  C   -0.012373
    31  C   -0.108346
    32  C   -0.098668
    33  C    0.137570
    34  C    0.125401
    35  C   -0.383262
    36  C   -0.370933
    37  C   -0.137555
    38  C   -0.106289
    39  C   -0.077997
    40  C   -0.098820
    41  H    0.088633
    42  H    0.086068
    43  H    0.080862
    44  H    0.075690
    45  H    0.093001
    46  H    0.071104
    47  H    0.081299
    48  H    0.072336
    49  H    0.101866
    50  H    0.100370
    51  H    0.102307
    52  H    0.094910
    53  H    0.111476
    54  H    0.097034
    55  H    0.101685
    56  H    0.083618
    57  H    0.114822
    58  H    0.086516
    59  H    0.103665
    60  H    0.107747
    61  H    0.086956
    62  H    0.095550
    63  H    0.091590
    64  H    0.072107
    65  H    0.076904
    66  H    0.058935
    67  H    0.119671
    68  H    0.102449
    69  H    0.120935
    70  H    0.102713
    71  H    0.074778
    72  H    0.115159
    73  H    0.083906
    74  H    0.083078
    75  H    0.130169
    76  H    0.110191
    77  H    0.113845
    78  H    0.138397
    79  H    0.116933
    80  H    0.100562
    81  H    0.058395
    82  H    0.034011
    83  H    0.048615
    84  H    0.037179
    85  H    0.067761
    86  H    0.070683
    87  H    0.125518
    88  H    0.102929
    89  H    0.129245
    90  H    0.121757
    91  H    0.111043
    92  H    0.087446
    93  H    0.079725
    94  H    0.070254
    95  H    0.089650
    96  H    0.070856
 Sum of Mulliken charges =  -0.00000

 Dipole moment (field-independent basis, Debye):
    X=              0.3127    Y=              0.3947    Z=              0.0614  Tot=              0.5073
 Quadrupole moment (field-independent basis, Debye-Ang):
   XX=           -210.4032   YY=           -232.2339   ZZ=           -255.5347
   XY=              5.5993   XZ=             -4.6292   YZ=              0.9932

 Normal termination of Gaussian 16 at Sun Jul 28 21:30:34 2019.
