 Gaussian 16, Revision A.03,
 Gaussian 16:  ES64L-G16RevA.03 25-Dec-2016

 ---------------------------------
 # td=(NStates=1) B3LYP/6-31G(d,p)
 ---------------------------------

 --
 TD
 --
 Symbolic Z-matrix:
 Charge =  0 Multiplicity = 1

                         Standard orientation:
 ---------------------------------------------------------------------
 Center     Atomic      Atomic             Coordinates (Angstroms)
 Number     Number       Type             X           Y           Z
 ---------------------------------------------------------------------
      1          6           0       12.028864    0.524381   -0.857414
      2          6           0      -12.175601   -0.112856    0.656275
      3          6           0       13.342526   -0.229082   -0.907794
      4          6           0      -13.102876    1.097227    0.990726
      5          6           0       13.097480   -1.720481   -0.823128
      6          6           0      -13.281455    2.082186   -0.133669
      7          6           0       11.089060   -0.028297    0.302443
      8          6           0      -10.936745    0.434675   -0.052155
      9          6           0       12.406814   -2.128553    0.444855
     10          6           0      -11.960262    2.656146   -0.670464
     11          6           0       11.176779   -1.229562    0.722865
     12          6           0      -10.860612    1.678406   -0.639882
     13          6           0       11.296201    0.582942   -2.187777
     14          6           0       12.488569    1.961726   -0.500877
     15          6           0      -12.859554   -1.122471   -0.130177
     16          6           0      -11.739849   -0.766537    1.997081
     17          6           0        9.931386    0.786011    0.484758
     18          6           0       -9.813974   -0.404786   -0.342563
     19          6           0       10.188852   -1.746793    1.775877
     20          6           0       -9.845989    2.201099   -1.555203
     21          6           0        8.632571    0.453183    0.427853
     22          6           0       -8.524161   -0.211878   -0.118389
     23          6           0        7.423518    1.355361    0.587655
     24          6           0       -7.567168   -1.218085   -0.344449
     25          6           0        7.675281    2.851646    1.006845
     26          6           0       -7.962018   -2.646940   -0.569048
     27          6           0        6.178506    0.845328    0.297459
     28          6           0       -6.230117   -0.985032   -0.262704
     29          6           0        4.843160    1.415360    0.390431
     30          6           0       -5.009967   -1.754211   -0.340622
     31          6           0        3.723079    0.748711    0.154783
     32          6           0       -3.730890   -1.173478   -0.135525
     33          6           0        2.356038    1.233234    0.425431
     34          6           0       -2.527336   -1.904035   -0.195076
     35          6           0        2.248721    2.648025    0.768405
     36          6           0       -2.526702   -3.420514   -0.453096
     37          6           0        1.185752    0.411224    0.300802
     38          6           0       -1.398013   -1.124074    0.002067
     39          6           0        1.119765   -0.855637   -0.139045
     40          6           0       -0.013950   -1.592964   -0.118688
     41          1           0       13.799818    0.158012   -0.134781
     42          1           0       14.015211   -0.087796   -1.864294
     43          1           0      -12.807329    1.659704    1.888812
     44          1           0      -14.344307    0.771791    0.915117
     45          1           0       13.993071   -2.310922   -1.051766
     46          1           0       12.325597   -1.894005   -1.665345
     47          1           0      -13.986247    2.788266    0.082998
     48          1           0      -13.681080    1.445362   -1.080206
     49          1           0       13.077673   -2.299903    1.215002
     50          1           0       11.977665   -3.159000    0.435797
     51          1           0      -11.813726    3.624009    0.067111
     52          1           0      -11.832644    3.196160   -1.703272
     53          1           0       11.125105   -0.389191   -2.117687
     54          1           0       12.003496    0.961841   -3.110174
     55          1           0       10.309722    1.139987   -2.255195
     56          1           0       13.084530    1.952950    0.498693
     57          1           0       11.581334    2.668395   -0.390461
     58          1           0       13.162424    2.386698   -1.254001
     59          1           0      -13.592401   -1.073900   -1.103249
     60          1           0      -13.698911   -1.454308    0.386651
     61          1           0      -12.251940   -2.034564   -0.393873
     62          1           0      -11.098335    0.189100    2.535320
     63          1           0      -11.128282   -1.589190    2.031549
     64          1           0      -12.617085   -0.891378    2.456129
     65          1           0       10.092211    1.886377    0.536894
     66          1           0      -10.132002   -1.489031   -0.551497
     67          1           0        9.585418   -0.953979    2.174216
     68          1           0       10.610588   -2.299918    2.752793
     69          1           0        9.560662   -2.404393    1.324026
     70          1           0       -9.427635    1.431024   -2.041015
     71          1           0       -9.014077    2.806567   -1.231411
     72          1           0      -10.339563    2.764356   -2.197199
     73          1           0        8.302355   -0.378819    0.104871
     74          1           0       -8.245162    0.705904    0.465011
     75          1           0        8.028295    2.760688    2.153312
     76          1           0        6.586456    3.500372    0.922774
     77          1           0        8.350854    3.310696    0.431112
     78          1           0       -8.670638   -2.798362   -1.374785
     79          1           0       -8.419680   -3.102159    0.361910
     80          1           0       -7.170803   -3.267770   -0.843415
     81          1           0        6.143077   -0.091256    0.113449
     82          1           0       -5.986705    0.139841    0.080885
     83          1           0        4.956986    2.542865    0.489677
     84          1           0       -4.813086   -2.787600   -0.820376
     85          1           0        3.763548   -0.260814    0.020220
     86          1           0       -3.824834   -0.063756    0.231493
     87          1           0        2.821573    2.867662    1.732656
     88          1           0        1.273267    3.081899    0.806273
     89          1           0        2.710536    3.377766   -0.036704
     90          1           0       -3.359597   -3.397463   -1.111052
     91          1           0       -2.644804   -4.066857    0.613057
     92          1           0       -1.444483   -3.678885   -0.720893
     93          1           0        0.255469    0.893428    0.206131
     94          1           0       -1.508890   -0.283721    0.525429
     95          1           0        2.077088   -1.481268   -0.397179
     96          1           0        0.086095   -2.565156   -0.662720
 ---------------------------------------------------------------------

 SCF Done:  E(RB3LYP) =  -1557.48554606     A.U. after   16 cycles

 Excitation energies and oscillator strengths:

 Excited State   1:      Singlet-A      2.1060 eV  588.72 nm  f=3.0082  <S**2>=0.000
     148 ->149         0.70643
     148 <-149        -0.11798
 This state for optimization and/or second-order correction.
 Total Energy, E(TD-HF/TD-DFT) =  -1557.40815199
 Copying the excited state density for this state as the 1-particle RhoCI density.

 The electronic state is 1-A.
 Alpha  occ. eigenvalues --  -10.20821 -10.20809 -10.20537 -10.20521 -10.20343
 Alpha  occ. eigenvalues --  -10.20203 -10.20019 -10.19972 -10.19697 -10.19648
 Alpha  occ. eigenvalues --  -10.19475 -10.19231 -10.19201 -10.18869 -10.18809
 Alpha  occ. eigenvalues --  -10.18699 -10.18621 -10.18513 -10.18464 -10.18296
 Alpha  occ. eigenvalues --  -10.18212 -10.18133 -10.18051 -10.18039 -10.18036
 Alpha  occ. eigenvalues --  -10.18027 -10.18024 -10.17984 -10.17976 -10.17864
 Alpha  occ. eigenvalues --  -10.17841 -10.17704 -10.17704 -10.17582 -10.17440
 Alpha  occ. eigenvalues --  -10.17423 -10.17247 -10.17185 -10.16922 -10.14334
 Alpha  occ. eigenvalues --   -0.86257  -0.85984  -0.83883  -0.83161  -0.82501
 Alpha  occ. eigenvalues --   -0.81608  -0.80359  -0.79893  -0.78828  -0.77816
 Alpha  occ. eigenvalues --   -0.77431  -0.75391  -0.74654  -0.73073  -0.71889
 Alpha  occ. eigenvalues --   -0.70289  -0.69281  -0.68930  -0.68773  -0.68640
 Alpha  occ. eigenvalues --   -0.68234  -0.68062  -0.67083  -0.66816  -0.66240
 Alpha  occ. eigenvalues --   -0.63080  -0.62085  -0.59878  -0.59251  -0.57807
 Alpha  occ. eigenvalues --   -0.57454  -0.55655  -0.54997  -0.54180  -0.53344
 Alpha  occ. eigenvalues --   -0.52458  -0.51651  -0.50910  -0.50271  -0.49984
 Alpha  occ. eigenvalues --   -0.48873  -0.47922  -0.47331  -0.47193  -0.46765
 Alpha  occ. eigenvalues --   -0.46089  -0.45776  -0.45455  -0.45191  -0.44349
 Alpha  occ. eigenvalues --   -0.43923  -0.43551  -0.42860  -0.42635  -0.42438
 Alpha  occ. eigenvalues --   -0.42041  -0.41731  -0.41436  -0.41313  -0.41242
 Alpha  occ. eigenvalues --   -0.40939  -0.40844  -0.40513  -0.40123  -0.39591
 Alpha  occ. eigenvalues --   -0.39246  -0.39015  -0.38691  -0.38566  -0.38342
 Alpha  occ. eigenvalues --   -0.38196  -0.37747  -0.37572  -0.37427  -0.36716
 Alpha  occ. eigenvalues --   -0.36546  -0.36201  -0.35939  -0.35744  -0.35113
 Alpha  occ. eigenvalues --   -0.34978  -0.34686  -0.34428  -0.34036  -0.33947
 Alpha  occ. eigenvalues --   -0.33901  -0.33653  -0.32694  -0.32323  -0.32046
 Alpha  occ. eigenvalues --   -0.31850  -0.31632  -0.31574  -0.30859  -0.30408
 Alpha  occ. eigenvalues --   -0.30316  -0.30030  -0.29687  -0.28868  -0.28642
 Alpha  occ. eigenvalues --   -0.28455  -0.27947  -0.26415  -0.25041  -0.23021
 Alpha  occ. eigenvalues --   -0.21245  -0.19257  -0.16160
 Alpha virt. eigenvalues --   -0.08474  -0.05022  -0.01906   0.00232   0.02693
 Alpha virt. eigenvalues --    0.03906   0.05808   0.06219   0.06401   0.06818
 Alpha virt. eigenvalues --    0.07313   0.08047   0.08272   0.08951   0.09075

 Mulliken charges:
               1
     1  C   -0.031466
     2  C   -0.001751
     3  C   -0.135199
     4  C   -0.170779
     5  C   -0.201057
     6  C   -0.178211
     7  C    0.107688
     8  C    0.082068
     9  C   -0.207780
    10  C   -0.219299
    11  C    0.036410
    12  C    0.082111
    13  C   -0.268720
    14  C   -0.298021
    15  C   -0.300588
    16  C   -0.275379
    17  C   -0.149405
    18  C   -0.159508
    19  C   -0.369587
    20  C   -0.353214
    21  C   -0.050039
    22  C   -0.079876
    23  C    0.080907
    24  C    0.140536
    25  C   -0.350016
    26  C   -0.380819
    27  C   -0.111166
    28  C   -0.149021
    29  C   -0.056169
    30  C   -0.090083
    31  C   -0.096078
    32  C   -0.094001
    33  C    0.100965
    34  C    0.080704
    35  C   -0.375692
    36  C   -0.332302
    37  C   -0.130649
    38  C   -0.106429
    39  C   -0.061054
    40  C   -0.113198
    41  H    0.101596
    42  H    0.074679
    43  H    0.100615
    44  H    0.059737
    45  H    0.083856
    46  H    0.088476
    47  H    0.100897
    48  H    0.072780
    49  H    0.116263
    50  H    0.088734
    51  H    0.065021
    52  H    0.088041
    53  H    0.111415
    54  H    0.075855
    55  H    0.100531
    56  H    0.080331
    57  H    0.078308
    58  H    0.099171
    59  H    0.078095
    60  H    0.111327
    61  H    0.098880
    62  H    0.062865
    63  H    0.115291
    64  H    0.116355
    65  H    0.076555
    66  H    0.070350
    67  H    0.125683
    68  H    0.078634
    69  H    0.125971
    70  H    0.123184
    71  H    0.113084
    72  H    0.102055
    73  H    0.060203
    74  H    0.088865
    75  H    0.110626
    76  H    0.074774
    77  H    0.137880
    78  H    0.113503
    79  H    0.112109
    80  H    0.115924
    81  H    0.053648
    82  H    0.051225
    83  H    0.071746
    84  H    0.067833
    85  H    0.073584
    86  H    0.074679
    87  H    0.116099
    88  H    0.109228
    89  H    0.100925
    90  H    0.124323
    91  H    0.107695
    92  H    0.116392
    93  H    0.090901
    94  H    0.088932
    95  H    0.073600
    96  H    0.065837
 Sum of Mulliken charges =  -0.00000

 Dipole moment (field-independent basis, Debye):
    X=             -0.3594    Y=             -0.5244    Z=              0.1317  Tot=              0.6493
 Quadrupole moment (field-independent basis, Debye-Ang):
   XX=           -213.8354   YY=           -236.7715   ZZ=           -255.6476
   XY=             -1.7148   XZ=             -1.4936   YZ=              1.5303

 Normal termination of Gaussian 16 at Thu Aug  1 12:58:13 2019.
