 Gaussian 16, Revision A.03,
 Gaussian 16:  ES64L-G16RevA.03 25-Dec-2016

 ---------------------------------
 # td=(NStates=1) B3LYP/6-31G(d,p)
 ---------------------------------

 --
 TD
 --
 Symbolic Z-matrix:
 Charge =  0 Multiplicity = 1

                         Standard orientation:
 ---------------------------------------------------------------------
 Center     Atomic      Atomic             Coordinates (Angstroms)
 Number     Number       Type             X           Y           Z
 ---------------------------------------------------------------------
      1          6           0       12.245488   -0.519326    0.758573
      2          6           0      -12.070430   -0.070894   -0.849708
      3          6           0       13.481192    0.388077    0.545818
      4          6           0      -12.872182   -1.252306   -1.360565
      5          6           0       13.162533    1.901505    0.560231
      6          6           0      -13.298842   -2.106531   -0.234062
      7          6           0       11.065747    0.009123   -0.184979
      8          6           0      -10.943889   -0.431856    0.109981
      9          6           0       12.266186    2.168867   -0.627231
     10          6           0      -12.076159   -2.686617    0.681500
     11          6           0       11.070280    1.217386   -0.872852
     12          6           0      -10.967120   -1.640801    0.873762
     13          6           0       11.696461   -0.596576    2.209843
     14          6           0       12.604050   -1.872409    0.281644
     15          6           0      -13.022386    1.027617   -0.227213
     16          6           0      -11.400502    0.578085   -2.140113
     17          6           0        9.821134   -0.872860   -0.186563
     18          6           0       -9.947585    0.610472    0.340459
     19          6           0       10.051221    1.646862   -1.874199
     20          6           0       -9.971871   -2.072193    1.956844
     21          6           0        8.457345   -0.550940   -0.241653
     22          6           0       -8.543631    0.399527    0.292671
     23          6           0        7.316055   -1.444930   -0.315873
     24          6           0       -7.596020    1.444490    0.479626
     25          6           0        7.572473   -2.927705   -0.505618
     26          6           0       -7.913571    2.828229    0.675934
     27          6           0        6.037288   -0.847391   -0.338238
     28          6           0       -6.227671    1.047834    0.371622
     29          6           0        4.792128   -1.486675   -0.562252
     30          6           0       -5.075094    1.760647    0.426343
     31          6           0        3.640179   -0.786818   -0.349941
     32          6           0       -3.725648    1.253923    0.289640
     33          6           0        2.306723   -1.338546   -0.429986
     34          6           0       -2.442964    1.967232    0.334134
     35          6           0        2.250579   -2.853901   -0.750418
     36          6           0       -2.584553    3.478403    0.466415
     37          6           0        1.106664   -0.626741   -0.172130
     38          6           0       -1.374400    1.153359    0.252571
     39          6           0        1.121574    0.857236   -0.001695
     40          6           0       -0.010076    1.592761    0.219553
     41          1           0       13.968744    0.213373   -0.379212
     42          1           0       14.161387    0.376334    1.528214
     43          1           0      -12.148375   -1.868824   -2.088428
     44          1           0      -13.695091   -0.707115   -1.936652
     45          1           0       14.103326    2.635558    0.486307
     46          1           0       12.677943    2.104139    1.403083
     47          1           0      -13.838162   -3.072205   -0.497825
     48          1           0      -13.954826   -1.416546    0.307068
     49          1           0       12.914439    2.325474   -1.627396
     50          1           0       11.812949    3.082116   -0.622983
     51          1           0      -11.603008   -3.418387   -0.036621
     52          1           0      -12.573467   -2.916153    1.781495
     53          1           0       11.111272    0.283762    2.518266
     54          1           0       12.858394   -0.802869    2.831223
     55          1           0       10.962225   -1.468812    2.520192
     56          1           0       12.907291   -2.053651   -0.789824
     57          1           0       12.048267   -2.600476    0.499427
     58          1           0       13.664132   -2.220841    0.740326
     59          1           0      -13.649570    0.617265    0.577299
     60          1           0      -13.796245    1.457708   -0.873761
     61          1           0      -12.421994    2.060259    0.165852
     62          1           0      -10.755211   -0.066649   -2.469403
     63          1           0      -10.756674    1.258271   -1.961837
     64          1           0      -12.190376    0.763804   -2.902831
     65          1           0       10.095273   -1.920141   -0.149153
     66          1           0      -10.427921    1.595654    0.375363
     67          1           0        9.369200    0.714582   -2.081948
     68          1           0       10.685243    1.993152   -2.779333
     69          1           0        9.373867    2.599357   -1.405977
     70          1           0       -9.173520   -1.497860    2.180926
     71          1           0       -9.559908   -3.080170    1.533418
     72          1           0      -10.499759   -2.169403    2.929284
     73          1           0        7.876429    0.458208   -0.029986
     74          1           0       -8.069506   -0.599733    0.073900
     75          1           0        8.262705   -3.290067   -1.307468
     76          1           0        6.495840   -3.468199   -0.547393
     77          1           0        8.170460   -3.208637    0.540402
     78          1           0       -8.573819    2.628262    1.618876
     79          1           0       -8.721962    3.403038   -0.150260
     80          1           0       -6.944584    3.432852    1.073633
     81          1           0        6.039071    0.205676   -0.221556
     82          1           0       -5.994269   -0.066318    0.314463
     83          1           0        4.711075   -2.767480   -0.894729
     84          1           0       -5.130304    2.842704    0.575430
     85          1           0        3.798818    0.148056   -0.277588
     86          1           0       -3.653021    0.217822    0.171746
     87          1           0        2.885516   -2.867721   -1.735418
     88          1           0        1.212179   -3.345876   -1.036650
     89          1           0        2.651462   -3.407170    0.205118
     90          1           0       -2.856056    3.800403    1.613821
     91          1           0       -3.284546    4.029225   -0.027072
     92          1           0       -1.405296    3.862865    0.210972
     93          1           0        0.167209   -1.218955   -0.020367
     94          1           0       -1.499949    0.154120    0.499414
     95          1           0        2.035159    1.574425    0.015154
     96          1           0        0.153286    2.608074    0.149729
 ---------------------------------------------------------------------

 SCF Done:  E(RB3LYP) =  -1557.47243806     A.U. after   16 cycles

 Excitation energies and oscillator strengths:

 Excited State   1:      Singlet-A      1.9439 eV  637.82 nm  f=2.8387  <S**2>=0.000
     148 ->149         0.70133
     148 ->150         0.12474
     148 <-149        -0.11013
 This state for optimization and/or second-order correction.
 Total Energy, E(TD-HF/TD-DFT) =  -1557.40100176
 Copying the excited state density for this state as the 1-particle RhoCI density.

 The electronic state is 1-A.
 Alpha  occ. eigenvalues --  -10.21279 -10.21041 -10.20908 -10.20763 -10.20714
 Alpha  occ. eigenvalues --  -10.20688 -10.20683 -10.20651 -10.20578 -10.20466
 Alpha  occ. eigenvalues --  -10.20456 -10.20285 -10.20205 -10.20112 -10.20097
 Alpha  occ. eigenvalues --  -10.19997 -10.19973 -10.19930 -10.19693 -10.19395
 Alpha  occ. eigenvalues --  -10.19329 -10.19274 -10.19195 -10.19168 -10.19108
 Alpha  occ. eigenvalues --  -10.18914 -10.18883 -10.18739 -10.18704 -10.18634
 Alpha  occ. eigenvalues --  -10.18589 -10.18465 -10.18128 -10.17963 -10.17913
 Alpha  occ. eigenvalues --  -10.17758 -10.17725 -10.17718 -10.16815 -10.14232
 Alpha  occ. eigenvalues --   -0.84485  -0.84361  -0.83401  -0.83069  -0.82301
 Alpha  occ. eigenvalues --   -0.80851  -0.78520  -0.78382  -0.77647  -0.77022
 Alpha  occ. eigenvalues --   -0.76441  -0.75139  -0.74121  -0.71634  -0.71223
 Alpha  occ. eigenvalues --   -0.69543  -0.69003  -0.68090  -0.67898  -0.67702
 Alpha  occ. eigenvalues --   -0.67489  -0.66682  -0.66431  -0.66174  -0.65385
 Alpha  occ. eigenvalues --   -0.62614  -0.62163  -0.59339  -0.58851  -0.56479
 Alpha  occ. eigenvalues --   -0.56160  -0.55484  -0.54997  -0.53620  -0.53225
 Alpha  occ. eigenvalues --   -0.52563  -0.51184  -0.50301  -0.49161  -0.49067
 Alpha  occ. eigenvalues --   -0.47914  -0.47509  -0.47076  -0.46208  -0.46028
 Alpha  occ. eigenvalues --   -0.45262  -0.45024  -0.44772  -0.44282  -0.44014
 Alpha  occ. eigenvalues --   -0.43203  -0.42925  -0.42731  -0.42270  -0.41879
 Alpha  occ. eigenvalues --   -0.41692  -0.41354  -0.41259  -0.41019  -0.40430
 Alpha  occ. eigenvalues --   -0.40216  -0.39623  -0.39364  -0.39342  -0.39124
 Alpha  occ. eigenvalues --   -0.38823  -0.38629  -0.38408  -0.38355  -0.38059
 Alpha  occ. eigenvalues --   -0.37505  -0.37432  -0.37212  -0.36962  -0.36813
 Alpha  occ. eigenvalues --   -0.36322  -0.35746  -0.35501  -0.35209  -0.34919
 Alpha  occ. eigenvalues --   -0.34870  -0.34762  -0.34646  -0.34042  -0.33888
 Alpha  occ. eigenvalues --   -0.33225  -0.33176  -0.33040  -0.32930  -0.32647
 Alpha  occ. eigenvalues --   -0.32210  -0.31870  -0.31075  -0.30939  -0.30717
 Alpha  occ. eigenvalues --   -0.30614  -0.29873  -0.29807  -0.29037  -0.28774
 Alpha  occ. eigenvalues --   -0.28104  -0.27547  -0.26297  -0.23915  -0.22248
 Alpha  occ. eigenvalues --   -0.20872  -0.18069  -0.15746
 Alpha virt. eigenvalues --   -0.08550  -0.06088  -0.01920   0.00210   0.01983
 Alpha virt. eigenvalues --    0.03724   0.05208   0.05328   0.06017   0.06193
 Alpha virt. eigenvalues --    0.06418   0.06883   0.07621   0.08083   0.08289

 Mulliken charges:
               1
     1  C    0.022528
     2  C   -0.022436
     3  C   -0.172076
     4  C   -0.155789
     5  C   -0.181814
     6  C   -0.185296
     7  C    0.056955
     8  C    0.074679
     9  C   -0.213522
    10  C   -0.218144
    11  C    0.067339
    12  C    0.037128
    13  C   -0.275212
    14  C   -0.290091
    15  C   -0.300292
    16  C   -0.279302
    17  C   -0.167285
    18  C   -0.162469
    19  C   -0.343194
    20  C   -0.336719
    21  C   -0.092815
    22  C   -0.095401
    23  C    0.133558
    24  C    0.156311
    25  C   -0.355366
    26  C   -0.366090
    27  C   -0.146035
    28  C   -0.121189
    29  C   -0.069308
    30  C   -0.080308
    31  C   -0.056424
    32  C   -0.131904
    33  C    0.076863
    34  C    0.153408
    35  C   -0.357898
    36  C   -0.355466
    37  C   -0.136437
    38  C   -0.113341
    39  C   -0.093427
    40  C   -0.096547
    41  H    0.108905
    42  H    0.073057
    43  H    0.069598
    44  H    0.087383
    45  H    0.074174
    46  H    0.113252
    47  H    0.084051
    48  H    0.095367
    49  H    0.067325
    50  H    0.106105
    51  H    0.118045
    52  H    0.095199
    53  H    0.116806
    54  H    0.051851
    55  H    0.100270
    56  H    0.100497
    57  H    0.113097
    58  H    0.068033
    59  H    0.103676
    60  H    0.102623
    61  H    0.069358
    62  H    0.106536
    63  H    0.098711
    64  H    0.085421
    65  H    0.083423
    66  H    0.091758
    67  H    0.122410
    68  H    0.102653
    69  H    0.082264
    70  H    0.124844
    71  H    0.095645
    72  H    0.106535
    73  H    0.069727
    74  H    0.089128
    75  H    0.128288
    76  H    0.091025
    77  H    0.091720
    78  H    0.116926
    79  H    0.094770
    80  H    0.103271
    81  H    0.082799
    82  H    0.062286
    83  H    0.068379
    84  H    0.057261
    85  H    0.064874
    86  H    0.063981
    87  H    0.118205
    88  H    0.094767
    89  H    0.117973
    90  H    0.102787
    91  H    0.140493
    92  H    0.076829
    93  H    0.094740
    94  H    0.089434
    95  H    0.086341
    96  H    0.067954
 Sum of Mulliken charges =  -0.00000

 Dipole moment (field-independent basis, Debye):
    X=             -0.5103    Y=             -0.1193    Z=              0.3087  Tot=              0.6082
 Quadrupole moment (field-independent basis, Debye-Ang):
   XX=           -225.3113   YY=           -237.5281   ZZ=           -257.3068
   XY=              2.3949   XZ=             -4.4357   YZ=              1.9475

 Normal termination of Gaussian 16 at Tue Jul 30 11:34:21 2019.
