 Gaussian 16, Revision A.03,
 Gaussian 16:  ES64L-G16RevA.03 25-Dec-2016

 ---------------------------------
 # td=(NStates=1) B3LYP/6-31G(d,p)
 ---------------------------------

 --
 TD
 --
 Symbolic Z-matrix:
 Charge =  0 Multiplicity = 1

                         Standard orientation:
 ---------------------------------------------------------------------
 Center     Atomic      Atomic             Coordinates (Angstroms)
 Number     Number       Type             X           Y           Z
 ---------------------------------------------------------------------
      1          6           0       12.104967    0.493241   -0.777606
      2          6           0      -12.121180   -0.057054    0.779129
      3          6           0       13.391979   -0.405281   -0.564250
      4          6           0      -12.920979    1.176458    1.310044
      5          6           0       13.142338   -1.829480   -0.579956
      6          6           0      -13.354243    1.974021    0.074992
      7          6           0       11.001438    0.108577    0.232720
      8          6           0      -10.921611    0.437759   -0.159078
      9          6           0       12.232274   -2.163871    0.624503
     10          6           0      -12.138590    2.684940   -0.607613
     11          6           0       11.135701   -1.124354    0.907843
     12          6           0      -11.103668    1.686423   -0.753161
     13          6           0       11.645786    0.342357   -2.232895
     14          6           0       12.554696    1.951956   -0.562965
     15          6           0      -12.942787   -1.093192    0.202314
     16          6           0      -11.507646   -0.654212    2.060812
     17          6           0        9.852687    0.939416    0.367747
     18          6           0       -9.894996   -0.542191   -0.343812
     19          6           0       10.218673   -1.574151    1.963143
     20          6           0       -9.986136    2.178395   -1.667186
     21          6           0        8.576284    0.508936    0.334503
     22          6           0       -8.533765   -0.334654   -0.329276
     23          6           0        7.439979    1.269895    0.473908
     24          6           0       -7.520828   -1.350180   -0.483339
     25          6           0        7.577307    2.808233    0.621887
     26          6           0       -7.930010   -2.799393   -0.587023
     27          6           0        6.241758    0.801095    0.335721
     28          6           0       -6.316320   -0.927814   -0.398317
     29          6           0        4.939804    1.470732    0.325623
     30          6           0       -5.120608   -1.706065   -0.463012
     31          6           0        3.703059    0.683685    0.294356
     32          6           0       -3.814433   -1.215613   -0.331876
     33          6           0        2.462911    1.304829    0.390614
     34          6           0       -2.570750   -1.898683   -0.220811
     35          6           0        2.348271    2.826060    0.507864
     36          6           0       -2.671201   -3.269080   -0.726127
     37          6           0        1.245160    0.466678    0.257052
     38          6           0       -1.478586   -1.149438   -0.121513
     39          6           0        1.076503   -0.855670    0.010441
     40          6           0       -0.113595   -1.600659   -0.149471
     41          1           0       14.057855    0.028515    0.211469
     42          1           0       14.036740   -0.104295   -1.500484
     43          1           0      -12.255030    1.765839    1.909649
     44          1           0      -13.807052    0.865503    2.063427
     45          1           0       14.101265   -2.247221   -0.356386
     46          1           0       12.841135   -2.216778   -1.399959
     47          1           0      -13.989875    2.704052    0.582857
     48          1           0      -14.036751    1.373825   -0.578511
     49          1           0       12.911953   -2.313418    1.427768
     50          1           0       11.552773   -3.110666    0.558296
     51          1           0      -11.841313    3.499379    0.108708
     52          1           0      -12.300672    3.264039   -1.481494
     53          1           0       11.469791   -0.750817   -2.425762
     54          1           0       12.295882    0.786963   -3.176727
     55          1           0       10.824843    1.061912   -2.265261
     56          1           0       12.881997    2.207511    0.550103
     57          1           0       11.729511    2.791825   -0.630071
     58          1           0       13.290813    2.224446   -1.240936
     59          1           0      -13.828735   -0.500287   -0.539238
     60          1           0      -13.553294   -1.683739    0.938025
     61          1           0      -12.346753   -1.635275   -0.546140
     62          1           0      -10.706765    0.072154    2.406984
     63          1           0      -10.948160   -1.573760    1.736527
     64          1           0      -12.199227   -0.773992    2.737839
     65          1           0       10.280216    2.115887    0.423084
     66          1           0      -10.174456   -1.476923   -0.323688
     67          1           0        9.817630   -0.636459    2.519515
     68          1           0       11.047322   -1.983749    2.652969
     69          1           0        9.539563   -2.451330    1.651935
     70          1           0       -9.129926    1.537256   -1.859676
     71          1           0       -9.264003    2.924883   -1.374639
     72          1           0      -10.450537    2.467455   -2.496367
     73          1           0        8.416328   -0.690536    0.164062
     74          1           0       -8.200023    0.766785   -0.139486
     75          1           0        8.008502    3.289260    1.541415
     76          1           0        6.595455    3.381529    0.579278
     77          1           0        8.233736    3.251487   -0.102813
     78          1           0       -8.561866   -3.193309   -1.536059
     79          1           0       -8.371659   -2.959887    0.361809
     80          1           0       -7.005023   -3.567190   -0.626771
     81          1           0        6.231891   -0.181898   -0.048540
     82          1           0       -6.033927    0.072789   -0.110728
     83          1           0        4.816559    2.394460    0.637432
     84          1           0       -5.221816   -2.702985   -0.579130
     85          1           0        3.520832   -0.374590    0.284215
     86          1           0       -3.781785   -0.069432   -0.084766
     87          1           0        3.007800    3.093171    1.515622
     88          1           0        1.464773    3.245506    0.534281
     89          1           0        2.915353    3.126723   -0.374043
     90          1           0       -3.108654   -3.441292   -1.779562
     91          1           0       -3.268466   -3.942962   -0.011775
     92          1           0       -1.775371   -3.768102   -0.895907
     93          1           0        0.185345    0.996396    0.631202
     94          1           0       -1.505147   -0.027871   -0.034928
     95          1           0        1.882756   -1.617710    0.116105
     96          1           0        0.129793   -2.688997   -0.420298
 ---------------------------------------------------------------------

 SCF Done:  E(RB3LYP) =  -1557.53801057     A.U. after   17 cycles

 Excitation energies and oscillator strengths:

 Excited State   1:      Singlet-A      1.9036 eV  651.30 nm  f=3.1794  <S**2>=0.000
     148 ->149         0.70930
     148 <-149        -0.15094
 This state for optimization and/or second-order correction.
 Total Energy, E(TD-HF/TD-DFT) =  -1557.46805282
 Copying the excited state density for this state as the 1-particle RhoCI density.

 The electronic state is 1-A.
 Alpha  occ. eigenvalues --  -10.20875 -10.20626 -10.20352 -10.19905 -10.19865
 Alpha  occ. eigenvalues --  -10.19528 -10.19526 -10.19354 -10.19338 -10.19302
 Alpha  occ. eigenvalues --  -10.19230 -10.19179 -10.19173 -10.19166 -10.19127
 Alpha  occ. eigenvalues --  -10.19120 -10.19104 -10.18961 -10.18869 -10.18747
 Alpha  occ. eigenvalues --  -10.18732 -10.18702 -10.18591 -10.18515 -10.18348
 Alpha  occ. eigenvalues --  -10.18312 -10.18307 -10.18268 -10.18174 -10.18153
 Alpha  occ. eigenvalues --  -10.18131 -10.17961 -10.17738 -10.17694 -10.17557
 Alpha  occ. eigenvalues --  -10.17440 -10.17324 -10.16247 -10.15663 -10.15246
 Alpha  occ. eigenvalues --   -0.85087  -0.85074  -0.84245  -0.83657  -0.83208
 Alpha  occ. eigenvalues --   -0.82057  -0.79247  -0.78920  -0.78432  -0.78267
 Alpha  occ. eigenvalues --   -0.77563  -0.74923  -0.74378  -0.72403  -0.71742
 Alpha  occ. eigenvalues --   -0.70777  -0.68780  -0.68507  -0.68043  -0.67769
 Alpha  occ. eigenvalues --   -0.67358  -0.67256  -0.67057  -0.66463  -0.66237
 Alpha  occ. eigenvalues --   -0.63853  -0.62042  -0.60671  -0.59300  -0.57437
 Alpha  occ. eigenvalues --   -0.56709  -0.54932  -0.54815  -0.53816  -0.53590
 Alpha  occ. eigenvalues --   -0.52755  -0.52291  -0.50835  -0.49548  -0.49518
 Alpha  occ. eigenvalues --   -0.48589  -0.48139  -0.47792  -0.47015  -0.46409
 Alpha  occ. eigenvalues --   -0.45892  -0.45498  -0.44812  -0.44559  -0.44248
 Alpha  occ. eigenvalues --   -0.43886  -0.43492  -0.43092  -0.42720  -0.41982
 Alpha  occ. eigenvalues --   -0.41956  -0.41623  -0.41530  -0.41243  -0.41145
 Alpha  occ. eigenvalues --   -0.40841  -0.40117  -0.40055  -0.39881  -0.39759
 Alpha  occ. eigenvalues --   -0.39319  -0.39223  -0.39079  -0.38977  -0.38501
 Alpha  occ. eigenvalues --   -0.37606  -0.37503  -0.36731  -0.36575  -0.36358
 Alpha  occ. eigenvalues --   -0.36005  -0.35595  -0.35528  -0.35437  -0.35296
 Alpha  occ. eigenvalues --   -0.34663  -0.34524  -0.34408  -0.34345  -0.33779
 Alpha  occ. eigenvalues --   -0.33720  -0.33409  -0.33109  -0.32774  -0.32630
 Alpha  occ. eigenvalues --   -0.32548  -0.32081  -0.31982  -0.31024  -0.30645
 Alpha  occ. eigenvalues --   -0.30347  -0.29949  -0.29413  -0.28823  -0.27976
 Alpha  occ. eigenvalues --   -0.27723  -0.26904  -0.26338  -0.24548  -0.22775
 Alpha  occ. eigenvalues --   -0.20799  -0.18826  -0.15908
 Alpha virt. eigenvalues --   -0.09371  -0.05007  -0.02205   0.00049   0.02753
 Alpha virt. eigenvalues --    0.04232   0.05979   0.06634   0.06993   0.07299
 Alpha virt. eigenvalues --    0.07327   0.07771   0.08394   0.08995   0.09668

 Mulliken charges:
               1
     1  C   -0.006904
     2  C   -0.002928
     3  C   -0.172821
     4  C   -0.172757
     5  C   -0.176579
     6  C   -0.195427
     7  C    0.091824
     8  C    0.053756
     9  C   -0.222686
    10  C   -0.220062
    11  C    0.049192
    12  C    0.075048
    13  C   -0.280017
    14  C   -0.311729
    15  C   -0.272025
    16  C   -0.282373
    17  C   -0.135594
    18  C   -0.112759
    19  C   -0.356531
    20  C   -0.371596
    21  C   -0.119102
    22  C   -0.108444
    23  C    0.197429
    24  C    0.148246
    25  C   -0.387547
    26  C   -0.376656
    27  C   -0.137929
    28  C   -0.107412
    29  C   -0.106169
    30  C   -0.072962
    31  C   -0.083287
    32  C   -0.128505
    33  C    0.081371
    34  C    0.146492
    35  C   -0.346626
    36  C   -0.376806
    37  C   -0.138793
    38  C   -0.102100
    39  C   -0.063456
    40  C   -0.124873
    41  H    0.091491
    42  H    0.066631
    43  H    0.099624
    44  H    0.064903
    45  H    0.096428
    46  H    0.108387
    47  H    0.081345
    48  H    0.100360
    49  H    0.113447
    50  H    0.087103
    51  H    0.111159
    52  H    0.108070
    53  H    0.098984
    54  H    0.070285
    55  H    0.111132
    56  H    0.083412
    57  H    0.076563
    58  H    0.111096
    59  H    0.039664
    60  H    0.099927
    61  H    0.109275
    62  H    0.088891
    63  H    0.079488
    64  H    0.102600
    65  H    0.071794
    66  H    0.075198
    67  H    0.119795
    68  H    0.095007
    69  H    0.111745
    70  H    0.105344
    71  H    0.103201
    72  H    0.109630
    73  H    0.076953
    74  H    0.077880
    75  H    0.104984
    76  H    0.097165
    77  H    0.122575
    78  H    0.108568
    79  H    0.142308
    80  H    0.094418
    81  H    0.072119
    82  H    0.072749
    83  H    0.083737
    84  H    0.059908
    85  H    0.081472
    86  H    0.053004
    87  H    0.092737
    88  H    0.114677
    89  H    0.134251
    90  H    0.119508
    91  H    0.107648
    92  H    0.112036
    93  H    0.064017
    94  H    0.084948
    95  H    0.085210
    96  H    0.075245
 Sum of Mulliken charges =  -0.00000

 Dipole moment (field-independent basis, Debye):
    X=              1.1522    Y=             -0.3304    Z=              0.1979  Tot=              1.2149
 Quadrupole moment (field-independent basis, Debye-Ang):
   XX=           -228.2699   YY=           -231.5507   ZZ=           -255.9818
   XY=             -6.0236   XZ=             -2.5950   YZ=              2.8081

 Normal termination of Gaussian 16 at Tue Jul 30 19:17:03 2019.
