 Gaussian 16, Revision A.03,
 Gaussian 16:  ES64L-G16RevA.03 25-Dec-2016

 ---------------------------------
 # td=(NStates=1) B3LYP/6-31G(d,p)
 ---------------------------------

 --
 TD
 --
 Symbolic Z-matrix:
 Charge =  0 Multiplicity = 1

                         Standard orientation:
 ---------------------------------------------------------------------
 Center     Atomic      Atomic             Coordinates (Angstroms)
 Number     Number       Type             X           Y           Z
 ---------------------------------------------------------------------
      1          6           0       12.116988   -0.510379    0.591009
      2          6           0      -12.083609   -0.085455   -1.000920
      3          6           0       13.483686    0.293506    0.609436
      4          6           0      -12.982732   -1.291799   -1.267354
      5          6           0       13.240965    1.849275    0.553050
      6          6           0      -13.395896   -2.019066    0.026691
      7          6           0       11.084130    0.004430   -0.244499
      8          6           0      -10.986949   -0.430139    0.007017
      9          6           0       12.277398    2.155420   -0.610991
     10          6           0      -12.212885   -2.526552    0.864429
     11          6           0       11.183424    1.227786   -0.866315
     12          6           0      -11.048514   -1.468477    0.941134
     13          6           0       11.711289   -0.683343    2.101414
     14          6           0       12.534695   -1.931508    0.105141
     15          6           0      -12.957870    1.129015   -0.464975
     16          6           0      -11.322135    0.370739   -2.262586
     17          6           0        9.802210   -0.879240   -0.386530
     18          6           0       -9.840042    0.558616    0.120876
     19          6           0       10.092556    1.871424   -1.690772
     20          6           0      -10.097085   -1.830436    2.018736
     21          6           0        8.547740   -0.552960   -0.253957
     22          6           0       -8.582311    0.377490    0.096274
     23          6           0        7.419678   -1.377936   -0.425133
     24          6           0       -7.561870    1.326022    0.321403
     25          6           0        7.582647   -2.874779   -0.585165
     26          6           0       -7.894524    2.702531    0.609392
     27          6           0        6.211086   -0.770788   -0.322517
     28          6           0       -6.226797    1.013542    0.233450
     29          6           0        4.915152   -1.406702   -0.358613
     30          6           0       -5.081845    1.729784    0.420174
     31          6           0        3.716008   -0.718306   -0.329825
     32          6           0       -3.842656    1.102483    0.230108
     33          6           0        2.424694   -1.266663   -0.381003
     34          6           0       -2.512421    1.755282    0.432963
     35          6           0        2.282606   -2.678393   -0.518915
     36          6           0       -2.666295    3.277168    0.828935
     37          6           0        1.267321   -0.537069   -0.141769
     38          6           0       -1.448300    1.153465    0.275416
     39          6           0        1.007154    0.767918    0.171921
     40          6           0       -0.082021    1.546778    0.369604
     41          1           0       13.991809    0.067763   -0.356453
     42          1           0       14.141232    0.037620    1.319604
     43          1           0      -12.413065   -1.857578   -2.117446
     44          1           0      -13.863221   -0.886858   -1.643434
     45          1           0       14.215055    2.332572    0.690954
     46          1           0       12.780452    2.178566    1.526489
     47          1           0      -14.138903   -2.937871   -0.230468
     48          1           0      -13.872381   -1.347365    0.805915
     49          1           0       12.904279    2.342454   -1.638803
     50          1           0       11.877108    3.172230   -0.406850
     51          1           0      -11.647415   -3.454537    0.285384
     52          1           0      -12.684595   -2.664301    1.975596
     53          1           0       11.275349    0.102053    2.691227
     54          1           0       12.522353   -1.038636    2.824793
     55          1           0       10.770590   -1.150058    2.204392
     56          1           0       12.778524   -2.031903   -0.884235
     57          1           0       11.962559   -2.890543    0.455076
     58          1           0       13.708250   -2.258164    0.483846
     59          1           0      -13.557390    1.009856    0.421223
     60          1           0      -13.542699    1.364543   -1.530113
     61          1           0      -12.273907    1.896346   -0.332361
     62          1           0      -10.771914   -0.574621   -2.520926
     63          1           0      -10.693535    1.195796   -2.177456
     64          1           0      -12.106936    0.484898   -3.219934
     65          1           0       10.177183   -1.913762   -0.462367
     66          1           0      -10.238727    1.548975    0.510696
     67          1           0        9.325783    1.066253   -2.070462
     68          1           0       10.440697    2.418105   -2.566049
     69          1           0        9.553919    2.526438   -0.903451
     70          1           0       -9.356945   -1.012422    2.341495
     71          1           0       -9.474458   -2.773849    1.643479
     72          1           0      -10.769995   -2.307589    2.913737
     73          1           0        8.251574    0.349695   -0.018166
     74          1           0       -8.120138   -0.568328   -0.337306
     75          1           0        8.039732   -3.183126   -1.673272
     76          1           0        6.654760   -3.502876   -0.317588
     77          1           0        8.385217   -3.331737   -0.077623
     78          1           0       -8.435163    2.906805    1.573266
     79          1           0       -8.664198    3.035261   -0.073981
     80          1           0       -7.173842    3.497385    0.455919
     81          1           0        6.224487    0.312229   -0.280146
     82          1           0       -6.149222    0.027327   -0.167176
     83          1           0        4.809189   -2.389701   -0.300806
     84          1           0       -5.169103    2.763016    0.801242
     85          1           0        3.756701    0.450254   -0.376683
     86          1           0       -3.701010    0.055846   -0.200139
     87          1           0        2.948191   -3.100636   -1.298499
     88          1           0        1.188151   -2.862484   -0.743652
     89          1           0        2.607142   -3.142478    0.426341
     90          1           0       -2.986034    3.357902    1.924664
     91          1           0       -3.244847    3.855624    0.248776
     92          1           0       -1.679620    3.602973    0.782982
     93          1           0        0.300715   -1.021217   -0.239603
     94          1           0       -1.411583    0.039675   -0.103022
     95          1           0        2.046261    1.320619    0.512592
     96          1           0        0.055545    2.647470    0.548368
 ---------------------------------------------------------------------

 SCF Done:  E(RB3LYP) =  -1557.59320163     A.U. after   16 cycles

 Excitation energies and oscillator strengths:

 Excited State   1:      Singlet-A      2.2619 eV  548.14 nm  f=3.0021  <S**2>=0.000
     148 ->149         0.70545
 This state for optimization and/or second-order correction.
 Total Energy, E(TD-HF/TD-DFT) =  -1557.51007797
 Copying the excited state density for this state as the 1-particle RhoCI density.

 The electronic state is 1-A.
 Alpha  occ. eigenvalues --  -10.20568 -10.20475 -10.19937 -10.19834 -10.19787
 Alpha  occ. eigenvalues --  -10.19786 -10.19754 -10.19671 -10.19617 -10.19479
 Alpha  occ. eigenvalues --  -10.19412 -10.19372 -10.19316 -10.19285 -10.19144
 Alpha  occ. eigenvalues --  -10.19121 -10.19028 -10.18912 -10.18899 -10.18798
 Alpha  occ. eigenvalues --  -10.18753 -10.18722 -10.18709 -10.18687 -10.18612
 Alpha  occ. eigenvalues --  -10.18461 -10.18285 -10.18252 -10.18249 -10.18155
 Alpha  occ. eigenvalues --  -10.18018 -10.17922 -10.17866 -10.17750 -10.17483
 Alpha  occ. eigenvalues --  -10.17351 -10.17267 -10.17136 -10.16908 -10.16742
 Alpha  occ. eigenvalues --   -0.85331  -0.84813  -0.84628  -0.83869  -0.83342
 Alpha  occ. eigenvalues --   -0.82871  -0.79419  -0.78481  -0.78164  -0.77615
 Alpha  occ. eigenvalues --   -0.76952  -0.75321  -0.74801  -0.72485  -0.72108
 Alpha  occ. eigenvalues --   -0.70857  -0.69080  -0.68816  -0.68419  -0.67885
 Alpha  occ. eigenvalues --   -0.67734  -0.67583  -0.66497  -0.66434  -0.66283
 Alpha  occ. eigenvalues --   -0.63822  -0.61979  -0.60181  -0.58502  -0.57331
 Alpha  occ. eigenvalues --   -0.57174  -0.55921  -0.54885  -0.54022  -0.53859
 Alpha  occ. eigenvalues --   -0.53078  -0.52340  -0.50709  -0.49724  -0.49104
 Alpha  occ. eigenvalues --   -0.48193  -0.47694  -0.47134  -0.46890  -0.46464
 Alpha  occ. eigenvalues --   -0.46055  -0.45046  -0.44830  -0.44466  -0.44153
 Alpha  occ. eigenvalues --   -0.43915  -0.43468  -0.42874  -0.42677  -0.42612
 Alpha  occ. eigenvalues --   -0.42140  -0.41958  -0.41929  -0.41367  -0.41152
 Alpha  occ. eigenvalues --   -0.40828  -0.40146  -0.39821  -0.39435  -0.39247
 Alpha  occ. eigenvalues --   -0.38961  -0.38827  -0.38579  -0.38250  -0.38120
 Alpha  occ. eigenvalues --   -0.37863  -0.37737  -0.37515  -0.37049  -0.36605
 Alpha  occ. eigenvalues --   -0.36464  -0.36206  -0.35822  -0.35750  -0.35170
 Alpha  occ. eigenvalues --   -0.34809  -0.34585  -0.34447  -0.34208  -0.34083
 Alpha  occ. eigenvalues --   -0.33429  -0.33282  -0.32973  -0.32781  -0.32265
 Alpha  occ. eigenvalues --   -0.32149  -0.32035  -0.31826  -0.31516  -0.31214
 Alpha  occ. eigenvalues --   -0.30480  -0.30478  -0.29668  -0.28805  -0.28515
 Alpha  occ. eigenvalues --   -0.28156  -0.27853  -0.27339  -0.24023  -0.22043
 Alpha  occ. eigenvalues --   -0.21398  -0.19321  -0.16872
 Alpha virt. eigenvalues --   -0.08412  -0.04919  -0.01414   0.01239   0.02067
 Alpha virt. eigenvalues --    0.04407   0.05930   0.06395   0.07264   0.07587
 Alpha virt. eigenvalues --    0.07826   0.08412   0.08755   0.09201   0.09313

 Mulliken charges:
               1
     1  C    0.007068
     2  C   -0.018028
     3  C   -0.170313
     4  C   -0.149580
     5  C   -0.201228
     6  C   -0.180941
     7  C    0.072871
     8  C    0.050258
     9  C   -0.215180
    10  C   -0.195118
    11  C    0.071815
    12  C    0.068397
    13  C   -0.308893
    14  C   -0.304018
    15  C   -0.286720
    16  C   -0.295753
    17  C   -0.150726
    18  C   -0.175070
    19  C   -0.358505
    20  C   -0.337020
    21  C   -0.049448
    22  C   -0.052445
    23  C    0.169440
    24  C    0.147050
    25  C   -0.382539
    26  C   -0.404429
    27  C   -0.149323
    28  C   -0.114664
    29  C   -0.066465
    30  C   -0.078342
    31  C   -0.114549
    32  C   -0.119521
    33  C    0.147420
    34  C    0.125581
    35  C   -0.387378
    36  C   -0.366667
    37  C   -0.118384
    38  C   -0.111624
    39  C   -0.077933
    40  C   -0.104860
    41  H    0.084146
    42  H    0.096874
    43  H    0.078903
    44  H    0.099363
    45  H    0.092661
    46  H    0.090267
    47  H    0.073493
    48  H    0.098021
    49  H    0.076414
    50  H    0.103162
    51  H    0.086018
    52  H    0.078210
    53  H    0.094913
    54  H    0.095166
    55  H    0.101347
    56  H    0.121874
    57  H    0.093474
    58  H    0.048176
    59  H    0.107753
    60  H    0.071972
    61  H    0.108679
    62  H    0.102357
    63  H    0.123297
    64  H    0.059967
    65  H    0.081996
    66  H    0.082701
    67  H    0.106688
    68  H    0.111600
    69  H    0.111120
    70  H    0.115352
    71  H    0.101044
    72  H    0.084169
    73  H    0.068179
    74  H    0.071026
    75  H    0.095861
    76  H    0.105397
    77  H    0.130091
    78  H    0.109163
    79  H    0.114051
    80  H    0.108203
    81  H    0.079358
    82  H    0.060183
    83  H    0.067848
    84  H    0.089781
    85  H    0.070866
    86  H    0.076650
    87  H    0.112800
    88  H    0.107032
    89  H    0.129680
    90  H    0.113333
    91  H    0.131142
    92  H    0.106700
    93  H    0.064085
    94  H    0.061441
    95  H    0.050675
    96  H    0.081038
 Sum of Mulliken charges =  -0.00000

 Dipole moment (field-independent basis, Debye):
    X=              0.7388    Y=              0.3437    Z=              0.2935  Tot=              0.8661
 Quadrupole moment (field-independent basis, Debye-Ang):
   XX=           -229.8824   YY=           -237.0768   ZZ=           -254.5812
   XY=             -2.6762   XZ=             -0.5346   YZ=              3.1604

 Normal termination of Gaussian 16 at Fri Jul 26 22:03:00 2019.
