 Gaussian 16, Revision A.03,
 Gaussian 16:  ES64L-G16RevA.03 25-Dec-2016

 ---------------------------------
 # td=(NStates=1) B3LYP/6-31G(d,p)
 ---------------------------------

 --
 TD
 --
 Symbolic Z-matrix:
 Charge =  0 Multiplicity = 1

                         Standard orientation:
 ---------------------------------------------------------------------
 Center     Atomic      Atomic             Coordinates (Angstroms)
 Number     Number       Type             X           Y           Z
 ---------------------------------------------------------------------
      1          6           0      -12.244391   -0.548490   -0.615154
      2          6           0       12.089049    0.068393    0.764083
      3          6           0      -13.445823    0.326693   -0.643077
      4          6           0       13.031437   -1.084751    1.270864
      5          6           0      -13.211836    1.813652   -0.688960
      6          6           0       13.551668   -2.010342    0.045828
      7          6           0      -11.120987    0.003744    0.296866
      8          6           0       11.064892   -0.343975   -0.131374
      9          6           0      -12.444541    2.188736    0.483150
     10          6           0       12.256693   -2.657561   -0.495755
     11          6           0      -11.169146    1.302504    0.791244
     12          6           0       11.117206   -1.677915   -0.665074
     13          6           0      -11.710536   -0.765239   -2.048328
     14          6           0      -12.546233   -1.989298   -0.067420
     15          6           0       12.977929    1.149632    0.057713
     16          6           0       11.670607    0.794791    2.022549
     17          6           0       -9.895773   -0.829947    0.366925
     18          6           0        9.800749    0.477089   -0.189530
     19          6           0      -10.215686    1.941966    1.791463
     20          6           0       10.121947   -2.068148   -1.657938
     21          6           0       -8.552038   -0.505873    0.244818
     22          6           0        8.484595    0.181861   -0.133612
     23          6           0       -7.429435   -1.341256    0.340813
     24          6           0        7.522248    1.276161   -0.367054
     25          6           0       -7.641723   -2.828721    0.557615
     26          6           0        7.900867    2.732448   -0.634828
     27          6           0       -6.184928   -0.836745    0.333282
     28          6           0        6.165821    0.935031   -0.327300
     29          6           0       -4.862225   -1.450318    0.338712
     30          6           0        4.999590    1.577194   -0.483979
     31          6           0       -3.687447   -0.737570    0.229383
     32          6           0        3.765783    1.040534   -0.334813
     33          6           0       -2.363589   -1.299075    0.328877
     34          6           0        2.560903    1.788774   -0.382539
     35          6           0       -2.278559   -2.719472    0.578695
     36          6           0        2.561119    3.291264   -0.654757
     37          6           0       -1.157883   -0.548175    0.201915
     38          6           0        1.336226    1.068215   -0.196685
     39          6           0       -1.146580    0.851458   -0.013745
     40          6           0        0.051809    1.582132   -0.283361
     41          1           0      -14.035401    0.174085    0.286687
     42          1           0      -14.168514   -0.080206   -1.380728
     43          1           0       12.431983   -1.808495    1.868285
     44          1           0       13.803780   -0.607000    1.741277
     45          1           0      -14.159394    2.396105   -0.732429
     46          1           0      -12.722225    2.027829   -1.658566
     47          1           0       14.130005   -2.745102    0.417197
     48          1           0       13.985664   -1.336643   -0.917149
     49          1           0      -13.106776    2.208770    1.341298
     50          1           0      -12.041632    3.230885    0.294114
     51          1           0       11.925338   -3.419969    0.304208
     52          1           0       12.475757   -3.225081   -1.516138
     53          1           0      -11.587080    0.195436   -2.755779
     54          1           0      -12.274002   -1.342608   -2.740099
     55          1           0      -10.746185   -1.132219   -1.961839
     56          1           0      -12.495047   -1.963931    1.030403
     57          1           0      -11.737816   -2.628218   -0.492609
     58          1           0      -13.508803   -2.389804   -0.450373
     59          1           0       13.440348    1.044439   -1.022421
     60          1           0       13.905822    1.678744    0.639154
     61          1           0       12.242391    1.936585   -0.114943
     62          1           0       10.952744    0.188068    2.829062
     63          1           0       10.955155    1.692661    1.933988
     64          1           0       12.492731    1.150504    2.726478
     65          1           0       -9.868963   -1.977777    0.565598
     66          1           0        9.982908    1.580044   -0.301712
     67          1           0       -9.371776    1.253954    2.248341
     68          1           0      -10.768561    2.114670    2.571437
     69          1           0       -9.553944    2.743613    1.453558
     70          1           0        9.583076   -1.147267   -2.024838
     71          1           0        9.277589   -2.688896   -1.061468
     72          1           0       10.574938   -2.669114   -2.520148
     73          1           0       -8.214965    0.593162    0.063072
     74          1           0        8.089709   -0.709257   -0.052770
     75          1           0       -7.895725   -2.769958    1.684850
     76          1           0       -6.606322   -3.181605    0.523805
     77          1           0       -8.150717   -3.335946   -0.187676
     78          1           0        8.840482    2.717932   -1.429071
     79          1           0        8.366893    3.247483    0.309932
     80          1           0        7.014174    3.308179   -1.119233
     81          1           0       -6.065162    0.376910    0.446460
     82          1           0        6.063811   -0.202311   -0.058256
     83          1           0       -4.808367   -2.525695    0.293295
     84          1           0        5.186030    2.740351   -0.660977
     85          1           0       -3.720699    0.226710    0.073929
     86          1           0        3.621983    0.002876   -0.247513
     87          1           0       -2.786358   -3.033627    1.506100
     88          1           0       -1.138997   -3.177619    0.916093
     89          1           0       -2.762027   -3.385039   -0.089092
     90          1           0        3.148329    3.663198   -1.497456
     91          1           0        3.030866    3.858935    0.107898
     92          1           0        1.449943    3.593747   -0.620597
     93          1           0       -0.152203   -1.134492    0.133615
     94          1           0        1.406946   -0.008103   -0.139403
     95          1           0       -2.173370    1.202933   -0.249621
     96          1           0       -0.089039    2.580747   -0.484298
 ---------------------------------------------------------------------

 SCF Done:  E(RB3LYP) =  -1557.62254545     A.U. after   16 cycles

 Excitation energies and oscillator strengths:

 Excited State   1:      Singlet-A      1.9091 eV  649.42 nm  f=3.2787  <S**2>=0.000
     148 ->149         0.71300
     148 <-149        -0.15273
 This state for optimization and/or second-order correction.
 Total Energy, E(TD-HF/TD-DFT) =  -1557.55238571
 Copying the excited state density for this state as the 1-particle RhoCI density.

 The electronic state is 1-A.
 Alpha  occ. eigenvalues --  -10.21263 -10.20573 -10.20499 -10.20197 -10.20194
 Alpha  occ. eigenvalues --  -10.20032 -10.19858 -10.19776 -10.19711 -10.19710
 Alpha  occ. eigenvalues --  -10.19670 -10.19612 -10.19517 -10.19487 -10.19423
 Alpha  occ. eigenvalues --  -10.19360 -10.19184 -10.19112 -10.19039 -10.18970
 Alpha  occ. eigenvalues --  -10.18952 -10.18849 -10.18840 -10.18837 -10.18784
 Alpha  occ. eigenvalues --  -10.18719 -10.18703 -10.18624 -10.18573 -10.18432
 Alpha  occ. eigenvalues --  -10.18428 -10.18421 -10.18162 -10.18099 -10.17755
 Alpha  occ. eigenvalues --  -10.17504 -10.17439 -10.17388 -10.17048 -10.16493
 Alpha  occ. eigenvalues --   -0.85234  -0.84931  -0.83873  -0.83526  -0.82546
 Alpha  occ. eigenvalues --   -0.81628  -0.79207  -0.78560  -0.78351  -0.77491
 Alpha  occ. eigenvalues --   -0.76785  -0.75348  -0.74447  -0.72277  -0.71801
 Alpha  occ. eigenvalues --   -0.70445  -0.68842  -0.68434  -0.67936  -0.67781
 Alpha  occ. eigenvalues --   -0.67466  -0.67086  -0.66474  -0.65706  -0.65442
 Alpha  occ. eigenvalues --   -0.63395  -0.62148  -0.59843  -0.59263  -0.57186
 Alpha  occ. eigenvalues --   -0.56283  -0.55501  -0.55423  -0.54740  -0.53597
 Alpha  occ. eigenvalues --   -0.52276  -0.51906  -0.50259  -0.49822  -0.49327
 Alpha  occ. eigenvalues --   -0.48452  -0.47728  -0.47224  -0.46962  -0.46223
 Alpha  occ. eigenvalues --   -0.45584  -0.45386  -0.44843  -0.44730  -0.44233
 Alpha  occ. eigenvalues --   -0.44037  -0.43695  -0.43364  -0.42396  -0.42360
 Alpha  occ. eigenvalues --   -0.41885  -0.41604  -0.41377  -0.41047  -0.40761
 Alpha  occ. eigenvalues --   -0.40610  -0.40379  -0.40270  -0.40183  -0.39883
 Alpha  occ. eigenvalues --   -0.39291  -0.38863  -0.38732  -0.38544  -0.37883
 Alpha  occ. eigenvalues --   -0.37796  -0.37279  -0.37090  -0.36895  -0.36263
 Alpha  occ. eigenvalues --   -0.35907  -0.35866  -0.35793  -0.35303  -0.34957
 Alpha  occ. eigenvalues --   -0.34851  -0.34114  -0.33926  -0.33808  -0.33281
 Alpha  occ. eigenvalues --   -0.33205  -0.32949  -0.32711  -0.32601  -0.32434
 Alpha  occ. eigenvalues --   -0.32175  -0.32124  -0.31899  -0.31598  -0.31270
 Alpha  occ. eigenvalues --   -0.30597  -0.30574  -0.29735  -0.29502  -0.29113
 Alpha  occ. eigenvalues --   -0.28957  -0.28352  -0.26371  -0.24031  -0.22488
 Alpha  occ. eigenvalues --   -0.20814  -0.18981  -0.15697
 Alpha virt. eigenvalues --   -0.09158  -0.05468  -0.02390  -0.00285   0.01732
 Alpha virt. eigenvalues --    0.03917   0.06130   0.06386   0.07342   0.07543
 Alpha virt. eigenvalues --    0.07761   0.08493   0.08731   0.08955   0.09356

 Mulliken charges:
               1
     1  C    0.021730
     2  C   -0.009159
     3  C   -0.175560
     4  C   -0.159406
     5  C   -0.179833
     6  C   -0.168478
     7  C    0.073204
     8  C    0.088771
     9  C   -0.210586
    10  C   -0.229152
    11  C    0.031255
    12  C    0.079057
    13  C   -0.302341
    14  C   -0.306140
    15  C   -0.292152
    16  C   -0.289853
    17  C   -0.163519
    18  C   -0.152486
    19  C   -0.357453
    20  C   -0.357296
    21  C   -0.069737
    22  C   -0.036725
    23  C    0.106082
    24  C    0.111139
    25  C   -0.372311
    26  C   -0.372320
    27  C   -0.127292
    28  C   -0.114206
    29  C   -0.084965
    30  C   -0.067299
    31  C   -0.080330
    32  C   -0.108451
    33  C    0.119347
    34  C    0.118707
    35  C   -0.391762
    36  C   -0.378842
    37  C   -0.110793
    38  C   -0.099809
    39  C   -0.103847
    40  C   -0.098849
    41  H    0.076216
    42  H    0.078773
    43  H    0.092080
    44  H    0.093719
    45  H    0.087119
    46  H    0.097035
    47  H    0.101102
    48  H    0.076172
    49  H    0.109341
    50  H    0.093215
    51  H    0.100896
    52  H    0.083323
    53  H    0.068022
    54  H    0.103823
    55  H    0.115058
    56  H    0.106375
    57  H    0.101687
    58  H    0.094426
    59  H    0.085862
    60  H    0.076346
    61  H    0.103298
    62  H    0.065246
    63  H    0.091547
    64  H    0.098479
    65  H    0.079822
    66  H    0.075826
    67  H    0.096624
    68  H    0.128784
    69  H    0.117489
    70  H    0.123556
    71  H    0.091130
    72  H    0.097538
    73  H    0.060974
    74  H    0.069396
    75  H    0.132735
    76  H    0.103584
    77  H    0.131818
    78  H    0.095762
    79  H    0.120392
    80  H    0.108887
    81  H    0.055030
    82  H    0.050286
    83  H    0.079798
    84  H    0.058818
    85  H    0.060948
    86  H    0.080243
    87  H    0.122523
    88  H    0.071499
    89  H    0.128296
    90  H    0.123744
    91  H    0.129659
    92  H    0.099395
    93  H    0.082588
    94  H    0.077097
    95  H    0.089275
    96  H    0.078985
 Sum of Mulliken charges =  -0.00000

 Dipole moment (field-independent basis, Debye):
    X=             -0.2644    Y=             -0.1568    Z=              0.1836  Tot=              0.3581
 Quadrupole moment (field-independent basis, Debye-Ang):
   XX=           -224.7532   YY=           -234.7882   ZZ=           -255.2531
   XY=             -3.1559   XZ=             -1.4721   YZ=             -0.9077

 Normal termination of Gaussian 16 at Wed Jul 31 11:16:22 2019.
