 Gaussian 16, Revision A.03,
 Gaussian 16:  ES64L-G16RevA.03 25-Dec-2016

 ---------------------------------
 # td=(NStates=1) B3LYP/6-31G(d,p)
 ---------------------------------

 --
 TD
 --
 Symbolic Z-matrix:
 Charge =  0 Multiplicity = 1

                         Standard orientation:
 ---------------------------------------------------------------------
 Center     Atomic      Atomic             Coordinates (Angstroms)
 Number     Number       Type             X           Y           Z
 ---------------------------------------------------------------------
      1          6           0      -12.030769   -0.619660   -0.709802
      2          6           0       12.097414    0.020952    0.965552
      3          6           0      -13.433285    0.141322   -0.437373
      4          6           0       12.912309   -1.311878    1.387348
      5          6           0      -13.272183    1.576240   -0.571930
      6          6           0       13.377845   -2.200769    0.184082
      7          6           0      -10.961576   -0.009416    0.212780
      8          6           0       10.978539   -0.430176   -0.034682
      9          6           0      -12.538226    1.911338    0.765693
     10          6           0       12.139766   -2.596979   -0.711765
     11          6           0      -11.125326    1.136210    0.860758
     12          6           0       11.007442   -1.582315   -0.870211
     13          6           0      -11.660844   -0.416539   -2.135454
     14          6           0      -12.317976   -2.111766   -0.396922
     15          6           0       13.019882    1.077041    0.309074
     16          6           0       11.471045    0.517204    2.218647
     17          6           0       -9.875685   -0.899515    0.378583
     18          6           0        9.867544    0.593432   -0.259745
     19          6           0      -10.134974    1.842770    1.823880
     20          6           0        9.976326   -1.876536   -1.863408
     21          6           0       -8.548437   -0.444694    0.376533
     22          6           0        8.487586    0.274148   -0.221998
     23          6           0       -7.349270   -1.269827    0.365753
     24          6           0        7.494075    1.281622   -0.393029
     25          6           0       -7.508894   -2.748630    0.542426
     26          6           0        7.831244    2.724486   -0.696788
     27          6           0       -6.069179   -0.713985    0.374770
     28          6           0        6.196458    0.905568   -0.356821
     29          6           0       -4.851263   -1.347703    0.211182
     30          6           0        4.997672    1.714301   -0.511987
     31          6           0       -3.691205   -0.715637    0.261270
     32          6           0        3.761411    1.179894   -0.406629
     33          6           0       -2.357181   -1.220073    0.426599
     34          6           0        2.580829    1.920079   -0.425893
     35          6           0       -2.245441   -2.704281    0.493377
     36          6           0        2.533312    3.398168   -0.671617
     37          6           0       -1.171775   -0.444506    0.234740
     38          6           0        1.313067    1.258582   -0.264132
     39          6           0       -1.084271    0.899041   -0.104800
     40          6           0        0.000929    1.738554   -0.310821
     41          1           0      -13.867052   -0.245338    0.339422
     42          1           0      -14.025288   -0.070857   -1.301011
     43          1           0       12.366218   -2.025321    2.118259
     44          1           0       13.860171   -1.049147    1.958368
     45          1           0      -14.324669    2.075492   -0.524877
     46          1           0      -12.813896    1.740305   -1.512156
     47          1           0       13.706440   -2.996166    0.555543
     48          1           0       14.259428   -1.809708   -0.454615
     49          1           0      -13.182115    1.395147    1.548315
     50          1           0      -12.267815    2.915095    0.750309
     51          1           0       11.873852   -3.573166   -0.217990
     52          1           0       12.733880   -2.915862   -1.584919
     53          1           0      -11.608953    0.727826   -2.641366
     54          1           0      -12.577803   -0.854964   -2.595892
     55          1           0      -10.503627   -0.886088   -2.382553
     56          1           0      -12.370586   -2.163715    0.709403
     57          1           0      -11.630410   -2.735394   -0.763858
     58          1           0      -13.354894   -2.221322   -0.761793
     59          1           0       13.606717    0.591043   -0.573665
     60          1           0       13.911407    1.141465    0.959876
     61          1           0       12.445383    1.782772    0.020357
     62          1           0       10.888590   -0.372209    2.675906
     63          1           0       10.918328    1.500605    2.008020
     64          1           0       12.272814    0.823696    2.796452
     65          1           0       -9.937980   -1.964683    0.318627
     66          1           0       10.214523    1.507938   -0.181098
     67          1           0       -9.275597    1.074103    2.221373
     68          1           0      -10.763594    2.055743    2.820689
     69          1           0       -9.802290    2.824025    1.649644
     70          1           0        9.448072   -0.995152   -2.360139
     71          1           0        9.140562   -2.488633   -1.460679
     72          1           0       10.554401   -2.225202   -2.647677
     73          1           0       -8.230995    0.726198    0.602271
     74          1           0        8.031984   -0.710662   -0.065868
     75          1           0       -8.038871   -3.129838    1.379239
     76          1           0       -6.579014   -3.211355    0.692165
     77          1           0       -8.066323   -3.071900   -0.292404
     78          1           0        8.568014    2.816995   -1.559148
     79          1           0        8.633894    3.423729    0.001333
     80          1           0        6.905720    3.294604   -0.820936
     81          1           0       -5.960820    0.342690    0.523202
     82          1           0        5.821530   -0.261691   -0.323521
     83          1           0       -4.941663   -2.480554    0.091597
     84          1           0        5.093526    2.738703   -0.492855
     85          1           0       -3.740644    0.402926    0.388695
     86          1           0        3.654459    0.092864   -0.382666
     87          1           0       -2.551232   -3.088108    1.541895
     88          1           0       -1.212431   -2.902687    0.401278
     89          1           0       -2.755491   -3.277614   -0.289165
     90          1           0        2.953527    3.791830   -1.799695
     91          1           0        3.009172    3.885655    0.184184
     92          1           0        1.502529    3.855423   -0.835321
     93          1           0       -0.096245   -0.862245    0.116238
     94          1           0        1.506516    0.147711   -0.177412
     95          1           0       -2.123559    1.247653   -0.152621
     96          1           0       -0.179393    2.990942   -0.440213
 ---------------------------------------------------------------------

 SCF Done:  E(RB3LYP) =  -1557.53658771     A.U. after   16 cycles

 Excitation energies and oscillator strengths:

 Excited State   1:      Singlet-A      1.8816 eV  658.92 nm  f=3.2451  <S**2>=0.000
     148 ->149         0.71358
     148 <-149        -0.14684
 This state for optimization and/or second-order correction.
 Total Energy, E(TD-HF/TD-DFT) =  -1557.46743941
 Copying the excited state density for this state as the 1-particle RhoCI density.

 The electronic state is 1-A.
 Alpha  occ. eigenvalues --  -10.20872 -10.20661 -10.20203 -10.20135 -10.20020
 Alpha  occ. eigenvalues --  -10.20007 -10.19866 -10.19810 -10.19728 -10.19715
 Alpha  occ. eigenvalues --  -10.19688 -10.19581 -10.19559 -10.19530 -10.19448
 Alpha  occ. eigenvalues --  -10.19405 -10.19180 -10.18948 -10.18746 -10.18740
 Alpha  occ. eigenvalues --  -10.18703 -10.18692 -10.18654 -10.18572 -10.18559
 Alpha  occ. eigenvalues --  -10.18435 -10.18267 -10.18188 -10.18170 -10.18062
 Alpha  occ. eigenvalues --  -10.17919 -10.17700 -10.17537 -10.17230 -10.16955
 Alpha  occ. eigenvalues --  -10.16949 -10.16898 -10.16752 -10.16658 -10.15707
 Alpha  occ. eigenvalues --   -0.85724  -0.83904  -0.83661  -0.83198  -0.82110
 Alpha  occ. eigenvalues --   -0.81372  -0.79521  -0.78420  -0.78303  -0.77902
 Alpha  occ. eigenvalues --   -0.76583  -0.75771  -0.74409  -0.72164  -0.71900
 Alpha  occ. eigenvalues --   -0.69807  -0.69014  -0.68749  -0.68519  -0.67702
 Alpha  occ. eigenvalues --   -0.67546  -0.67167  -0.66425  -0.66173  -0.65126
 Alpha  occ. eigenvalues --   -0.63214  -0.61913  -0.59640  -0.58838  -0.57401
 Alpha  occ. eigenvalues --   -0.56492  -0.55525  -0.54963  -0.54051  -0.53319
 Alpha  occ. eigenvalues --   -0.52722  -0.51587  -0.50195  -0.49747  -0.49074
 Alpha  occ. eigenvalues --   -0.48138  -0.48023  -0.47397  -0.46448  -0.46226
 Alpha  occ. eigenvalues --   -0.45355  -0.45076  -0.45029  -0.44713  -0.44487
 Alpha  occ. eigenvalues --   -0.43870  -0.43659  -0.43262  -0.43191  -0.42595
 Alpha  occ. eigenvalues --   -0.42135  -0.41977  -0.41786  -0.41503  -0.41234
 Alpha  occ. eigenvalues --   -0.40893  -0.40722  -0.40356  -0.40007  -0.38921
 Alpha  occ. eigenvalues --   -0.38821  -0.38663  -0.38147  -0.38004  -0.37981
 Alpha  occ. eigenvalues --   -0.37612  -0.37392  -0.37144  -0.37041  -0.36719
 Alpha  occ. eigenvalues --   -0.36494  -0.36346  -0.36115  -0.36023  -0.35951
 Alpha  occ. eigenvalues --   -0.35534  -0.34398  -0.33848  -0.33810  -0.33751
 Alpha  occ. eigenvalues --   -0.33369  -0.33248  -0.33028  -0.32719  -0.32543
 Alpha  occ. eigenvalues --   -0.31808  -0.31500  -0.31335  -0.31050  -0.30646
 Alpha  occ. eigenvalues --   -0.30246  -0.29577  -0.29036  -0.28728  -0.28618
 Alpha  occ. eigenvalues --   -0.28121  -0.27226  -0.26086  -0.23993  -0.22635
 Alpha  occ. eigenvalues --   -0.20504  -0.18521  -0.15624
 Alpha virt. eigenvalues --   -0.09103  -0.05267  -0.02294   0.00619   0.02709
 Alpha virt. eigenvalues --    0.04177   0.06031   0.06279   0.06673   0.07255
 Alpha virt. eigenvalues --    0.07436   0.08202   0.08336   0.08498   0.09183

 Mulliken charges:
               1
     1  C   -0.034146
     2  C   -0.022317
     3  C   -0.175337
     4  C   -0.186435
     5  C   -0.171981
     6  C   -0.178049
     7  C    0.127968
     8  C    0.051691
     9  C   -0.208902
    10  C   -0.233703
    11  C    0.040558
    12  C    0.069308
    13  C   -0.263333
    14  C   -0.306381
    15  C   -0.285441
    16  C   -0.267978
    17  C   -0.152392
    18  C   -0.137117
    19  C   -0.366814
    20  C   -0.357518
    21  C   -0.103843
    22  C   -0.088254
    23  C    0.099777
    24  C    0.159537
    25  C   -0.376081
    26  C   -0.367398
    27  C   -0.124570
    28  C   -0.142639
    29  C   -0.044471
    30  C   -0.072370
    31  C   -0.123603
    32  C   -0.108614
    33  C    0.085626
    34  C    0.124234
    35  C   -0.370856
    36  C   -0.365091
    37  C   -0.106406
    38  C   -0.117830
    39  C   -0.070204
    40  C   -0.095223
    41  H    0.095696
    42  H    0.076002
    43  H    0.080026
    44  H    0.071682
    45  H    0.070589
    46  H    0.101427
    47  H    0.102635
    48  H    0.075015
    49  H    0.110501
    50  H    0.097105
    51  H    0.095906
    52  H    0.097721
    53  H    0.079347
    54  H    0.099635
    55  H    0.077604
    56  H    0.105459
    57  H    0.113157
    58  H    0.101923
    59  H    0.093707
    60  H    0.104798
    61  H    0.107759
    62  H    0.100460
    63  H    0.080535
    64  H    0.102847
    65  H    0.088776
    66  H    0.075793
    67  H    0.103980
    68  H    0.081990
    69  H    0.129592
    70  H    0.110097
    71  H    0.114955
    72  H    0.111332
    73  H    0.073567
    74  H    0.085528
    75  H    0.125071
    76  H    0.108280
    77  H    0.120480
    78  H    0.121344
    79  H    0.073597
    80  H    0.114559
    81  H    0.070165
    82  H    0.058599
    83  H    0.076474
    84  H    0.081344
    85  H    0.075732
    86  H    0.076044
    87  H    0.106499
    88  H    0.113537
    89  H    0.123620
    90  H    0.082803
    91  H    0.125952
    92  H    0.105490
    93  H    0.070514
    94  H    0.072890
    95  H    0.069621
    96  H    0.076842
 Sum of Mulliken charges =  -0.00000

 Dipole moment (field-independent basis, Debye):
    X=             -1.3185    Y=             -0.5657    Z=              0.1575  Tot=              1.4433
 Quadrupole moment (field-independent basis, Debye-Ang):
   XX=           -203.3128   YY=           -234.4659   ZZ=           -257.2253
   XY=              2.0639   XZ=             -3.0385   YZ=             -2.2887

 Normal termination of Gaussian 16 at Tue Jul 30 03:00:40 2019.
