 Gaussian 16, Revision A.03,
 Gaussian 16:  ES64L-G16RevA.03 25-Dec-2016

 ---------------------------------
 # td=(NStates=1) B3LYP/6-31G(d,p)
 ---------------------------------

 --
 TD
 --
 Symbolic Z-matrix:
 Charge =  0 Multiplicity = 1

                         Standard orientation:
 ---------------------------------------------------------------------
 Center     Atomic      Atomic             Coordinates (Angstroms)
 Number     Number       Type             X           Y           Z
 ---------------------------------------------------------------------
      1          6           0       12.124036    0.410729   -0.611750
      2          6           0      -12.006893   -0.043548    0.894142
      3          6           0       13.411838   -0.471826   -0.722088
      4          6           0      -12.827095    1.155879    1.422864
      5          6           0       13.030059   -1.890717   -0.539773
      6          6           0      -13.404933    2.041476    0.343473
      7          6           0       11.053744    0.018862    0.366050
      8          6           0      -10.867126    0.400546   -0.072703
      9          6           0       12.158738   -2.207939    0.730873
     10          6           0      -12.114706    2.624957   -0.408751
     11          6           0       11.139542   -1.184488    0.989414
     12          6           0      -11.025242    1.544582   -0.752102
     13          6           0       11.483731    0.477255   -2.023625
     14          6           0       12.501410    1.913718   -0.231076
     15          6           0      -12.979940   -1.154761    0.407335
     16          6           0      -11.186358   -0.686391    2.129277
     17          6           0        9.826792    0.926117    0.497622
     18          6           0       -9.873624   -0.640713   -0.223031
     19          6           0       10.180236   -1.695582    2.077057
     20          6           0      -10.125050    2.024888   -1.822208
     21          6           0        8.574209    0.502908    0.208366
     22          6           0       -8.507279   -0.319912   -0.333295
     23          6           0        7.341320    1.416956    0.397395
     24          6           0       -7.517952   -1.382391   -0.441971
     25          6           0        7.673029    2.840865    0.708688
     26          6           0       -7.846544   -2.804922   -0.712021
     27          6           0        6.126951    0.792447    0.191626
     28          6           0       -6.209016   -0.862666   -0.365667
     29          6           0        4.864685    1.512189    0.309648
     30          6           0       -5.051622   -1.578865   -0.582227
     31          6           0        3.668510    0.831195   -0.054244
     32          6           0       -3.781061   -1.098742   -0.304314
     33          6           0        2.278642    1.342602   -0.014483
     34          6           0       -2.527572   -1.797998   -0.433684
     35          6           0        2.255479    2.799617    0.300515
     36          6           0       -2.530171   -3.314796   -0.742186
     37          6           0        1.156266    0.606765   -0.067664
     38          6           0       -1.353596   -1.082273   -0.200714
     39          6           0        1.011536   -0.825397   -0.101701
     40          6           0       -0.003066   -1.589039   -0.268789
     41          1           0       14.018336   -0.167590    0.237598
     42          1           0       13.853258   -0.248667   -1.647054
     43          1           0      -12.286612    1.713471    2.107751
     44          1           0      -13.629892    0.854134    1.844424
     45          1           0       13.743226   -2.433300   -0.562845
     46          1           0       12.452858   -2.240746   -1.344644
     47          1           0      -14.132804    2.754331    0.621282
     48          1           0      -13.924517    1.587811   -0.547419
     49          1           0       12.707254   -2.417820    1.565158
     50          1           0       11.740215   -3.193636    0.698950
     51          1           0      -11.846304    3.417206    0.169362
     52          1           0      -12.436743    3.119783   -1.488107
     53          1           0       11.286245   -0.625602   -2.332287
     54          1           0       12.105302    0.954005   -2.947984
     55          1           0       10.568728    1.160788   -2.015236
     56          1           0       12.951140    1.976470    0.723304
     57          1           0       11.623642    2.629176   -0.192253
     58          1           0       13.209967    2.646824   -0.778999
     59          1           0      -13.747357   -0.832201   -0.401430
     60          1           0      -13.630708   -1.477138    1.352353
     61          1           0      -12.435781   -1.959553    0.103879
     62          1           0      -10.577208    0.077466    2.322252
     63          1           0      -10.565680   -1.468013    1.548262
     64          1           0      -12.072148   -0.956941    2.828478
     65          1           0       10.132099    1.977307    0.824144
     66          1           0      -10.177518   -1.737099    0.095539
     67          1           0        9.587230   -0.756628    2.447403
     68          1           0       10.703926   -1.905347    3.040525
     69          1           0        9.507536   -2.485878    1.716608
     70          1           0       -9.738239    1.108637   -2.296279
     71          1           0       -9.177178    2.644925   -1.314586
     72          1           0      -10.622496    2.480479   -2.704808
     73          1           0        8.317541   -0.564040   -0.298987
     74          1           0       -8.237214    0.726419   -0.313458
     75          1           0        8.389105    3.059186    1.523721
     76          1           0        6.685317    3.416924    0.886123
     77          1           0        8.205031    3.384698   -0.135999
     78          1           0       -8.114350   -3.082482   -1.764673
     79          1           0       -8.629551   -3.130696   -0.046951
     80          1           0       -6.942248   -3.409694   -0.438857
     81          1           0        6.207696   -0.285652   -0.091225
     82          1           0       -6.221384    0.120333    0.043989
     83          1           0        4.904420    2.622080    0.323197
     84          1           0       -5.055943   -2.576192   -0.649533
     85          1           0        3.801417   -0.285000   -0.168725
     86          1           0       -3.649172   -0.080625   -0.261632
     87          1           0        2.561124    3.309827    1.232698
     88          1           0        1.176168    3.239367    0.293620
     89          1           0        2.921695    3.499917   -0.469004
     90          1           0       -3.055569   -3.621302   -1.669344
     91          1           0       -2.803517   -3.858471    0.274539
     92          1           0       -1.580190   -3.537412   -0.816976
     93          1           0        0.282967    1.214186   -0.077492
     94          1           0       -1.567122    0.098027   -0.112279
     95          1           0        2.085793   -1.074695    0.017596
     96          1           0        0.396784   -2.690854   -0.619385
 ---------------------------------------------------------------------

 SCF Done:  E(RB3LYP) =  -1557.54398942     A.U. after   16 cycles

 Excitation energies and oscillator strengths:

 Excited State   1:      Singlet-A      2.1703 eV  571.29 nm  f=2.7602  <S**2>=0.000
     148 ->149         0.69897
     148 ->150         0.11649
 This state for optimization and/or second-order correction.
 Total Energy, E(TD-HF/TD-DFT) =  -1557.46423383
 Copying the excited state density for this state as the 1-particle RhoCI density.

 The electronic state is 1-A.
 Alpha  occ. eigenvalues --  -10.20697 -10.20464 -10.20439 -10.20298 -10.20298
 Alpha  occ. eigenvalues --  -10.20266 -10.20110 -10.20088 -10.20043 -10.20010
 Alpha  occ. eigenvalues --  -10.19878 -10.19740 -10.19684 -10.19665 -10.19398
 Alpha  occ. eigenvalues --  -10.19260 -10.19225 -10.18983 -10.18909 -10.18541
 Alpha  occ. eigenvalues --  -10.18492 -10.18430 -10.18387 -10.18376 -10.18321
 Alpha  occ. eigenvalues --  -10.18293 -10.18247 -10.18179 -10.18085 -10.17929
 Alpha  occ. eigenvalues --  -10.17915 -10.17900 -10.17847 -10.17508 -10.17321
 Alpha  occ. eigenvalues --  -10.17298 -10.16822 -10.16695 -10.15221 -10.15056
 Alpha  occ. eigenvalues --   -0.84765  -0.84650  -0.83852  -0.83022  -0.81892
 Alpha  occ. eigenvalues --   -0.81143  -0.79127  -0.77994  -0.77849  -0.77463
 Alpha  occ. eigenvalues --   -0.77076  -0.75386  -0.74560  -0.71942  -0.71569
 Alpha  occ. eigenvalues --   -0.69791  -0.69393  -0.68135  -0.67881  -0.67488
 Alpha  occ. eigenvalues --   -0.67130  -0.66939  -0.66759  -0.66216  -0.66077
 Alpha  occ. eigenvalues --   -0.62784  -0.62262  -0.60540  -0.59476  -0.57102
 Alpha  occ. eigenvalues --   -0.56288  -0.55537  -0.54780  -0.54593  -0.53529
 Alpha  occ. eigenvalues --   -0.52636  -0.51889  -0.50466  -0.49333  -0.48708
 Alpha  occ. eigenvalues --   -0.48270  -0.47969  -0.47083  -0.46827  -0.46201
 Alpha  occ. eigenvalues --   -0.45660  -0.45074  -0.44733  -0.44144  -0.43879
 Alpha  occ. eigenvalues --   -0.43395  -0.42812  -0.42693  -0.42411  -0.42363
 Alpha  occ. eigenvalues --   -0.42090  -0.41777  -0.41603  -0.40899  -0.40676
 Alpha  occ. eigenvalues --   -0.40317  -0.40035  -0.39813  -0.39409  -0.39311
 Alpha  occ. eigenvalues --   -0.39102  -0.38987  -0.38667  -0.38401  -0.38370
 Alpha  occ. eigenvalues --   -0.38007  -0.37606  -0.37116  -0.37074  -0.36708
 Alpha  occ. eigenvalues --   -0.36680  -0.36226  -0.35775  -0.35536  -0.35351
 Alpha  occ. eigenvalues --   -0.34948  -0.34663  -0.34516  -0.34152  -0.33690
 Alpha  occ. eigenvalues --   -0.33571  -0.33367  -0.33326  -0.32731  -0.32239
 Alpha  occ. eigenvalues --   -0.32191  -0.32056  -0.31257  -0.30812  -0.30350
 Alpha  occ. eigenvalues --   -0.29606  -0.29381  -0.29280  -0.28837  -0.28521
 Alpha  occ. eigenvalues --   -0.27630  -0.27502  -0.26365  -0.24215  -0.22499
 Alpha  occ. eigenvalues --   -0.21443  -0.19012  -0.16431
 Alpha virt. eigenvalues --   -0.08290  -0.05476  -0.01683   0.00548   0.02306
 Alpha virt. eigenvalues --    0.03846   0.05067   0.05948   0.06439   0.06975
 Alpha virt. eigenvalues --    0.07147   0.07970   0.08092   0.08627   0.08821

 Mulliken charges:
               1
     1  C    0.000480
     2  C   -0.054748
     3  C   -0.168313
     4  C   -0.142318
     5  C   -0.152786
     6  C   -0.206448
     7  C    0.071773
     8  C    0.129962
     9  C   -0.238616
    10  C   -0.215000
    11  C    0.066130
    12  C    0.039103
    13  C   -0.286172
    14  C   -0.326896
    15  C   -0.279387
    16  C   -0.273512
    17  C   -0.152287
    18  C   -0.184927
    19  C   -0.367888
    20  C   -0.357081
    21  C   -0.077904
    22  C   -0.089827
    23  C    0.127974
    24  C    0.103861
    25  C   -0.381676
    26  C   -0.372122
    27  C   -0.114756
    28  C   -0.101105
    29  C   -0.087878
    30  C   -0.082170
    31  C   -0.135454
    32  C   -0.109397
    33  C    0.128473
    34  C    0.106448
    35  C   -0.378811
    36  C   -0.360880
    37  C   -0.102126
    38  C   -0.143193
    39  C   -0.053011
    40  C   -0.098176
    41  H    0.075673
    42  H    0.105476
    43  H    0.093874
    44  H    0.089008
    45  H    0.079357
    46  H    0.097186
    47  H    0.088971
    48  H    0.092989
    49  H    0.109771
    50  H    0.099378
    51  H    0.118636
    52  H    0.051494
    53  H    0.084960
    54  H    0.069755
    55  H    0.102439
    56  H    0.104255
    57  H    0.084654
    58  H    0.082031
    59  H    0.092776
    60  H    0.077233
    61  H    0.105727
    62  H    0.116277
    63  H    0.077299
    64  H    0.085371
    65  H    0.092504
    66  H    0.088933
    67  H    0.100089
    68  H    0.104441
    69  H    0.114759
    70  H    0.118106
    71  H    0.088218
    72  H    0.106621
    73  H    0.081020
    74  H    0.094369
    75  H    0.127644
    76  H    0.094654
    77  H    0.122476
    78  H    0.127290
    79  H    0.120279
    80  H    0.109654
    81  H    0.085870
    82  H    0.079319
    83  H    0.093182
    84  H    0.076341
    85  H    0.079061
    86  H    0.065746
    87  H    0.132241
    88  H    0.087707
    89  H    0.083043
    90  H    0.121038
    91  H    0.107414
    92  H    0.121385
    93  H    0.064934
    94  H    0.087020
    95  H    0.068684
    96  H    0.092031
 Sum of Mulliken charges =  -0.00000

 Dipole moment (field-independent basis, Debye):
    X=              0.4734    Y=             -0.4874    Z=              0.1279  Tot=              0.6914
 Quadrupole moment (field-independent basis, Debye-Ang):
   XX=           -231.4463   YY=           -232.0384   ZZ=           -256.1668
   XY=             -2.8315   XZ=              2.4313   YZ=              5.3540

 Normal termination of Gaussian 16 at Sat Jul 27 07:42:28 2019.
