 Gaussian 16, Revision A.03,
 Gaussian 16:  ES64L-G16RevA.03 25-Dec-2016

 ---------------------------------
 # td=(NStates=1) B3LYP/6-31G(d,p)
 ---------------------------------

 --
 TD
 --
 Symbolic Z-matrix:
 Charge =  0 Multiplicity = 1

                         Standard orientation:
 ---------------------------------------------------------------------
 Center     Atomic      Atomic             Coordinates (Angstroms)
 Number     Number       Type             X           Y           Z
 ---------------------------------------------------------------------
      1          6           0       12.178664   -0.553020    0.693175
      2          6           0      -12.091704    0.111992   -0.903831
      3          6           0       13.438980    0.337917    0.762967
      4          6           0      -12.970500   -1.079001   -1.441853
      5          6           0       13.229208    1.823502    0.693249
      6          6           0      -13.383510   -2.033959   -0.294854
      7          6           0       11.023001    0.058638   -0.292950
      8          6           0      -11.106057   -0.386724    0.173902
      9          6           0       12.412092    2.103759   -0.533479
     10          6           0      -12.164852   -2.629970    0.458576
     11          6           0       11.128618    1.142286   -0.957889
     12          6           0      -11.109393   -1.591539    0.898172
     13          6           0       11.697659   -0.610758    2.066825
     14          6           0       12.615887   -1.930525    0.150614
     15          6           0      -13.048560    1.102560   -0.285836
     16          6           0      -11.411270    0.767952   -2.102063
     17          6           0        9.870290   -0.887271   -0.330418
     18          6           0       -9.905703    0.527600    0.369619
     19          6           0       10.067159    1.819480   -1.800354
     20          6           0      -10.188086   -1.978198    2.049678
     21          6           0        8.542258   -0.444203   -0.348936
     22          6           0       -8.611792    0.263376    0.502855
     23          6           0        7.407104   -1.266750   -0.434727
     24          6           0       -7.547144    1.238715    0.498513
     25          6           0        7.632945   -2.715191   -0.688977
     26          6           0       -7.938969    2.700000    0.639053
     27          6           0        6.202032   -0.797993   -0.322788
     28          6           0       -6.206069    0.799769    0.465348
     29          6           0        4.821924   -1.393444   -0.431970
     30          6           0       -5.081599    1.543105    0.525439
     31          6           0        3.711234   -0.786701   -0.209069
     32          6           0       -3.809690    1.025033    0.234246
     33          6           0        2.462764   -1.255824   -0.361204
     34          6           0       -2.524446    1.691223    0.318890
     35          6           0        2.337128   -2.800167   -0.767015
     36          6           0       -2.568224    3.253397    0.306121
     37          6           0        1.264156   -0.571589   -0.178405
     38          6           0       -1.368861    1.047457    0.300099
     39          6           0        1.134938    0.857500    0.175930
     40          6           0       -0.056812    1.577430    0.479453
     41          1           0       14.307230    0.093980    0.003152
     42          1           0       13.927577    0.209179    1.788879
     43          1           0      -12.369984   -1.640140   -2.218363
     44          1           0      -13.886292   -0.674142   -1.773638
     45          1           0       14.190901    2.349216    0.789508
     46          1           0       12.562185    2.127324    1.766500
     47          1           0      -14.240646   -2.554492   -0.700981
     48          1           0      -13.946221   -1.298449    0.460011
     49          1           0       12.976424    2.201765   -1.446421
     50          1           0       11.833455    3.172195   -0.615397
     51          1           0      -11.757134   -3.313031   -0.167385
     52          1           0      -12.712017   -3.110802    1.351818
     53          1           0       11.366050    0.302684    2.539953
     54          1           0       12.549163   -0.840965    2.862253
     55          1           0       11.020261   -1.236162    2.156432
     56          1           0       13.092568   -2.179134   -0.955014
     57          1           0       11.880471   -2.651925    0.218363
     58          1           0       13.577945   -2.557799    0.883684
     59          1           0      -13.561405    0.645826    0.607222
     60          1           0      -13.723335    1.549163   -0.893234
     61          1           0      -12.314288    1.977603    0.005679
     62          1           0      -10.517159    0.116617   -2.374972
     63          1           0      -10.838971    1.699033   -1.989813
     64          1           0      -12.116391    0.827580   -3.076085
     65          1           0       10.095996   -1.995196   -0.298917
     66          1           0       -9.981576    1.561032    0.278619
     67          1           0        9.247115    1.122977   -2.081029
     68          1           0       10.648869    2.171498   -2.732590
     69          1           0        9.696158    2.621493   -1.278243
     70          1           0       -9.569748   -1.309747    2.439521
     71          1           0       -9.579098   -2.987366    1.883694
     72          1           0      -10.724511   -2.162306    2.984707
     73          1           0        8.457180    0.696534   -0.258949
     74          1           0       -8.423644   -0.831160    0.157084
     75          1           0        7.891116   -2.853556   -1.810946
     76          1           0        6.589463   -3.220376   -0.559269
     77          1           0        8.556115   -3.072509   -0.085597
     78          1           0       -8.506795    3.045579    1.544223
     79          1           0       -8.594942    3.147753   -0.170099
     80          1           0       -7.103095    3.345808    0.480023
     81          1           0        5.981165    0.181214   -0.029394
     82          1           0       -6.189273   -0.385302    0.418539
     83          1           0        4.794370   -2.404276   -0.677045
     84          1           0       -4.986526    2.612075    0.803089
     85          1           0        3.921750    0.366454    0.132529
     86          1           0       -3.961854   -0.038368   -0.033644
     87          1           0        2.878499   -3.101969   -1.643945
     88          1           0        1.330215   -3.064752   -0.956287
     89          1           0        2.687678   -3.157169    0.203488
     90          1           0       -2.934685    3.777747    1.374218
     91          1           0       -3.271139    3.591296   -0.591510
     92          1           0       -1.652264    3.694410    0.337302
     93          1           0        0.188727   -1.071094   -0.314027
     94          1           0       -1.514877   -0.026269    0.296741
     95          1           0        2.128914    1.387237    0.115309
     96          1           0        0.091536    2.664008    0.393610
 ---------------------------------------------------------------------

 SCF Done:  E(RB3LYP) =  -1557.54040642     A.U. after   16 cycles

 Excitation energies and oscillator strengths:

 Excited State   1:      Singlet-A      2.1387 eV  579.71 nm  f=2.8155  <S**2>=0.000
     148 ->149         0.70314
     148 <-149        -0.10036
 This state for optimization and/or second-order correction.
 Total Energy, E(TD-HF/TD-DFT) =  -1557.46180960
 Copying the excited state density for this state as the 1-particle RhoCI density.

 The electronic state is 1-A.
 Alpha  occ. eigenvalues --  -10.20808 -10.20552 -10.20486 -10.20427 -10.20426
 Alpha  occ. eigenvalues --  -10.20310 -10.20302 -10.20068 -10.19974 -10.19955
 Alpha  occ. eigenvalues --  -10.19952 -10.19822 -10.19776 -10.19719 -10.19673
 Alpha  occ. eigenvalues --  -10.19650 -10.19412 -10.19328 -10.19107 -10.19080
 Alpha  occ. eigenvalues --  -10.18963 -10.18916 -10.18563 -10.18552 -10.18443
 Alpha  occ. eigenvalues --  -10.18413 -10.18406 -10.18393 -10.18357 -10.18354
 Alpha  occ. eigenvalues --  -10.18341 -10.18320 -10.18231 -10.18084 -10.17981
 Alpha  occ. eigenvalues --  -10.17876 -10.17364 -10.17316 -10.16906 -10.15811
 Alpha  occ. eigenvalues --   -0.85179  -0.84591  -0.84338  -0.83238  -0.82824
 Alpha  occ. eigenvalues --   -0.81783  -0.79208  -0.78766  -0.78076  -0.77453
 Alpha  occ. eigenvalues --   -0.76750  -0.75367  -0.74204  -0.72372  -0.71893
 Alpha  occ. eigenvalues --   -0.69617  -0.68969  -0.68612  -0.68436  -0.68063
 Alpha  occ. eigenvalues --   -0.67944  -0.67603  -0.66963  -0.66340  -0.66140
 Alpha  occ. eigenvalues --   -0.63399  -0.61762  -0.59649  -0.58657  -0.57666
 Alpha  occ. eigenvalues --   -0.56832  -0.56075  -0.54718  -0.53869  -0.53031
 Alpha  occ. eigenvalues --   -0.52628  -0.51799  -0.50824  -0.50041  -0.48581
 Alpha  occ. eigenvalues --   -0.48258  -0.47319  -0.46828  -0.46570  -0.46393
 Alpha  occ. eigenvalues --   -0.45852  -0.45301  -0.44774  -0.44458  -0.44237
 Alpha  occ. eigenvalues --   -0.44044  -0.43379  -0.43138  -0.42914  -0.42532
 Alpha  occ. eigenvalues --   -0.42114  -0.41787  -0.41446  -0.41115  -0.40942
 Alpha  occ. eigenvalues --   -0.40496  -0.40175  -0.40013  -0.39935  -0.39327
 Alpha  occ. eigenvalues --   -0.39008  -0.38706  -0.38558  -0.38265  -0.38184
 Alpha  occ. eigenvalues --   -0.37921  -0.37548  -0.37442  -0.37130  -0.36506
 Alpha  occ. eigenvalues --   -0.36265  -0.36167  -0.36023  -0.35745  -0.35319
 Alpha  occ. eigenvalues --   -0.34458  -0.34251  -0.33792  -0.33636  -0.33524
 Alpha  occ. eigenvalues --   -0.32986  -0.32856  -0.32746  -0.32475  -0.32376
 Alpha  occ. eigenvalues --   -0.32219  -0.31936  -0.31463  -0.30982  -0.30689
 Alpha  occ. eigenvalues --   -0.30242  -0.29877  -0.29649  -0.29412  -0.28619
 Alpha  occ. eigenvalues --   -0.28255  -0.27834  -0.27010  -0.25414  -0.23192
 Alpha  occ. eigenvalues --   -0.21523  -0.19254  -0.16476
 Alpha virt. eigenvalues --   -0.08465  -0.05380  -0.02183   0.00461   0.02584
 Alpha virt. eigenvalues --    0.05293   0.06126   0.06416   0.06827   0.07264
 Alpha virt. eigenvalues --    0.07587   0.07795   0.08345   0.08762   0.09118

 Mulliken charges:
               1
     1  C    0.013330
     2  C    0.008594
     3  C   -0.167784
     4  C   -0.165758
     5  C   -0.163303
     6  C   -0.203159
     7  C    0.086879
     8  C    0.069335
     9  C   -0.206351
    10  C   -0.208627
    11  C    0.029574
    12  C    0.045220
    13  C   -0.272604
    14  C   -0.280484
    15  C   -0.280894
    16  C   -0.309124
    17  C   -0.136891
    18  C   -0.126281
    19  C   -0.367123
    20  C   -0.353454
    21  C   -0.114541
    22  C   -0.099402
    23  C    0.160603
    24  C    0.111642
    25  C   -0.367860
    26  C   -0.392903
    27  C   -0.134701
    28  C   -0.125292
    29  C   -0.076832
    30  C   -0.062221
    31  C   -0.069915
    32  C   -0.136048
    33  C    0.070993
    34  C    0.123749
    35  C   -0.363461
    36  C   -0.355802
    37  C   -0.126354
    38  C   -0.094746
    39  C   -0.089559
    40  C   -0.119508
    41  H    0.075372
    42  H    0.084387
    43  H    0.083199
    44  H    0.089889
    45  H    0.105317
    46  H    0.046785
    47  H    0.097184
    48  H    0.068191
    49  H    0.109207
    50  H    0.066011
    51  H    0.123575
    52  H    0.089883
    53  H    0.111280
    54  H    0.079068
    55  H    0.103817
    56  H    0.093397
    57  H    0.112949
    58  H    0.034024
    59  H    0.098570
    60  H    0.110971
    61  H    0.077753
    62  H    0.098060
    63  H    0.101556
    64  H    0.084281
    65  H    0.079059
    66  H    0.069170
    67  H    0.126023
    68  H    0.097612
    69  H    0.135266
    70  H    0.135121
    71  H    0.093072
    72  H    0.107064
    73  H    0.089088
    74  H    0.070323
    75  H    0.115407
    76  H    0.100093
    77  H    0.110376
    78  H    0.124822
    79  H    0.109265
    80  H    0.112901
    81  H    0.058947
    82  H    0.078455
    83  H    0.069994
    84  H    0.087910
    85  H    0.061484
    86  H    0.069867
    87  H    0.122616
    88  H    0.111851
    89  H    0.132506
    90  H    0.080232
    91  H    0.111999
    92  H    0.117511
    93  H    0.077339
    94  H    0.080104
    95  H    0.082750
    96  H    0.088110
 Sum of Mulliken charges =  -0.00000

 Dipole moment (field-independent basis, Debye):
    X=              0.3413    Y=              0.0012    Z=             -0.6809  Tot=              0.7616
 Quadrupole moment (field-independent basis, Debye-Ang):
   XX=           -228.5181   YY=           -237.1807   ZZ=           -254.1487
   XY=              2.9745   XZ=              1.3410   YZ=              1.5293

 Normal termination of Gaussian 16 at Sat Jul 27 19:51:46 2019.
