 Gaussian 16, Revision A.03,
 Gaussian 16:  ES64L-G16RevA.03 25-Dec-2016

 ---------------------------------
 # td=(NStates=1) B3LYP/6-31G(d,p)
 ---------------------------------

 --
 TD
 --
 Symbolic Z-matrix:
 Charge =  0 Multiplicity = 1

                         Standard orientation:
 ---------------------------------------------------------------------
 Center     Atomic      Atomic             Coordinates (Angstroms)
 Number     Number       Type             X           Y           Z
 ---------------------------------------------------------------------
      1          6           0       12.229907    0.550301   -0.748146
      2          6           0      -12.276713   -0.116197    0.704538
      3          6           0       13.516071   -0.369156   -0.686971
      4          6           0      -13.162395    1.023185    1.104961
      5          6           0       13.228262   -1.786541   -0.592778
      6          6           0      -13.526992    2.008904   -0.011779
      7          6           0       11.100843    0.001393    0.152181
      8          6           0      -10.968207    0.470551    0.005533
      9          6           0       12.428677   -2.120760    0.574778
     10          6           0      -12.227281    2.689948   -0.493507
     11          6           0       11.237843   -1.191332    0.864892
     12          6           0      -11.043611    1.715444   -0.617919
     13          6           0       11.689276    0.584412   -2.181089
     14          6           0       12.697788    1.950823   -0.325358
     15          6           0      -13.068731   -1.216881   -0.086318
     16          6           0      -11.741200   -0.773638    2.041853
     17          6           0        9.922699    0.961834    0.333529
     18          6           0       -9.962511   -0.478325   -0.178493
     19          6           0       10.264132   -1.618368    1.896422
     20          6           0       -9.936372    2.147064   -1.589549
     21          6           0        8.692033    0.467774    0.286222
     22          6           0       -8.649854   -0.134808   -0.179377
     23          6           0        7.507868    1.284576    0.352070
     24          6           0       -7.547968   -1.183147   -0.329237
     25          6           0        7.710118    2.798490    0.613064
     26          6           0       -8.048840   -2.615825   -0.638500
     27          6           0        6.180474    0.692210    0.341373
     28          6           0       -6.216512   -0.879239   -0.158642
     29          6           0        4.944388    1.325066    0.540671
     30          6           0       -5.089060   -1.652911   -0.355603
     31          6           0        3.740400    0.644136    0.282410
     32          6           0       -3.787369   -1.140996   -0.210725
     33          6           0        2.441583    1.184371    0.320433
     34          6           0       -2.600028   -1.738041   -0.371288
     35          6           0        2.279878    2.544301    0.626501
     36          6           0       -2.575755   -3.219615   -0.796298
     37          6           0        1.299439    0.441701    0.262386
     38          6           0       -1.426638   -1.057935   -0.189328
     39          6           0        1.099978   -0.888999   -0.084158
     40          6           0       -0.116127   -1.584305   -0.161605
     41          1           0       14.175926    0.068042    0.122430
     42          1           0       14.211001   -0.069739   -1.467835
     43          1           0      -12.559482    1.591537    1.834882
     44          1           0      -14.203150    0.602994    1.480874
     45          1           0       13.987878   -2.299617   -0.802131
     46          1           0       12.524472   -2.052844   -1.545254
     47          1           0      -14.388769    2.874904    0.230854
     48          1           0      -13.987833    1.293697   -0.923494
     49          1           0       13.124701   -1.765906    1.549127
     50          1           0       11.939903   -3.092945    0.610942
     51          1           0      -11.782343    3.415360    0.271134
     52          1           0      -12.285872    3.274182   -1.433679
     53          1           0       11.703205   -0.413981   -2.711062
     54          1           0       12.251435    1.329594   -2.697667
     55          1           0       10.598681    0.941966   -2.093183
     56          1           0       12.949704    1.816482    0.663961
     57          1           0       11.851626    2.828125   -0.300881
     58          1           0       13.601914    2.311313   -0.813861
     59          1           0      -13.276495   -0.812253   -1.173134
     60          1           0      -14.131201   -1.548719    0.464603
     61          1           0      -12.385909   -1.942928   -0.180553
     62          1           0      -11.233220    0.010030    2.585691
     63          1           0      -11.220465   -1.643558    1.563491
     64          1           0      -12.623619   -1.164856    2.584063
     65          1           0        9.935985    2.053406    0.288185
     66          1           0      -10.293863   -1.536228   -0.428326
     67          1           0        9.710184   -0.798219    2.446322
     68          1           0       10.773013   -1.956698    2.894662
     69          1           0        9.618388   -2.552484    1.632294
     70          1           0       -9.239904    1.326040   -2.064184
     71          1           0       -9.279219    2.981218   -0.966435
     72          1           0      -10.363005    2.765342   -2.389260
     73          1           0        8.491780   -0.713747    0.007470
     74          1           0       -8.242093    0.876279   -0.067344
     75          1           0        8.050514    2.882294    1.621144
     76          1           0        6.665126    3.260010    0.486274
     77          1           0        8.458333    3.225700   -0.033681
     78          1           0       -8.557232   -2.929225   -1.731888
     79          1           0       -8.525331   -2.862684    0.391315
     80          1           0       -7.030928   -3.093475   -0.423200
     81          1           0        6.295003   -0.501870   -0.019787
     82          1           0       -6.007534    0.110243    0.261008
     83          1           0        4.816835    2.444607    0.586527
     84          1           0       -5.118081   -2.788955   -0.749319
     85          1           0        3.965667   -0.412613   -0.169380
     86          1           0       -3.785662   -0.086629    0.044170
     87          1           0        2.681415    2.713017    1.634763
     88          1           0        1.291126    3.068213    0.526399
     89          1           0        2.919468    3.080338   -0.201670
     90          1           0       -3.407238   -3.366247   -1.629578
     91          1           0       -3.029411   -3.909566    0.006417
     92          1           0       -1.710007   -3.637249   -1.460183
     93          1           0        0.161962    0.884683    0.366157
     94          1           0       -1.418753   -0.027228   -0.034783
     95          1           0        2.022315   -1.742072   -0.180438
     96          1           0       -0.127887   -2.623863   -0.365873
 ---------------------------------------------------------------------

 SCF Done:  E(RB3LYP) =  -1557.55856507     A.U. after   17 cycles

 Excitation energies and oscillator strengths:

 Excited State   1:      Singlet-A      1.8664 eV  664.31 nm  f=3.4667  <S**2>=0.000
     148 ->149         0.71643
     148 <-149        -0.15614
 This state for optimization and/or second-order correction.
 Total Energy, E(TD-HF/TD-DFT) =  -1557.48997780
 Copying the excited state density for this state as the 1-particle RhoCI density.

 The electronic state is 1-A.
 Alpha  occ. eigenvalues --  -10.20998 -10.20686 -10.20451 -10.20420 -10.20386
 Alpha  occ. eigenvalues --  -10.20307 -10.20270 -10.20123 -10.19873 -10.19768
 Alpha  occ. eigenvalues --  -10.19715 -10.19699 -10.19659 -10.19647 -10.19599
 Alpha  occ. eigenvalues --  -10.19579 -10.19515 -10.19509 -10.19435 -10.19346
 Alpha  occ. eigenvalues --  -10.19062 -10.19050 -10.19018 -10.18924 -10.18803
 Alpha  occ. eigenvalues --  -10.18689 -10.18587 -10.18524 -10.18495 -10.18420
 Alpha  occ. eigenvalues --  -10.18402 -10.18290 -10.18251 -10.18057 -10.17870
 Alpha  occ. eigenvalues --  -10.17661 -10.17645 -10.17196 -10.17173 -10.16725
 Alpha  occ. eigenvalues --   -0.85050  -0.84837  -0.84413  -0.83728  -0.81731
 Alpha  occ. eigenvalues --   -0.81384  -0.79051  -0.78509  -0.78120  -0.77853
 Alpha  occ. eigenvalues --   -0.77245  -0.75683  -0.74000  -0.71983  -0.71538
 Alpha  occ. eigenvalues --   -0.70015  -0.68003  -0.67706  -0.67654  -0.67521
 Alpha  occ. eigenvalues --   -0.67240  -0.66865  -0.66585  -0.66320  -0.65474
 Alpha  occ. eigenvalues --   -0.62819  -0.61679  -0.59915  -0.58904  -0.56652
 Alpha  occ. eigenvalues --   -0.56003  -0.55489  -0.54021  -0.52916  -0.52409
 Alpha  occ. eigenvalues --   -0.51446  -0.51315  -0.49723  -0.49443  -0.48564
 Alpha  occ. eigenvalues --   -0.48254  -0.47956  -0.46928  -0.46883  -0.45743
 Alpha  occ. eigenvalues --   -0.45544  -0.45121  -0.44564  -0.44238  -0.43583
 Alpha  occ. eigenvalues --   -0.43556  -0.43322  -0.42851  -0.42414  -0.42030
 Alpha  occ. eigenvalues --   -0.41937  -0.41654  -0.41464  -0.41248  -0.41092
 Alpha  occ. eigenvalues --   -0.40764  -0.40577  -0.39775  -0.39624  -0.39447
 Alpha  occ. eigenvalues --   -0.38994  -0.38608  -0.38284  -0.38040  -0.37830
 Alpha  occ. eigenvalues --   -0.37726  -0.37482  -0.37230  -0.37043  -0.36587
 Alpha  occ. eigenvalues --   -0.36027  -0.35846  -0.35465  -0.35394  -0.34900
 Alpha  occ. eigenvalues --   -0.34490  -0.34370  -0.34055  -0.33867  -0.33383
 Alpha  occ. eigenvalues --   -0.33176  -0.33083  -0.33016  -0.32748  -0.32094
 Alpha  occ. eigenvalues --   -0.31989  -0.31265  -0.31162  -0.30971  -0.30777
 Alpha  occ. eigenvalues --   -0.30380  -0.29832  -0.29359  -0.29233  -0.28515
 Alpha  occ. eigenvalues --   -0.28278  -0.27843  -0.27163  -0.24256  -0.22348
 Alpha  occ. eigenvalues --   -0.20869  -0.18469  -0.15485
 Alpha virt. eigenvalues --   -0.09150  -0.05371  -0.01817   0.00566   0.02500
 Alpha virt. eigenvalues --    0.04151   0.05700   0.06109   0.06290   0.07069
 Alpha virt. eigenvalues --    0.07332   0.07750   0.08077   0.08470   0.08569

 Mulliken charges:
               1
     1  C    0.007662
     2  C   -0.036850
     3  C   -0.189809
     4  C   -0.152086
     5  C   -0.135897
     6  C   -0.154235
     7  C    0.059455
     8  C    0.080414
     9  C   -0.188795
    10  C   -0.211019
    11  C    0.060176
    12  C    0.057467
    13  C   -0.286926
    14  C   -0.311608
    15  C   -0.280929
    16  C   -0.277553
    17  C   -0.145197
    18  C   -0.136158
    19  C   -0.369563
    20  C   -0.353399
    21  C   -0.048023
    22  C   -0.093986
    23  C    0.071413
    24  C    0.068340
    25  C   -0.374402
    26  C   -0.369914
    27  C   -0.114744
    28  C   -0.113950
    29  C   -0.092907
    30  C   -0.077897
    31  C   -0.111687
    32  C   -0.127928
    33  C    0.137839
    34  C    0.165858
    35  C   -0.380972
    36  C   -0.394458
    37  C   -0.125701
    38  C   -0.107871
    39  C   -0.066001
    40  C   -0.097613
    41  H    0.075589
    42  H    0.088370
    43  H    0.085645
    44  H    0.069333
    45  H    0.097542
    46  H    0.063659
    47  H    0.067901
    48  H    0.068284
    49  H    0.077624
    50  H    0.102910
    51  H    0.107825
    52  H    0.099659
    53  H    0.093517
    54  H    0.096498
    55  H    0.093507
    56  H    0.118707
    57  H    0.070109
    58  H    0.102064
    59  H    0.091646
    60  H    0.084763
    61  H    0.107895
    62  H    0.108886
    63  H    0.092123
    64  H    0.091084
    65  H    0.082502
    66  H    0.100355
    67  H    0.125944
    68  H    0.086521
    69  H    0.102805
    70  H    0.124265
    71  H    0.082190
    72  H    0.104100
    73  H    0.069497
    74  H    0.087742
    75  H    0.136571
    76  H    0.099898
    77  H    0.123270
    78  H    0.109629
    79  H    0.125654
    80  H    0.101824
    81  H    0.063900
    82  H    0.076602
    83  H    0.091449
    84  H    0.074093
    85  H    0.082892
    86  H    0.071805
    87  H    0.128818
    88  H    0.111116
    89  H    0.098540
    90  H    0.099968
    91  H    0.121865
    92  H    0.114478
    93  H    0.068560
    94  H    0.064447
    95  H    0.057408
    96  H    0.075610
 Sum of Mulliken charges =  -0.00000

 Dipole moment (field-independent basis, Debye):
    X=              0.2015    Y=              0.6171    Z=             -0.4712  Tot=              0.8021
 Quadrupole moment (field-independent basis, Debye-Ang):
   XX=           -213.5132   YY=           -236.6902   ZZ=           -256.8010
   XY=             -1.9924   XZ=              3.8532   YZ=              4.1644

 Normal termination of Gaussian 16 at Tue Jul 30 10:38:05 2019.
