 Gaussian 16, Revision A.03,
 Gaussian 16:  ES64L-G16RevA.03 25-Dec-2016

 ---------------------------------
 # td=(NStates=1) B3LYP/6-31G(d,p)
 ---------------------------------

 --
 TD
 --
 Symbolic Z-matrix:
 Charge =  0 Multiplicity = 1

                         Standard orientation:
 ---------------------------------------------------------------------
 Center     Atomic      Atomic             Coordinates (Angstroms)
 Number     Number       Type             X           Y           Z
 ---------------------------------------------------------------------
      1          6           0       12.220435   -0.686007    0.717267
      2          6           0      -12.143456   -0.055774   -0.662431
      3          6           0       13.414698    0.174105    0.698202
      4          6           0      -13.065987   -1.149042   -1.013634
      5          6           0       13.193601    1.658471    0.798165
      6          6           0      -13.359652   -2.029006    0.118380
      7          6           0       11.055508    0.014447   -0.174494
      8          6           0      -11.012697   -0.518249    0.197537
      9          6           0       12.207427    2.126736   -0.334229
     10          6           0      -12.041985   -2.706525    0.642624
     11          6           0       11.055074    1.315672   -0.559833
     12          6           0      -10.973902   -1.735780    0.843998
     13          6           0       11.631730   -0.776413    2.183228
     14          6           0       12.558259   -2.141980    0.154730
     15          6           0      -12.950683    0.971092    0.106201
     16          6           0      -11.610521    0.609812   -2.037586
     17          6           0        9.866004   -0.979166   -0.440906
     18          6           0       -9.944685    0.443604    0.304799
     19          6           0       10.131099    1.934512   -1.546716
     20          6           0       -9.813607   -2.276784    1.635915
     21          6           0        8.681163   -0.584445   -0.203171
     22          6           0       -8.588428    0.352438    0.362882
     23          6           0        7.401754   -1.302524   -0.450229
     24          6           0       -7.526083    1.280231    0.322776
     25          6           0        7.552020   -2.633625   -1.006192
     26          6           0       -7.933591    2.804576    0.589207
     27          6           0        6.156620   -0.738567   -0.166238
     28          6           0       -6.286385    0.992598    0.285121
     29          6           0        4.981171   -1.235517   -0.453119
     30          6           0       -4.999673    1.795445    0.154818
     31          6           0        3.753016   -0.654487   -0.196057
     32          6           0       -3.835593    1.240852    0.163936
     33          6           0        2.295715   -1.215135   -0.418017
     34          6           0       -2.530713    1.947554    0.197455
     35          6           0        2.279868   -2.688961   -0.944778
     36          6           0       -2.519814    3.400034    0.334365
     37          6           0        1.179383   -0.420238   -0.308144
     38          6           0       -1.353792    1.242408    0.050209
     39          6           0        1.060828    0.917849    0.003545
     40          6           0       -0.010459    1.730947    0.162124
     41          1           0       14.008480   -0.121695   -0.089885
     42          1           0       14.074130    0.068389    1.688301
     43          1           0      -12.568747   -1.649058   -1.911680
     44          1           0      -14.102369   -0.574381   -1.283828
     45          1           0       14.228373    2.033941    0.628614
     46          1           0       12.998725    1.867139    1.933408
     47          1           0      -13.990811   -2.995118   -0.251131
     48          1           0      -13.860104   -1.414007    0.786314
     49          1           0       12.765363    2.346203   -1.266691
     50          1           0       11.823864    3.244692    0.113750
     51          1           0      -11.716133   -3.472889   -0.173897
     52          1           0      -12.253080   -3.358632    1.633634
     53          1           0       11.317465    0.281563    2.600129
     54          1           0       12.209064   -1.498365    2.803990
     55          1           0       10.606201   -1.358231    2.116654
     56          1           0       12.806226   -2.184013   -0.834891
     57          1           0       11.844247   -2.840367    0.476206
     58          1           0       13.441547   -2.392793    0.623611
     59          1           0      -13.437325    0.611083    1.047507
     60          1           0      -13.857459    1.364524   -0.455331
     61          1           0      -12.219594    1.700885    0.301068
     62          1           0      -11.201700   -0.167080   -2.562717
     63          1           0      -10.788253    1.511959   -1.743449
     64          1           0      -12.486979    0.821075   -2.588019
     65          1           0       10.235457   -2.021895   -0.647399
     66          1           0      -10.273832    1.502562    0.162747
     67          1           0        9.462303    1.143449   -2.158529
     68          1           0       10.714198    2.541550   -2.312243
     69          1           0        9.414219    2.574462   -0.832472
     70          1           0       -9.037808   -1.468140    1.969056
     71          1           0       -9.412197   -3.137324    1.143555
     72          1           0      -10.235208   -2.814577    2.392055
     73          1           0        8.537325    0.440679   -0.027548
     74          1           0       -7.973589   -0.622546    0.137506
     75          1           0        7.781330   -2.677491   -2.131788
     76          1           0        6.747146   -3.471091   -0.865905
     77          1           0        8.445237   -3.025886   -0.509559
     78          1           0       -8.660833    3.019285    1.380178
     79          1           0       -8.592822    3.229706   -0.209539
     80          1           0       -7.175251    3.520494    0.439603
     81          1           0        6.071773    0.307635    0.172933
     82          1           0       -6.197791   -0.151284    0.219998
     83          1           0        4.987439   -2.177466   -0.932414
     84          1           0       -5.224892    2.988361    0.150364
     85          1           0        3.578928    0.331097    0.354948
     86          1           0       -3.808109    0.109272    0.348851
     87          1           0        2.607201   -2.926722   -1.849397
     88          1           0        1.248612   -3.068621   -1.015490
     89          1           0        2.720185   -3.378279   -0.166978
     90          1           0       -3.160429    3.724521    1.304762
     91          1           0       -3.114892    3.945449   -0.648231
     92          1           0       -1.542487    3.852907    0.524986
     93          1           0        0.187015   -0.897202   -0.490586
     94          1           0       -1.374765    0.176334   -0.204484
     95          1           0        2.081933    1.330880   -0.288870
     96          1           0        0.281484    2.724114    0.327985
 ---------------------------------------------------------------------

 SCF Done:  E(RB3LYP) =  -1557.57091921     A.U. after   15 cycles

 Excitation energies and oscillator strengths:

 Excited State   1:      Singlet-A      2.3610 eV  525.13 nm  f=2.7574  <S**2>=0.000
     148 ->149         0.70036
 This state for optimization and/or second-order correction.
 Total Energy, E(TD-HF/TD-DFT) =  -1557.48415371
 Copying the excited state density for this state as the 1-particle RhoCI density.

 The electronic state is 1-A.
 Alpha  occ. eigenvalues --  -10.21530 -10.20493 -10.20350 -10.20283 -10.20205
 Alpha  occ. eigenvalues --  -10.20190 -10.20054 -10.19936 -10.19812 -10.19617
 Alpha  occ. eigenvalues --  -10.19131 -10.19120 -10.19067 -10.19061 -10.19051
 Alpha  occ. eigenvalues --  -10.18993 -10.18967 -10.18918 -10.18875 -10.18814
 Alpha  occ. eigenvalues --  -10.18764 -10.18746 -10.18651 -10.18636 -10.18590
 Alpha  occ. eigenvalues --  -10.18509 -10.18373 -10.18361 -10.18354 -10.18163
 Alpha  occ. eigenvalues --  -10.17940 -10.17840 -10.17807 -10.17726 -10.17560
 Alpha  occ. eigenvalues --  -10.17512 -10.17012 -10.16973 -10.16954 -10.16219
 Alpha  occ. eigenvalues --   -0.86394  -0.84900  -0.83790  -0.83551  -0.82787
 Alpha  occ. eigenvalues --   -0.81311  -0.79730  -0.79253  -0.78965  -0.77987
 Alpha  occ. eigenvalues --   -0.77052  -0.75388  -0.74511  -0.72774  -0.72451
 Alpha  occ. eigenvalues --   -0.70248  -0.68905  -0.68680  -0.68573  -0.68289
 Alpha  occ. eigenvalues --   -0.67733  -0.66810  -0.66532  -0.66329  -0.65996
 Alpha  occ. eigenvalues --   -0.62656  -0.61994  -0.59989  -0.59140  -0.57560
 Alpha  occ. eigenvalues --   -0.56901  -0.55961  -0.54918  -0.53848  -0.52740
 Alpha  occ. eigenvalues --   -0.52191  -0.51455  -0.50361  -0.49701  -0.49233
 Alpha  occ. eigenvalues --   -0.48713  -0.47223  -0.47068  -0.46595  -0.46212
 Alpha  occ. eigenvalues --   -0.45365  -0.45078  -0.44815  -0.44511  -0.43790
 Alpha  occ. eigenvalues --   -0.43548  -0.43048  -0.43034  -0.42361  -0.42290
 Alpha  occ. eigenvalues --   -0.42036  -0.41601  -0.41327  -0.41182  -0.40849
 Alpha  occ. eigenvalues --   -0.40576  -0.40318  -0.40070  -0.39943  -0.39820
 Alpha  occ. eigenvalues --   -0.39263  -0.39240  -0.38947  -0.38245  -0.38166
 Alpha  occ. eigenvalues --   -0.37947  -0.37887  -0.37423  -0.36880  -0.36287
 Alpha  occ. eigenvalues --   -0.36230  -0.36033  -0.35804  -0.35628  -0.35459
 Alpha  occ. eigenvalues --   -0.35230  -0.35091  -0.35002  -0.34538  -0.34335
 Alpha  occ. eigenvalues --   -0.34030  -0.33161  -0.32958  -0.32660  -0.32465
 Alpha  occ. eigenvalues --   -0.32269  -0.31887  -0.31031  -0.30858  -0.30626
 Alpha  occ. eigenvalues --   -0.29891  -0.29698  -0.29419  -0.29151  -0.28935
 Alpha  occ. eigenvalues --   -0.28271  -0.27355  -0.26839  -0.24687  -0.22739
 Alpha  occ. eigenvalues --   -0.21026  -0.19080  -0.17080
 Alpha virt. eigenvalues --   -0.07957  -0.04979  -0.02505   0.01154   0.02518
 Alpha virt. eigenvalues --    0.04304   0.06155   0.06516   0.06637   0.06841
 Alpha virt. eigenvalues --    0.07858   0.07985   0.08300   0.09007   0.09176

 Mulliken charges:
               1
     1  C    0.028585
     2  C   -0.043057
     3  C   -0.163180
     4  C   -0.158761
     5  C   -0.192589
     6  C   -0.166905
     7  C    0.023501
     8  C    0.126616
     9  C   -0.219720
    10  C   -0.230289
    11  C    0.093025
    12  C    0.080230
    13  C   -0.302667
    14  C   -0.337478
    15  C   -0.286622
    16  C   -0.288652
    17  C   -0.138654
    18  C   -0.154219
    19  C   -0.341641
    20  C   -0.355183
    21  C   -0.051219
    22  C   -0.118061
    23  C    0.099262
    24  C    0.181620
    25  C   -0.384857
    26  C   -0.392429
    27  C   -0.099334
    28  C   -0.161013
    29  C   -0.044135
    30  C   -0.066177
    31  C   -0.145916
    32  C   -0.100153
    33  C    0.079670
    34  C    0.131671
    35  C   -0.374781
    36  C   -0.361697
    37  C   -0.105651
    38  C   -0.116839
    39  C   -0.103209
    40  C   -0.077002
    41  H    0.093636
    42  H    0.060849
    43  H    0.073063
    44  H    0.061358
    45  H    0.092421
    46  H    0.093384
    47  H    0.069352
    48  H    0.107700
    49  H    0.109627
    50  H    0.057859
    51  H    0.100101
    52  H    0.075687
    53  H    0.100767
    54  H    0.098958
    55  H    0.085351
    56  H    0.115775
    57  H    0.107647
    58  H    0.109694
    59  H    0.096916
    60  H    0.087946
    61  H    0.102137
    62  H    0.115193
    63  H    0.080958
    64  H    0.107385
    65  H    0.089146
    66  H    0.076844
    67  H    0.103467
    68  H    0.105633
    69  H    0.101835
    70  H    0.115732
    71  H    0.116231
    72  H    0.108254
    73  H    0.083651
    74  H    0.061788
    75  H    0.116188
    76  H    0.100472
    77  H    0.116501
    78  H    0.122243
    79  H    0.094278
    80  H    0.105284
    81  H    0.069431
    82  H    0.054271
    83  H    0.075984
    84  H    0.078552
    85  H    0.077638
    86  H    0.087772
    87  H    0.137123
    88  H    0.099308
    89  H    0.112502
    90  H    0.097925
    91  H    0.092013
    92  H    0.116788
    93  H    0.071207
    94  H    0.080999
    95  H    0.080828
    96  H    0.084263
 Sum of Mulliken charges =  -0.00000

 Dipole moment (field-independent basis, Debye):
    X=              1.3896    Y=             -0.8786    Z=             -0.8438  Tot=              1.8480
 Quadrupole moment (field-independent basis, Debye-Ang):
   XX=           -212.0287   YY=           -235.4224   ZZ=           -255.2961
   XY=             -2.1103   XZ=             -5.7183   YZ=              2.8386

 Normal termination of Gaussian 16 at Mon Jul 29 20:08:42 2019.
