 Gaussian 16, Revision A.03,
 Gaussian 16:  ES64L-G16RevA.03 25-Dec-2016

 ---------------------------------
 # td=(NStates=1) B3LYP/6-31G(d,p)
 ---------------------------------

 --
 TD
 --
 Symbolic Z-matrix:
 Charge =  0 Multiplicity = 1

                         Standard orientation:
 ---------------------------------------------------------------------
 Center     Atomic      Atomic             Coordinates (Angstroms)
 Number     Number       Type             X           Y           Z
 ---------------------------------------------------------------------
      1          6           0       12.044945    0.512561   -0.811730
      2          6           0      -12.195856   -0.028483    0.827121
      3          6           0       13.377440   -0.410179   -0.783241
      4          6           0      -13.058353    1.208833    1.060321
      5          6           0       13.064519   -1.850269   -0.812286
      6          6           0      -13.528158    2.016819   -0.176269
      7          6           0       10.997010   -0.096894    0.188834
      8          6           0      -11.059237    0.347490   -0.179427
      9          6           0       12.450757   -2.143694    0.595958
     10          6           0      -12.175490    2.626652   -0.679663
     11          6           0       11.286012   -1.270129    0.863328
     12          6           0      -11.053227    1.518964   -0.889451
     13          6           0       11.368349    0.471798   -2.244325
     14          6           0       12.432242    1.876242   -0.279114
     15          6           0      -13.041385   -1.077292    0.110593
     16          6           0      -11.621941   -0.645363    2.265298
     17          6           0        9.862568    0.762639    0.435093
     18          6           0       -9.943366   -0.652231   -0.213769
     19          6           0       10.351909   -1.684211    1.950681
     20          6           0       -9.930093    1.766478   -1.783894
     21          6           0        8.578750    0.485464    0.265807
     22          6           0       -8.562634   -0.423410   -0.060289
     23          6           0        7.423209    1.328580    0.399819
     24          6           0       -7.541886   -1.385020   -0.248002
     25          6           0        7.735274    2.819279    0.611375
     26          6           0       -7.729324   -2.887896   -0.496806
     27          6           0        6.238784    0.850182    0.340271
     28          6           0       -6.219582   -0.889570   -0.234243
     29          6           0        4.915041    1.474722    0.381298
     30          6           0       -4.922598   -1.636625   -0.326540
     31          6           0        3.770783    0.855624    0.300372
     32          6           0       -3.790274   -0.998330   -0.279866
     33          6           0        2.423244    1.433020    0.410684
     34          6           0       -2.486024   -1.685221   -0.446728
     35          6           0        2.284589    2.915071    0.797159
     36          6           0       -2.608500   -3.246250   -0.520650
     37          6           0        1.231564    0.712241    0.263396
     38          6           0       -1.271579   -1.020218   -0.455474
     39          6           0        1.103978   -0.704905   -0.064065
     40          6           0        0.046880   -1.494353   -0.390297
     41          1           0       14.096073   -0.069414    0.077461
     42          1           0       13.854063   -0.222476   -1.711272
     43          1           0      -12.754005    2.070691    1.826780
     44          1           0      -13.961842    0.696579    1.634549
     45          1           0       14.041460   -2.398856   -0.992773
     46          1           0       12.316086   -2.216194   -1.692835
     47          1           0      -14.220002    2.839203    0.222404
     48          1           0      -13.805526    1.348803   -0.973627
     49          1           0       13.288606   -2.101685    1.418684
     50          1           0       12.070141   -3.230137    0.798121
     51          1           0      -11.802268    3.314466    0.031146
     52          1           0      -12.207005    3.000265   -1.632392
     53          1           0       10.992435   -0.510900   -2.495457
     54          1           0       12.195426    0.606171   -2.989393
     55          1           0       10.603425    1.271457   -1.873108
     56          1           0       12.706017    1.842363    0.753963
     57          1           0       11.664514    2.626857   -0.337515
     58          1           0       13.320979    2.474778   -0.913201
     59          1           0      -13.438792   -0.495094   -0.708946
     60          1           0      -13.749216   -1.532579    0.828680
     61          1           0      -12.304824   -1.837904   -0.150982
     62          1           0      -11.184661    0.085243    2.957715
     63          1           0      -11.053371   -1.561902    2.035078
     64          1           0      -12.708015   -1.054649    2.764687
     65          1           0       10.004609    1.661768    0.610589
     66          1           0      -10.045440   -1.789862   -0.181864
     67          1           0        9.466296   -1.215072    2.244458
     68          1           0       10.854676   -1.840009    2.950910
     69          1           0        9.691164   -2.689464    1.946865
     70          1           0       -9.333667    1.004736   -2.058835
     71          1           0       -9.349933    2.652589   -1.452362
     72          1           0      -10.564262    2.309422   -2.559545
     73          1           0        8.295376   -0.578267    0.081946
     74          1           0       -8.241755    0.515940    0.127580
     75          1           0        8.170462    2.921987    1.717685
     76          1           0        6.788889    3.494334    0.479675
     77          1           0        8.529008    3.312523   -0.075396
     78          1           0       -8.566210   -2.827938   -1.301775
     79          1           0       -8.268615   -3.747667    0.168476
     80          1           0       -6.905387   -3.412074   -0.528709
     81          1           0        6.148213   -0.223206    0.256121
     82          1           0       -5.915359    0.045286   -0.259472
     83          1           0        4.854252    2.539447    0.668572
     84          1           0       -4.892626   -2.604476   -0.440024
     85          1           0        3.846832   -0.195949    0.039021
     86          1           0       -3.540159    0.099486   -0.224727
     87          1           0        2.767888    3.140100    1.900022
     88          1           0        1.163513    3.377989    1.044526
     89          1           0        2.560677    3.552148   -0.044953
     90          1           0       -3.294413   -3.446739   -1.588438
     91          1           0       -3.096139   -3.526614    0.482545
     92          1           0       -1.503746   -3.653772   -0.543014
     93          1           0        0.239149    1.161580    0.356735
     94          1           0       -1.498203    0.077538   -0.058742
     95          1           0        2.073716   -1.150410   -0.065519
     96          1           0        0.111450   -2.423122   -0.717786
 ---------------------------------------------------------------------

 SCF Done:  E(RB3LYP) =  -1557.51801812     A.U. after   15 cycles

 Excitation energies and oscillator strengths:

 Excited State   1:      Singlet-A      2.3795 eV  521.04 nm  f=2.7338  <S**2>=0.000
     148 ->149         0.70204
 This state for optimization and/or second-order correction.
 Total Energy, E(TD-HF/TD-DFT) =  -1557.43057176
 Copying the excited state density for this state as the 1-particle RhoCI density.

 The electronic state is 1-A.
 Alpha  occ. eigenvalues --  -10.21530 -10.21419 -10.20941 -10.20814 -10.20620
 Alpha  occ. eigenvalues --  -10.20270 -10.20236 -10.20091 -10.19671 -10.19552
 Alpha  occ. eigenvalues --  -10.19548 -10.19542 -10.19525 -10.19352 -10.19344
 Alpha  occ. eigenvalues --  -10.19309 -10.19279 -10.19223 -10.19163 -10.19095
 Alpha  occ. eigenvalues --  -10.18941 -10.18814 -10.18783 -10.18770 -10.18696
 Alpha  occ. eigenvalues --  -10.18375 -10.18334 -10.18308 -10.18263 -10.18171
 Alpha  occ. eigenvalues --  -10.18165 -10.18146 -10.18105 -10.17911 -10.17818
 Alpha  occ. eigenvalues --  -10.17712 -10.17593 -10.17099 -10.16852 -10.16483
 Alpha  occ. eigenvalues --   -0.85155  -0.84417  -0.83833  -0.83442  -0.82289
 Alpha  occ. eigenvalues --   -0.81365  -0.79706  -0.78444  -0.78217  -0.77803
 Alpha  occ. eigenvalues --   -0.76714  -0.75774  -0.74210  -0.72834  -0.72004
 Alpha  occ. eigenvalues --   -0.69480  -0.68525  -0.68197  -0.68002  -0.67380
 Alpha  occ. eigenvalues --   -0.67070  -0.66792  -0.66429  -0.66328  -0.65904
 Alpha  occ. eigenvalues --   -0.62958  -0.61923  -0.60046  -0.58984  -0.57797
 Alpha  occ. eigenvalues --   -0.56904  -0.55616  -0.55062  -0.54895  -0.53534
 Alpha  occ. eigenvalues --   -0.53155  -0.52565  -0.51197  -0.50778  -0.49375
 Alpha  occ. eigenvalues --   -0.49178  -0.47659  -0.47448  -0.46816  -0.46511
 Alpha  occ. eigenvalues --   -0.46059  -0.45572  -0.45182  -0.44727  -0.44166
 Alpha  occ. eigenvalues --   -0.43962  -0.43344  -0.42974  -0.42682  -0.42209
 Alpha  occ. eigenvalues --   -0.42077  -0.41848  -0.41397  -0.41209  -0.41004
 Alpha  occ. eigenvalues --   -0.40629  -0.40580  -0.40183  -0.39561  -0.39374
 Alpha  occ. eigenvalues --   -0.38815  -0.38502  -0.38427  -0.37988  -0.37906
 Alpha  occ. eigenvalues --   -0.37221  -0.37030  -0.36908  -0.36712  -0.36620
 Alpha  occ. eigenvalues --   -0.36253  -0.35931  -0.35523  -0.35450  -0.35080
 Alpha  occ. eigenvalues --   -0.35015  -0.34766  -0.34462  -0.34065  -0.33881
 Alpha  occ. eigenvalues --   -0.33727  -0.33056  -0.32931  -0.32655  -0.32620
 Alpha  occ. eigenvalues --   -0.32373  -0.31866  -0.31590  -0.31326  -0.31188
 Alpha  occ. eigenvalues --   -0.30262  -0.30099  -0.29411  -0.29047  -0.28633
 Alpha  occ. eigenvalues --   -0.28183  -0.27371  -0.26221  -0.23882  -0.22699
 Alpha  occ. eigenvalues --   -0.20961  -0.19391  -0.17093
 Alpha virt. eigenvalues --   -0.07838  -0.04902  -0.02159   0.00612   0.02370
 Alpha virt. eigenvalues --    0.03602   0.06338   0.06761   0.07065   0.07134
 Alpha virt. eigenvalues --    0.07476   0.07923   0.08616   0.09108   0.09313

 Mulliken charges:
               1
     1  C   -0.019136
     2  C   -0.019662
     3  C   -0.163376
     4  C   -0.150554
     5  C   -0.179362
     6  C   -0.195344
     7  C    0.053182
     8  C    0.079208
     9  C   -0.226555
    10  C   -0.203513
    11  C    0.115932
    12  C    0.021510
    13  C   -0.287788
    14  C   -0.304149
    15  C   -0.276958
    16  C   -0.291258
    17  C   -0.102443
    18  C   -0.171700
    19  C   -0.373958
    20  C   -0.341670
    21  C   -0.090500
    22  C   -0.076614
    23  C    0.183149
    24  C    0.111449
    25  C   -0.381511
    26  C   -0.352506
    27  C   -0.152480
    28  C   -0.117882
    29  C   -0.070729
    30  C   -0.074515
    31  C   -0.093143
    32  C   -0.078810
    33  C    0.094526
    34  C    0.087188
    35  C   -0.363864
    36  C   -0.353625
    37  C   -0.113373
    38  C   -0.123895
    39  C   -0.082228
    40  C   -0.069923
    41  H    0.083538
    42  H    0.087729
    43  H    0.069117
    44  H    0.058486
    45  H    0.085956
    46  H    0.083136
    47  H    0.098392
    48  H    0.109848
    49  H    0.094173
    50  H    0.089059
    51  H    0.118837
    52  H    0.095400
    53  H    0.113060
    54  H    0.096637
    55  H    0.105398
    56  H    0.118244
    57  H    0.100815
    58  H    0.065708
    59  H    0.101805
    60  H    0.094787
    61  H    0.104192
    62  H    0.116093
    63  H    0.111205
    64  H    0.055967
    65  H    0.055566
    66  H    0.075234
    67  H    0.126576
    68  H    0.096921
    69  H    0.071089
    70  H    0.133420
    71  H    0.109888
    72  H    0.084344
    73  H    0.064751
    74  H    0.079302
    75  H    0.108416
    76  H    0.101116
    77  H    0.110755
    78  H    0.116006
    79  H    0.082288
    80  H    0.121327
    81  H    0.071139
    82  H    0.066835
    83  H    0.077873
    84  H    0.069085
    85  H    0.079227
    86  H    0.072386
    87  H    0.103542
    88  H    0.086165
    89  H    0.131861
    90  H    0.096418
    91  H    0.128425
    92  H    0.094225
    93  H    0.081977
    94  H    0.054522
    95  H    0.069114
    96  H    0.079499
 Sum of Mulliken charges =  -0.00000

 Dipole moment (field-independent basis, Debye):
    X=              0.3048    Y=              0.7044    Z=              0.2595  Tot=              0.8102
 Quadrupole moment (field-independent basis, Debye-Ang):
   XX=           -231.3590   YY=           -235.9600   ZZ=           -256.3082
   XY=             -4.7333   XZ=              3.2642   YZ=              2.4992

 Normal termination of Gaussian 16 at Thu Aug  1 17:24:53 2019.
