 Gaussian 16, Revision A.03,
 Gaussian 16:  ES64L-G16RevA.03 25-Dec-2016

 ---------------------------------
 # td=(NStates=1) B3LYP/6-31G(d,p)
 ---------------------------------

 --
 TD
 --
 Symbolic Z-matrix:
 Charge =  0 Multiplicity = 1

                         Standard orientation:
 ---------------------------------------------------------------------
 Center     Atomic      Atomic             Coordinates (Angstroms)
 Number     Number       Type             X           Y           Z
 ---------------------------------------------------------------------
      1          6           0       12.186715    0.494120   -0.488665
      2          6           0      -12.128412   -0.100310    0.887770
      3          6           0       13.560808   -0.409811   -0.287408
      4          6           0      -12.891682    1.097279    1.343341
      5          6           0       13.259950   -1.859630   -0.699611
      6          6           0      -13.344405    2.138928    0.250607
      7          6           0       11.030494   -0.052604    0.216518
      8          6           0      -11.018026    0.334388   -0.087206
      9          6           0       12.140842   -2.315247    0.510549
     10          6           0      -12.191825    2.618027   -0.569764
     11          6           0       11.098732   -1.333978    0.771592
     12          6           0      -11.130553    1.472389   -0.808124
     13          6           0       11.826129    0.577306   -2.121729
     14          6           0       12.552148    1.956399   -0.073985
     15          6           0      -13.153240   -1.073165    0.198140
     16          6           0      -11.411336   -0.675360    2.156904
     17          6           0        9.857592    0.890078    0.513557
     18          6           0       -9.996372   -0.674206   -0.410166
     19          6           0        9.958468   -1.861502    1.631940
     20          6           0      -10.096206    1.997108   -1.802564
     21          6           0        8.583096    0.595289    0.394687
     22          6           0       -8.691787   -0.371144   -0.295321
     23          6           0        7.409172    1.378075    0.430885
     24          6           0       -7.609927   -1.362641   -0.359673
     25          6           0        7.716617    2.859325    0.651206
     26          6           0       -7.970827   -2.775120   -0.597945
     27          6           0        6.269293    0.734463    0.289258
     28          6           0       -6.309124   -0.916141   -0.240011
     29          6           0        4.957496    1.518917    0.275121
     30          6           0       -5.148156   -1.615621   -0.393316
     31          6           0        3.749810    0.849661   -0.000900
     32          6           0       -3.819289   -1.097326   -0.156676
     33          6           0        2.408742    1.433565    0.109262
     34          6           0       -2.500305   -1.805554   -0.327120
     35          6           0        2.395124    2.839838    0.363233
     36          6           0       -2.517656   -3.213847   -0.669952
     37          6           0        1.286863    0.673977    0.045933
     38          6           0       -1.417860   -1.091084   -0.163415
     39          6           0        1.122882   -0.744025   -0.012665
     40          6           0       -0.059160   -1.544897   -0.232064
     41          1           0       13.956388   -0.501099    0.739697
     42          1           0       14.622597    0.065617   -0.974053
     43          1           0      -12.180127    1.720142    1.945903
     44          1           0      -13.909860    1.032507    1.861150
     45          1           0       14.249051   -2.399466   -0.607825
     46          1           0       13.042715   -2.115381   -1.833092
     47          1           0      -13.816047    2.932364    0.651800
     48          1           0      -14.006296    1.500348   -0.481104
     49          1           0       12.747976   -2.427802    1.361341
     50          1           0       11.600921   -3.244087    0.204508
     51          1           0      -11.513448    3.498424   -0.138606
     52          1           0      -12.707233    2.992416   -1.576943
     53          1           0       11.698209   -0.376722   -2.662189
     54          1           0       12.702584    1.054990   -2.555529
     55          1           0       10.828584    1.124787   -2.251639
     56          1           0       12.900570    1.889120    1.121949
     57          1           0       11.975764    2.843609   -0.342507
     58          1           0       13.484737    2.288516   -0.624074
     59          1           0      -13.717822   -0.420086   -0.564044
     60          1           0      -13.779118   -1.547356    0.746388
     61          1           0      -12.746887   -1.901629   -0.572683
     62          1           0      -10.759075    0.049155    2.776608
     63          1           0      -10.671165   -1.618628    1.977670
     64          1           0      -12.278655   -1.014235    2.806904
     65          1           0       10.322019    1.864799    0.370503
     66          1           0      -10.194567   -1.657081   -0.613558
     67          1           0        9.137914   -1.237784    1.953244
     68          1           0       10.307082   -2.404873    2.468483
     69          1           0        9.403477   -2.669652    1.027879
     70          1           0       -9.094624    1.329479   -1.961674
     71          1           0       -9.703690    3.070659   -1.338569
     72          1           0      -10.584967    2.353663   -2.603373
     73          1           0        8.236404   -0.591867    0.296253
     74          1           0       -8.665380    0.809968   -0.282367
     75          1           0        8.274656    3.127637    1.457514
     76          1           0        6.675087    3.391905    0.564788
     77          1           0        8.170717    3.243442   -0.124442
     78          1           0       -8.499615   -2.787982   -1.635562
     79          1           0       -8.622422   -3.209385    0.104981
     80          1           0       -7.246089   -3.627951   -0.682029
     81          1           0        6.209412   -0.213951    0.007781
     82          1           0       -6.258141    0.223946    0.069651
     83          1           0        4.965083    2.605380    0.350121
     84          1           0       -5.094440   -2.753474   -0.800512
     85          1           0        3.839205   -0.199656   -0.237738
     86          1           0       -3.803786   -0.010844    0.047759
     87          1           0        2.954894    3.196423    1.231533
     88          1           0        1.376518    3.002178    0.647030
     89          1           0        2.735694    3.623429   -0.555118
     90          1           0       -2.635719   -3.114837   -1.828218
     91          1           0       -3.463021   -3.962412   -0.242104
     92          1           0       -1.442747   -3.508814   -0.481691
     93          1           0        0.412386    1.305691    0.300587
     94          1           0       -1.439245    0.044893    0.035835
     95          1           0        2.077672   -1.500511    0.093450
     96          1           0        0.136922   -2.563438   -0.103410
 ---------------------------------------------------------------------

 SCF Done:  E(RB3LYP) =  -1557.51469625     A.U. after   16 cycles

 Excitation energies and oscillator strengths:

 Excited State   1:      Singlet-A      2.2192 eV  558.69 nm  f=2.8817  <S**2>=0.000
     148 ->149         0.70235
 This state for optimization and/or second-order correction.
 Total Energy, E(TD-HF/TD-DFT) =  -1557.43314232
 Copying the excited state density for this state as the 1-particle RhoCI density.

 The electronic state is 1-A.
 Alpha  occ. eigenvalues --  -10.21379 -10.21052 -10.21014 -10.20782 -10.20744
 Alpha  occ. eigenvalues --  -10.20370 -10.20055 -10.20008 -10.20004 -10.19828
 Alpha  occ. eigenvalues --  -10.19691 -10.19663 -10.19616 -10.19285 -10.19238
 Alpha  occ. eigenvalues --  -10.19234 -10.19153 -10.19103 -10.19083 -10.19067
 Alpha  occ. eigenvalues --  -10.19053 -10.18868 -10.18810 -10.18716 -10.18696
 Alpha  occ. eigenvalues --  -10.18663 -10.18649 -10.18633 -10.18594 -10.18515
 Alpha  occ. eigenvalues --  -10.18418 -10.18212 -10.18171 -10.18021 -10.17946
 Alpha  occ. eigenvalues --  -10.17864 -10.17674 -10.17301 -10.17182 -10.17160
 Alpha  occ. eigenvalues --   -0.84999  -0.84294  -0.83753  -0.83230  -0.82580
 Alpha  occ. eigenvalues --   -0.82260  -0.78431  -0.77605  -0.77380  -0.77035
 Alpha  occ. eigenvalues --   -0.76213  -0.74895  -0.74035  -0.72056  -0.71684
 Alpha  occ. eigenvalues --   -0.70397  -0.69921  -0.68436  -0.68155  -0.67484
 Alpha  occ. eigenvalues --   -0.67284  -0.66574  -0.66321  -0.66047  -0.65661
 Alpha  occ. eigenvalues --   -0.62476  -0.61542  -0.59012  -0.58225  -0.57017
 Alpha  occ. eigenvalues --   -0.56543  -0.56071  -0.55348  -0.53932  -0.53228
 Alpha  occ. eigenvalues --   -0.52269  -0.51291  -0.50082  -0.49867  -0.48508
 Alpha  occ. eigenvalues --   -0.48106  -0.47487  -0.46704  -0.46381  -0.45711
 Alpha  occ. eigenvalues --   -0.45607  -0.44661  -0.44296  -0.44143  -0.43566
 Alpha  occ. eigenvalues --   -0.43554  -0.43002  -0.42709  -0.42552  -0.42434
 Alpha  occ. eigenvalues --   -0.41889  -0.41659  -0.41496  -0.40881  -0.40837
 Alpha  occ. eigenvalues --   -0.40518  -0.40391  -0.40369  -0.39844  -0.39238
 Alpha  occ. eigenvalues --   -0.38886  -0.38696  -0.38572  -0.37698  -0.37405
 Alpha  occ. eigenvalues --   -0.37247  -0.37133  -0.36962  -0.36717  -0.36528
 Alpha  occ. eigenvalues --   -0.36303  -0.36075  -0.35413  -0.35028  -0.34805
 Alpha  occ. eigenvalues --   -0.34598  -0.34269  -0.34184  -0.33842  -0.33497
 Alpha  occ. eigenvalues --   -0.33198  -0.32944  -0.32838  -0.32690  -0.32506
 Alpha  occ. eigenvalues --   -0.32100  -0.31757  -0.31542  -0.31326  -0.31101
 Alpha  occ. eigenvalues --   -0.30885  -0.29318  -0.29201  -0.28665  -0.28335
 Alpha  occ. eigenvalues --   -0.28161  -0.27558  -0.26682  -0.23965  -0.22721
 Alpha  occ. eigenvalues --   -0.20755  -0.18715  -0.16501
 Alpha virt. eigenvalues --   -0.08100  -0.04915  -0.01974   0.01138   0.02199
 Alpha virt. eigenvalues --    0.03982   0.05360   0.05879   0.06267   0.07016
 Alpha virt. eigenvalues --    0.07345   0.07909   0.08732   0.08779   0.08895

 Mulliken charges:
               1
     1  C   -0.014821
     2  C    0.014803
     3  C   -0.149786
     4  C   -0.178062
     5  C   -0.194075
     6  C   -0.178365
     7  C    0.086676
     8  C    0.043907
     9  C   -0.240625
    10  C   -0.203581
    11  C    0.072692
    12  C    0.063868
    13  C   -0.310737
    14  C   -0.308730
    15  C   -0.297654
    16  C   -0.295358
    17  C   -0.147484
    18  C   -0.108599
    19  C   -0.365250
    20  C   -0.341465
    21  C   -0.082184
    22  C   -0.105607
    23  C    0.161641
    24  C    0.117973
    25  C   -0.366343
    26  C   -0.390182
    27  C   -0.126894
    28  C   -0.113958
    29  C   -0.101352
    30  C   -0.082869
    31  C   -0.110433
    32  C   -0.123783
    33  C    0.142301
    34  C    0.144047
    35  C   -0.377264
    36  C   -0.363493
    37  C   -0.119672
    38  C   -0.103105
    39  C   -0.110335
    40  C   -0.110810
    41  H    0.105398
    42  H    0.027735
    43  H    0.089477
    44  H    0.085644
    45  H    0.086002
    46  H    0.090808
    47  H    0.100888
    48  H    0.081333
    49  H    0.121987
    50  H    0.104366
    51  H    0.088264
    52  H    0.083333
    53  H    0.104349
    54  H    0.102410
    55  H    0.098299
    56  H    0.077954
    57  H    0.110491
    58  H    0.093918
    59  H    0.094527
    60  H    0.118230
    61  H    0.076722
    62  H    0.102858
    63  H    0.082545
    64  H    0.089426
    65  H    0.078012
    66  H    0.080270
    67  H    0.127346
    68  H    0.104675
    69  H    0.091084
    70  H    0.105616
    71  H    0.071483
    72  H    0.121697
    73  H    0.056458
    74  H    0.090545
    75  H    0.133623
    76  H    0.079635
    77  H    0.140138
    78  H    0.109977
    79  H    0.132860
    80  H    0.109990
    81  H    0.080787
    82  H    0.075779
    83  H    0.087406
    84  H    0.065642
    85  H    0.071748
    86  H    0.073407
    87  H    0.126744
    88  H    0.101937
    89  H    0.091984
    90  H    0.127739
    91  H    0.099259
    92  H    0.108734
    93  H    0.074648
    94  H    0.081276
    95  H    0.071780
    96  H    0.085729
 Sum of Mulliken charges =  -0.00000

 Dipole moment (field-independent basis, Debye):
    X=             -0.4212    Y=             -0.0681    Z=             -0.0717  Tot=              0.4327
 Quadrupole moment (field-independent basis, Debye-Ang):
   XX=           -213.6245   YY=           -232.9953   ZZ=           -256.8461
   XY=             -0.0085   XZ=              1.1530   YZ=              2.0046

 Normal termination of Gaussian 16 at Thu Aug  1 20:50:52 2019.
