 Gaussian 16, Revision A.03,
 Gaussian 16:  ES64L-G16RevA.03 25-Dec-2016

 ---------------------------------
 # td=(NStates=1) B3LYP/6-31G(d,p)
 ---------------------------------

 --
 TD
 --
 Symbolic Z-matrix:
 Charge =  0 Multiplicity = 1

                         Standard orientation:
 ---------------------------------------------------------------------
 Center     Atomic      Atomic             Coordinates (Angstroms)
 Number     Number       Type             X           Y           Z
 ---------------------------------------------------------------------
      1          6           0       12.145437    0.589537   -0.671823
      2          6           0      -12.145486   -0.007689    0.878393
      3          6           0       13.479329   -0.286709   -0.507037
      4          6           0      -13.037900    1.257475    1.332009
      5          6           0       13.191410   -1.813350   -0.480859
      6          6           0      -13.434070    2.117811    0.132135
      7          6           0       11.139322    0.028390    0.201466
      8          6           0      -10.997790    0.403092   -0.166472
      9          6           0       12.281265   -2.128425    0.666291
     10          6           0      -12.117803    2.616906   -0.648762
     11          6           0       11.171020   -1.129027    0.880917
     12          6           0      -11.059000    1.594464   -0.755265
     13          6           0       11.704067    0.453468   -2.115175
     14          6           0       12.521306    1.964743   -0.435925
     15          6           0      -13.009995   -1.056107    0.117944
     16          6           0      -11.572217   -0.594225    2.123873
     17          6           0        9.858181    0.933529    0.385340
     18          6           0       -9.933966   -0.577571   -0.253297
     19          6           0       10.234142   -1.574905    1.938691
     20          6           0       -9.946473    1.986292   -1.766531
     21          6           0        8.608962    0.463036    0.275194
     22          6           0       -8.591527   -0.268345   -0.177268
     23          6           0        7.352022    1.340858    0.431841
     24          6           0       -7.543913   -1.380049   -0.236260
     25          6           0        7.650846    2.880532    0.609670
     26          6           0       -7.919365   -2.716915   -0.721807
     27          6           0        6.130020    0.695295    0.330988
     28          6           0       -6.275150   -0.936762   -0.223217
     29          6           0        4.955356    1.356165    0.236561
     30          6           0       -5.054546   -1.742650   -0.355939
     31          6           0        3.736997    0.662883    0.117938
     32          6           0       -3.845345   -1.169281   -0.075237
     33          6           0        2.422096    1.264452    0.220660
     34          6           0       -2.552872   -1.875755   -0.284803
     35          6           0        2.285381    2.772426    0.526368
     36          6           0       -2.582323   -3.276860   -0.754374
     37          6           0        1.243310    0.552571    0.028084
     38          6           0       -1.406352   -1.121749   -0.109005
     39          6           0        1.190370   -0.861004   -0.242433
     40          6           0       -0.047214   -1.680411   -0.356072
     41          1           0       13.691303   -0.203322    0.590228
     42          1           0       14.296161    0.000643   -1.160494
     43          1           0      -12.610842    1.917460    2.237607
     44          1           0      -13.844496    0.785840    2.008400
     45          1           0       14.032859   -2.500026   -0.337119
     46          1           0       12.708128   -2.164281   -1.276714
     47          1           0      -14.003934    2.855932    0.403835
     48          1           0      -13.960964    1.592369   -0.553713
     49          1           0       12.979118   -2.011716    1.530531
     50          1           0       11.687772   -3.070388    0.635577
     51          1           0      -11.573943    3.566566   -0.112826
     52          1           0      -12.420436    3.010277   -1.582348
     53          1           0       11.459188   -0.526512   -2.499487
     54          1           0       12.460725    0.654159   -2.764279
     55          1           0       10.761400    1.227080   -2.350221
     56          1           0       12.982481    2.089612    0.458342
     57          1           0       11.762507    2.709843   -0.555547
     58          1           0       13.381766    2.132310   -1.096845
     59          1           0      -13.648644   -0.498980   -0.583567
     60          1           0      -13.871071   -1.378682    0.798453
     61          1           0      -12.471781   -1.964626   -0.355951
     62          1           0      -10.802302    0.080219    2.407397
     63          1           0      -11.247044   -1.656025    2.006311
     64          1           0      -12.368153   -0.694401    2.722234
     65          1           0       10.024949    1.885663    0.172773
     66          1           0      -10.274417   -1.544204   -0.321844
     67          1           0        9.660622   -0.765121    2.337154
     68          1           0       10.641851   -1.962748    2.765296
     69          1           0        9.383667   -2.526692    1.442188
     70          1           0       -9.214365    1.218768   -2.027368
     71          1           0       -9.425361    2.862797   -1.488861
     72          1           0      -10.505569    2.416740   -2.689941
     73          1           0        8.499841   -0.590008    0.388781
     74          1           0       -8.214896    0.687050    0.004942
     75          1           0        8.307689    2.938559    1.581518
     76          1           0        6.589480    3.334753    0.715818
     77          1           0        8.213195    3.477481   -0.032447
     78          1           0       -8.369775   -2.704784   -1.714196
     79          1           0       -8.626924   -3.366768   -0.177239
     80          1           0       -7.085046   -3.383588   -0.855847
     81          1           0        6.343935   -0.340493    0.072621
     82          1           0       -6.191565    0.046189    0.062134
     83          1           0        5.170688    2.454004    0.225871
     84          1           0       -5.135664   -2.694060   -0.693734
     85          1           0        3.729564   -0.353701    0.029410
     86          1           0       -3.843786   -0.179134    0.542280
     87          1           0        3.052982    3.032211    1.409852
     88          1           0        1.258246    3.002507    0.840224
     89          1           0        2.703587    3.176515   -0.416264
     90          1           0       -3.168766   -3.514170   -1.711048
     91          1           0       -3.128054   -3.909419   -0.116332
     92          1           0       -1.656846   -3.768563   -0.914876
     93          1           0        0.153547    0.941840    0.541236
     94          1           0       -1.517247   -0.020475   -0.069316
     95          1           0        1.919390   -1.449530   -0.389381
     96          1           0       -0.039963   -2.771779   -0.664015
 ---------------------------------------------------------------------

 SCF Done:  E(RB3LYP) =  -1557.58726334     A.U. after   15 cycles

 Excitation energies and oscillator strengths:

 Excited State   1:      Singlet-A      2.1465 eV  577.62 nm  f=2.7493  <S**2>=0.000
     148 ->149         0.70275
     148 <-149        -0.11180
 This state for optimization and/or second-order correction.
 Total Energy, E(TD-HF/TD-DFT) =  -1557.50838209
 Copying the excited state density for this state as the 1-particle RhoCI density.

 The electronic state is 1-A.
 Alpha  occ. eigenvalues --  -10.21034 -10.20275 -10.20243 -10.20143 -10.20139
 Alpha  occ. eigenvalues --  -10.19929 -10.19587 -10.19522 -10.19401 -10.19312
 Alpha  occ. eigenvalues --  -10.19308 -10.19227 -10.19202 -10.19176 -10.18969
 Alpha  occ. eigenvalues --  -10.18769 -10.18535 -10.18477 -10.18445 -10.18429
 Alpha  occ. eigenvalues --  -10.18204 -10.18131 -10.18103 -10.18086 -10.18068
 Alpha  occ. eigenvalues --  -10.18048 -10.18015 -10.18009 -10.17679 -10.17672
 Alpha  occ. eigenvalues --  -10.17665 -10.17375 -10.17277 -10.17178 -10.17132
 Alpha  occ. eigenvalues --  -10.16915 -10.16645 -10.16547 -10.16070 -10.15089
 Alpha  occ. eigenvalues --   -0.86192  -0.84074  -0.83177  -0.82691  -0.81349
 Alpha  occ. eigenvalues --   -0.80732  -0.80064  -0.78184  -0.78071  -0.77419
 Alpha  occ. eigenvalues --   -0.76126  -0.75020  -0.73955  -0.72112  -0.71749
 Alpha  occ. eigenvalues --   -0.69908  -0.69477  -0.69078  -0.68512  -0.68108
 Alpha  occ. eigenvalues --   -0.68071  -0.66858  -0.66834  -0.66179  -0.65513
 Alpha  occ. eigenvalues --   -0.62857  -0.61837  -0.60172  -0.59591  -0.57766
 Alpha  occ. eigenvalues --   -0.57622  -0.55667  -0.54902  -0.54284  -0.53707
 Alpha  occ. eigenvalues --   -0.53122  -0.52422  -0.50408  -0.49930  -0.49299
 Alpha  occ. eigenvalues --   -0.48240  -0.47886  -0.47054  -0.46819  -0.46467
 Alpha  occ. eigenvalues --   -0.45926  -0.45606  -0.45147  -0.44581  -0.44265
 Alpha  occ. eigenvalues --   -0.43616  -0.43194  -0.42820  -0.42380  -0.42187
 Alpha  occ. eigenvalues --   -0.41469  -0.41297  -0.41185  -0.40734  -0.40482
 Alpha  occ. eigenvalues --   -0.40446  -0.40297  -0.39991  -0.39704  -0.39334
 Alpha  occ. eigenvalues --   -0.39078  -0.38852  -0.38752  -0.38501  -0.38140
 Alpha  occ. eigenvalues --   -0.37858  -0.37821  -0.37556  -0.37170  -0.37027
 Alpha  occ. eigenvalues --   -0.36800  -0.36404  -0.36032  -0.35819  -0.35698
 Alpha  occ. eigenvalues --   -0.35071  -0.34852  -0.34747  -0.34261  -0.34086
 Alpha  occ. eigenvalues --   -0.33459  -0.33279  -0.33144  -0.33092  -0.32995
 Alpha  occ. eigenvalues --   -0.32543  -0.32467  -0.31395  -0.31294  -0.30676
 Alpha  occ. eigenvalues --   -0.30602  -0.30318  -0.30102  -0.28946  -0.28321
 Alpha  occ. eigenvalues --   -0.27559  -0.27129  -0.25906  -0.23646  -0.22368
 Alpha  occ. eigenvalues --   -0.20713  -0.18846  -0.16036
 Alpha virt. eigenvalues --   -0.08098  -0.04702  -0.01460   0.00730   0.02584
 Alpha virt. eigenvalues --    0.04175   0.05812   0.06647   0.07048   0.07146
 Alpha virt. eigenvalues --    0.07305   0.08032   0.08380   0.08770   0.09349

 Mulliken charges:
               1
     1  C   -0.026492
     2  C   -0.009275
     3  C   -0.201870
     4  C   -0.185190
     5  C   -0.180808
     6  C   -0.177872
     7  C    0.095444
     8  C    0.062640
     9  C   -0.234189
    10  C   -0.230717
    11  C    0.058262
    12  C    0.076304
    13  C   -0.271157
    14  C   -0.287064
    15  C   -0.303375
    16  C   -0.278119
    17  C   -0.129371
    18  C   -0.118435
    19  C   -0.332655
    20  C   -0.368094
    21  C   -0.088937
    22  C   -0.101815
    23  C    0.064518
    24  C    0.119739
    25  C   -0.367329
    26  C   -0.391867
    27  C   -0.077333
    28  C   -0.115256
    29  C   -0.086016
    30  C   -0.066612
    31  C   -0.102429
    32  C   -0.126332
    33  C    0.087966
    34  C    0.126788
    35  C   -0.349497
    36  C   -0.389453
    37  C   -0.133845
    38  C   -0.115726
    39  C   -0.050750
    40  C   -0.142046
    41  H    0.091111
    42  H    0.090400
    43  H    0.074848
    44  H    0.076160
    45  H    0.088318
    46  H    0.105199
    47  H    0.097749
    48  H    0.112963
    49  H    0.097031
    50  H    0.097641
    51  H    0.076918
    52  H    0.108148
    53  H    0.101861
    54  H    0.103113
    55  H    0.067524
    56  H    0.109749
    57  H    0.102099
    58  H    0.094921
    59  H    0.102873
    60  H    0.079272
    61  H    0.099804
    62  H    0.111649
    63  H    0.082896
    64  H    0.099998
    65  H    0.059227
    66  H    0.081332
    67  H    0.123517
    68  H    0.118860
    69  H    0.038017
    70  H    0.120733
    71  H    0.111397
    72  H    0.077931
    73  H    0.086377
    74  H    0.090260
    75  H    0.113326
    76  H    0.092275
    77  H    0.138015
    78  H    0.126359
    79  H    0.110894
    80  H    0.105957
    81  H    0.085588
    82  H    0.067066
    83  H    0.084249
    84  H    0.074517
    85  H    0.082766
    86  H    0.081883
    87  H    0.094674
    88  H    0.113855
    89  H    0.131100
    90  H    0.113867
    91  H    0.129052
    92  H    0.113185
    93  H    0.069360
    94  H    0.089500
    95  H    0.067233
    96  H    0.083653
 Sum of Mulliken charges =  -0.00000

 Dipole moment (field-independent basis, Debye):
    X=              1.1147    Y=             -0.0791    Z=             -0.2735  Tot=              1.1505
 Quadrupole moment (field-independent basis, Debye-Ang):
   XX=           -203.3781   YY=           -232.0671   ZZ=           -255.1188
   XY=              2.1907   XZ=             -0.1834   YZ=              3.9907

 Normal termination of Gaussian 16 at Fri Aug  2 00:25:06 2019.
