 Gaussian 16, Revision A.03,
 Gaussian 16:  ES64L-G16RevA.03 25-Dec-2016

 ---------------------------------
 # td=(NStates=1) B3LYP/6-31G(d,p)
 ---------------------------------

 --
 TD
 --
 Symbolic Z-matrix:
 Charge =  0 Multiplicity = 1

                         Standard orientation:
 ---------------------------------------------------------------------
 Center     Atomic      Atomic             Coordinates (Angstroms)
 Number     Number       Type             X           Y           Z
 ---------------------------------------------------------------------
      1          6           0      -12.105145   -0.675093   -0.617495
      2          6           0       12.197776    0.080289    0.684932
      3          6           0      -13.427387    0.229843   -0.596640
      4          6           0       13.090776   -1.150362    1.110656
      5          6           0      -13.191343    1.680565   -0.661505
      6          6           0       13.486250   -2.081744    0.021667
      7          6           0      -10.976919    0.098491    0.201953
      8          6           0       10.975856   -0.444317   -0.018087
      9          6           0      -12.321207    2.109009    0.527987
     10          6           0       12.091581   -2.709080   -0.405266
     11          6           0      -11.106579    1.295441    0.814232
     12          6           0       11.113783   -1.642560   -0.652436
     13          6           0      -11.689700   -0.758469   -2.155281
     14          6           0      -12.407593   -2.024841   -0.110479
     15          6           0       13.101608    1.157969   -0.003110
     16          6           0       11.604980    0.601146    2.052075
     17          6           0       -9.867934   -0.781888    0.372687
     18          6           0        9.841436    0.519178   -0.355188
     19          6           0      -10.127323    1.619880    1.847852
     20          6           0        9.826636   -2.095706   -1.541601
     21          6           0       -8.625212   -0.416249    0.216651
     22          6           0        8.585498    0.215451   -0.210633
     23          6           0       -7.422820   -1.343418    0.302679
     24          6           0        7.437792    1.242026   -0.429642
     25          6           0       -7.651938   -2.655428    0.505156
     26          6           0        7.892540    2.628716   -0.827022
     27          6           0       -6.170489   -0.722948    0.310775
     28          6           0        6.203207    0.845897   -0.206111
     29          6           0       -4.903292   -1.375216    0.357026
     30          6           0        5.050009    1.576190   -0.343761
     31          6           0       -3.757369   -0.675328    0.151992
     32          6           0        3.775508    1.087309   -0.228796
     33          6           0       -2.345918   -1.290317    0.276947
     34          6           0        2.561458    1.889715   -0.271666
     35          6           0       -2.194009   -2.656531    0.692726
     36          6           0        2.573643    3.415984   -0.540506
     37          6           0       -1.306580   -0.424547    0.139240
     38          6           0        1.353290    1.222400   -0.109166
     39          6           0       -1.202275    0.989556   -0.127253
     40          6           0       -0.058191    1.738437   -0.152245
     41          1           0      -13.968384   -0.002322    0.392034
     42          1           0      -14.059732   -0.104601   -1.351173
     43          1           0       12.651524   -1.732561    1.843880
     44          1           0       13.810671   -0.560340    1.519359
     45          1           0      -14.077788    2.433852   -0.550555
     46          1           0      -12.835349    2.041339   -1.692565
     47          1           0       14.258808   -2.667075    0.282663
     48          1           0       13.652296   -1.475878   -1.106464
     49          1           0      -12.975230    2.206836    1.491026
     50          1           0      -12.437522    3.401932    0.465148
     51          1           0       11.741338   -3.356573    0.339227
     52          1           0       12.252438   -3.258553   -1.348828
     53          1           0      -11.489387    0.130327   -2.794685
     54          1           0      -12.349951   -1.378574   -2.796265
     55          1           0      -10.710085   -1.138064   -2.372632
     56          1           0      -12.919612   -1.941472    0.989737
     57          1           0      -11.597224   -2.867137   -0.381702
     58          1           0      -13.241921   -2.500972   -0.545815
     59          1           0       13.724762    0.526081   -0.819910
     60          1           0       13.682304    1.613298    0.587889
     61          1           0       12.358265    1.962650   -0.441561
     62          1           0       11.008951   -0.118110    2.478037
     63          1           0       10.996277    1.473144    1.761025
     64          1           0       12.294912    1.088612    2.735128
     65          1           0       -9.987738   -1.927686    0.565260
     66          1           0       10.230769    1.568853   -0.326424
     67          1           0       -9.357998    0.737127    1.943176
     68          1           0      -10.551196    2.092605    2.795390
     69          1           0       -9.485577    2.506186    1.454741
     70          1           0        9.256552   -0.963349   -1.938642
     71          1           0        9.083360   -2.533215   -0.782957
     72          1           0       10.068990   -3.054182   -2.308922
     73          1           0       -8.279036    0.561627   -0.115810
     74          1           0        8.287960   -0.752399   -0.044293
     75          1           0       -8.032337   -2.796314    1.409197
     76          1           0       -6.690981   -3.259820    0.538789
     77          1           0       -8.418628   -3.309690   -0.061892
     78          1           0        8.356127    2.641684   -1.787332
     79          1           0        8.641074    3.019041   -0.055751
     80          1           0        7.053370    3.504929   -0.673298
     81          1           0       -5.955392    0.164218    0.449331
     82          1           0        6.145330   -0.223639    0.043004
     83          1           0       -4.887403   -2.428993    0.294094
     84          1           0        5.027173    2.567254   -0.477523
     85          1           0       -3.859268    0.379760    0.074800
     86          1           0        3.541896   -0.046882   -0.088703
     87          1           0       -2.791702   -3.017017    1.605954
     88          1           0       -1.197175   -2.625720    0.864871
     89          1           0       -2.356905   -3.252537   -0.308640
     90          1           0        3.180679    3.751255   -1.494051
     91          1           0        3.044418    3.948323    0.382028
     92          1           0        1.689232    3.696946   -0.737562
     93          1           0       -0.449368   -1.098511    0.512490
     94          1           0        1.496516    0.223975    0.238903
     95          1           0       -2.135498    1.277260   -0.408132
     96          1           0        0.135973    2.956375   -0.385172
 ---------------------------------------------------------------------

 SCF Done:  E(RB3LYP) =  -1557.44215998     A.U. after   14 cycles

 Excitation energies and oscillator strengths:

 Excited State   1:      Singlet-A      2.4214 eV  512.03 nm  f=2.6771  <S**2>=0.000
     148 ->149         0.70151
 This state for optimization and/or second-order correction.
 Total Energy, E(TD-HF/TD-DFT) =  -1557.35317379
 Copying the excited state density for this state as the 1-particle RhoCI density.

 The electronic state is 1-A.
 Alpha  occ. eigenvalues --  -10.21558 -10.21103 -10.20580 -10.20560 -10.20546
 Alpha  occ. eigenvalues --  -10.20155 -10.19822 -10.19697 -10.19570 -10.19520
 Alpha  occ. eigenvalues --  -10.19506 -10.19444 -10.19222 -10.19172 -10.18983
 Alpha  occ. eigenvalues --  -10.18977 -10.18939 -10.18898 -10.18871 -10.18787
 Alpha  occ. eigenvalues --  -10.18552 -10.18543 -10.18529 -10.18288 -10.18250
 Alpha  occ. eigenvalues --  -10.18241 -10.17964 -10.17927 -10.17920 -10.17916
 Alpha  occ. eigenvalues --  -10.17816 -10.17781 -10.17741 -10.17498 -10.17496
 Alpha  occ. eigenvalues --  -10.17401 -10.17039 -10.16832 -10.15938 -10.15602
 Alpha  occ. eigenvalues --   -0.85362  -0.85018  -0.84039  -0.83517  -0.82989
 Alpha  occ. eigenvalues --   -0.81483  -0.79300  -0.78817  -0.78264  -0.77599
 Alpha  occ. eigenvalues --   -0.77350  -0.76580  -0.74787  -0.73232  -0.72024
 Alpha  occ. eigenvalues --   -0.70225  -0.69231  -0.68966  -0.68610  -0.68019
 Alpha  occ. eigenvalues --   -0.67320  -0.67112  -0.66767  -0.66474  -0.65051
 Alpha  occ. eigenvalues --   -0.62398  -0.61453  -0.60084  -0.58281  -0.57301
 Alpha  occ. eigenvalues --   -0.56756  -0.56156  -0.55345  -0.54480  -0.53824
 Alpha  occ. eigenvalues --   -0.53504  -0.51829  -0.50838  -0.49978  -0.49455
 Alpha  occ. eigenvalues --   -0.48782  -0.47827  -0.47362  -0.47257  -0.46482
 Alpha  occ. eigenvalues --   -0.45992  -0.45545  -0.45348  -0.43970  -0.43882
 Alpha  occ. eigenvalues --   -0.43489  -0.43277  -0.42982  -0.42752  -0.42667
 Alpha  occ. eigenvalues --   -0.42426  -0.42349  -0.42028  -0.41962  -0.41150
 Alpha  occ. eigenvalues --   -0.40747  -0.40412  -0.40023  -0.39789  -0.39660
 Alpha  occ. eigenvalues --   -0.39288  -0.38984  -0.38755  -0.38450  -0.37795
 Alpha  occ. eigenvalues --   -0.37492  -0.37189  -0.36947  -0.36884  -0.36482
 Alpha  occ. eigenvalues --   -0.36209  -0.36080  -0.36021  -0.35389  -0.35242
 Alpha  occ. eigenvalues --   -0.34622  -0.34199  -0.33960  -0.33899  -0.33542
 Alpha  occ. eigenvalues --   -0.33448  -0.33372  -0.33289  -0.33184  -0.32813
 Alpha  occ. eigenvalues --   -0.32466  -0.31867  -0.31315  -0.30663  -0.30173
 Alpha  occ. eigenvalues --   -0.29775  -0.29750  -0.29302  -0.28789  -0.28341
 Alpha  occ. eigenvalues --   -0.27694  -0.27072  -0.26481  -0.24033  -0.22266
 Alpha  occ. eigenvalues --   -0.21199  -0.19036  -0.17028
 Alpha virt. eigenvalues --   -0.07499  -0.04685  -0.01680   0.00598   0.01975
 Alpha virt. eigenvalues --    0.04246   0.06162   0.06647   0.06860   0.06930
 Alpha virt. eigenvalues --    0.07109   0.07506   0.08258   0.08318   0.08792

 Mulliken charges:
               1
     1  C    0.028625
     2  C   -0.043779
     3  C   -0.161757
     4  C   -0.152218
     5  C   -0.169833
     6  C   -0.165243
     7  C    0.047507
     8  C    0.092405
     9  C   -0.231255
    10  C   -0.223233
    11  C    0.153407
    12  C    0.043987
    13  C   -0.328257
    14  C   -0.303474
    15  C   -0.287024
    16  C   -0.304232
    17  C   -0.150845
    18  C   -0.143164
    19  C   -0.380716
    20  C   -0.346459
    21  C   -0.080850
    22  C   -0.065295
    23  C    0.141131
    24  C    0.117391
    25  C   -0.416420
    26  C   -0.376094
    27  C   -0.089295
    28  C   -0.105399
    29  C   -0.079135
    30  C   -0.065552
    31  C   -0.124182
    32  C   -0.115062
    33  C    0.080221
    34  C    0.108529
    35  C   -0.352399
    36  C   -0.348021
    37  C   -0.102144
    38  C   -0.117811
    39  C   -0.077132
    40  C   -0.096767
    41  H    0.072877
    42  H    0.092797
    43  H    0.096112
    44  H    0.083826
    45  H    0.077139
    46  H    0.095427
    47  H    0.092773
    48  H    0.053815
    49  H    0.097342
    50  H    0.053566
    51  H    0.117370
    52  H    0.098034
    53  H    0.099579
    54  H    0.092499
    55  H    0.104441
    56  H    0.085580
    57  H    0.089864
    58  H    0.114860
    59  H    0.090736
    60  H    0.121552
    61  H    0.080979
    62  H    0.112603
    63  H    0.084135
    64  H    0.086845
    65  H    0.079945
    66  H    0.078863
    67  H    0.121857
    68  H    0.100491
    69  H    0.094610
    70  H    0.098547
    71  H    0.106297
    72  H    0.068572
    73  H    0.085576
    74  H    0.088082
    75  H    0.152934
    76  H    0.099487
    77  H    0.105646
    78  H    0.135776
    79  H    0.114073
    80  H    0.086634
    81  H    0.049132
    82  H    0.072235
    83  H    0.072570
    84  H    0.071007
    85  H    0.076121
    86  H    0.068849
    87  H    0.121907
    88  H    0.114140
    89  H    0.116283
    90  H    0.100655
    91  H    0.114817
    92  H    0.114961
    93  H    0.048084
    94  H    0.078133
    95  H    0.090382
    96  H    0.068428
 Sum of Mulliken charges =  -0.00000

 Dipole moment (field-independent basis, Debye):
    X=             -0.5178    Y=             -0.5838    Z=              0.8775  Tot=              1.1742
 Quadrupole moment (field-independent basis, Debye-Ang):
   XX=           -223.6259   YY=           -232.8863   ZZ=           -255.9429
   XY=              7.8916   XZ=              8.3658   YZ=             -3.7298

 Normal termination of Gaussian 16 at Wed Jul 31 00:16:28 2019.
