 Gaussian 16, Revision A.03,
 Gaussian 16:  ES64L-G16RevA.03 25-Dec-2016

 ---------------------------------
 # td=(NStates=1) B3LYP/6-31G(d,p)
 ---------------------------------

 --
 TD
 --
 Symbolic Z-matrix:
 Charge =  0 Multiplicity = 1

                         Standard orientation:
 ---------------------------------------------------------------------
 Center     Atomic      Atomic             Coordinates (Angstroms)
 Number     Number       Type             X           Y           Z
 ---------------------------------------------------------------------
      1          6           0       12.121659    0.609847   -0.747538
      2          6           0      -12.093723   -0.186637    0.942927
      3          6           0       13.479511   -0.266125   -0.724503
      4          6           0      -12.960493    1.101377    1.403974
      5          6           0       13.281380   -1.691518   -0.484650
      6          6           0      -13.415011    1.965494    0.263864
      7          6           0       11.068169    0.091780    0.291566
      8          6           0      -10.994004    0.360259   -0.127616
      9          6           0       12.593504   -2.025317    0.849313
     10          6           0      -12.203253    2.541477   -0.436738
     11          6           0       11.269374   -1.226773    0.957511
     12          6           0      -11.178538    1.598044   -0.721585
     13          6           0       11.394232    0.386839   -2.174622
     14          6           0       12.506941    1.933781   -0.443618
     15          6           0      -12.928549   -1.236950    0.270981
     16          6           0      -11.419403   -0.553368    2.223539
     17          6           0        9.818794    0.771602    0.383488
     18          6           0       -9.961772   -0.659601   -0.275947
     19          6           0       10.295412   -1.659874    2.066472
     20          6           0      -10.153697    2.094466   -1.765594
     21          6           0        8.586539    0.352554    0.431627
     22          6           0       -8.621773   -0.302261   -0.407419
     23          6           0        7.428289    1.248418    0.435546
     24          6           0       -7.553699   -1.234712   -0.451768
     25          6           0        7.752095    2.707889    0.811304
     26          6           0       -7.897538   -2.737396   -0.591297
     27          6           0        6.229398    0.787138    0.209977
     28          6           0       -6.339112   -0.753724   -0.308077
     29          6           0        5.004490    1.344518    0.199589
     30          6           0       -5.058680   -1.598588   -0.549350
     31          6           0        3.700259    0.640526    0.240925
     32          6           0       -3.811914   -1.078054   -0.413734
     33          6           0        2.411960    1.225477    0.259019
     34          6           0       -2.540090   -1.683333   -0.475612
     35          6           0        2.190673    2.775141    0.458991
     36          6           0       -2.632303   -3.216305   -0.733887
     37          6           0        1.211323    0.544386   -0.003256
     38          6           0       -1.405689   -1.014602   -0.440982
     39          6           0        1.148113   -0.846222   -0.216823
     40          6           0       -0.083426   -1.525433   -0.409691
     41          1           0       14.355595    0.184427    0.004277
     42          1           0       14.115830    0.135692   -1.687807
     43          1           0      -12.342719    1.726642    2.203813
     44          1           0      -13.765802    0.778279    1.825049
     45          1           0       14.361264   -2.127529   -0.421520
     46          1           0       12.512884   -2.104751   -1.431598
     47          1           0      -14.223005    2.832427    0.644161
     48          1           0      -13.836621    1.376033   -0.503798
     49          1           0       13.298832   -1.848580    1.727705
     50          1           0       11.989779   -2.931758    0.924408
     51          1           0      -11.810036    3.411832    0.189596
     52          1           0      -12.620052    3.079085   -1.388062
     53          1           0       11.083344   -0.587617   -2.115021
     54          1           0       12.320099    0.759474   -2.918395
     55          1           0       10.549234    0.880906   -2.404813
     56          1           0       12.497550    1.905826    0.647757
     57          1           0       11.741136    2.528471   -0.685068
     58          1           0       13.392455    2.300642   -0.900980
     59          1           0      -13.635090   -0.867051   -0.551779
     60          1           0      -13.499293   -1.601240    1.342458
     61          1           0      -12.477508   -2.003188   -0.253910
     62          1           0      -10.761921    0.297230    2.730300
     63          1           0      -10.728125   -1.388068    2.032803
     64          1           0      -12.301696   -0.567281    2.967754
     65          1           0        9.849785    1.897049    0.252245
     66          1           0      -10.336515   -1.766225   -0.582540
     67          1           0        9.443212   -0.881420    2.237881
     68          1           0       11.074285   -1.639303    2.948372
     69          1           0        9.832080   -2.732584    2.093281
     70          1           0       -9.473156    1.335958   -2.186585
     71          1           0       -9.500111    2.869829   -1.380945
     72          1           0      -10.871183    2.686240   -2.426329
     73          1           0        8.380058   -0.667718    0.470562
     74          1           0       -8.297938    0.788599   -0.071246
     75          1           0        8.416078    2.527135    1.783742
     76          1           0        6.664622    3.203895    1.197354
     77          1           0        8.394819    3.051036   -0.157874
     78          1           0       -8.389124   -3.059898   -1.540492
     79          1           0       -8.697203   -2.919797    0.130736
     80          1           0       -7.051823   -3.362844   -0.459624
     81          1           0        6.103175   -0.244515    0.136223
     82          1           0       -6.078885    0.331705   -0.137508
     83          1           0        4.767744    2.403048    0.187967
     84          1           0       -5.430283   -2.576958   -0.886732
     85          1           0        3.742414   -0.470609    0.125172
     86          1           0       -3.872457   -0.056456   -0.178798
     87          1           0        2.703957    3.311316    1.394193
     88          1           0        1.011618    3.009098    0.314047
     89          1           0        2.767678    3.213670   -0.518385
     90          1           0       -2.932860   -3.405964   -1.741175
     91          1           0       -3.190694   -3.855726   -0.110155
     92          1           0       -1.699543   -3.750020   -0.578299
     93          1           0        0.547117    1.270739    0.040259
     94          1           0       -1.390384    0.030056   -0.349095
     95          1           0        1.915010   -1.623065   -0.166207
     96          1           0       -0.054304   -2.591495   -0.595190
 ---------------------------------------------------------------------

 SCF Done:  E(RB3LYP) =  -1557.48475434     A.U. after   16 cycles

 Excitation energies and oscillator strengths:

 Excited State   1:      Singlet-A      2.0616 eV  601.41 nm  f=3.1711  <S**2>=0.000
     148 ->149         0.70533
     148 <-149        -0.12170
 This state for optimization and/or second-order correction.
 Total Energy, E(TD-HF/TD-DFT) =  -1557.40899307
 Copying the excited state density for this state as the 1-particle RhoCI density.

 The electronic state is 1-A.
 Alpha  occ. eigenvalues --  -10.21837 -10.21825 -10.21140 -10.20799 -10.20331
 Alpha  occ. eigenvalues --  -10.20266 -10.20261 -10.20045 -10.20027 -10.19807
 Alpha  occ. eigenvalues --  -10.19711 -10.19690 -10.19677 -10.19663 -10.19629
 Alpha  occ. eigenvalues --  -10.19455 -10.19381 -10.19372 -10.19332 -10.19252
 Alpha  occ. eigenvalues --  -10.19065 -10.19000 -10.18788 -10.18622 -10.18577
 Alpha  occ. eigenvalues --  -10.18431 -10.18419 -10.18234 -10.18213 -10.18158
 Alpha  occ. eigenvalues --  -10.18150 -10.18112 -10.17612 -10.17496 -10.17325
 Alpha  occ. eigenvalues --  -10.17231 -10.17140 -10.16926 -10.16830 -10.14995
 Alpha  occ. eigenvalues --   -0.85084  -0.84647  -0.83795  -0.83557  -0.82658
 Alpha  occ. eigenvalues --   -0.81847  -0.79099  -0.79063  -0.78950  -0.77684
 Alpha  occ. eigenvalues --   -0.76586  -0.75074  -0.73886  -0.72200  -0.71646
 Alpha  occ. eigenvalues --   -0.70015  -0.69545  -0.69273  -0.68342  -0.67852
 Alpha  occ. eigenvalues --   -0.67058  -0.66975  -0.66786  -0.66661  -0.65560
 Alpha  occ. eigenvalues --   -0.62766  -0.62016  -0.59438  -0.58984  -0.56662
 Alpha  occ. eigenvalues --   -0.55660  -0.54839  -0.54713  -0.53840  -0.53613
 Alpha  occ. eigenvalues --   -0.52713  -0.51833  -0.50832  -0.49911  -0.49425
 Alpha  occ. eigenvalues --   -0.48668  -0.47958  -0.47326  -0.47047  -0.46330
 Alpha  occ. eigenvalues --   -0.45832  -0.45507  -0.45282  -0.44728  -0.44479
 Alpha  occ. eigenvalues --   -0.43638  -0.43411  -0.42443  -0.42213  -0.42130
 Alpha  occ. eigenvalues --   -0.41878  -0.41766  -0.41634  -0.41382  -0.40500
 Alpha  occ. eigenvalues --   -0.40445  -0.40291  -0.39814  -0.39643  -0.39516
 Alpha  occ. eigenvalues --   -0.39141  -0.38707  -0.38549  -0.38216  -0.38027
 Alpha  occ. eigenvalues --   -0.37579  -0.37454  -0.37207  -0.36864  -0.36573
 Alpha  occ. eigenvalues --   -0.36396  -0.36013  -0.35873  -0.35593  -0.35562
 Alpha  occ. eigenvalues --   -0.35230  -0.35197  -0.34368  -0.34164  -0.33899
 Alpha  occ. eigenvalues --   -0.33520  -0.33387  -0.33048  -0.32763  -0.32238
 Alpha  occ. eigenvalues --   -0.31936  -0.31686  -0.31611  -0.31395  -0.31256
 Alpha  occ. eigenvalues --   -0.30303  -0.30018  -0.28818  -0.28485  -0.28421
 Alpha  occ. eigenvalues --   -0.27643  -0.27411  -0.25974  -0.24147  -0.22492
 Alpha  occ. eigenvalues --   -0.20531  -0.18926  -0.16113
 Alpha virt. eigenvalues --   -0.08629  -0.05199  -0.02419  -0.00526   0.02744
 Alpha virt. eigenvalues --    0.04101   0.05441   0.06159   0.06289   0.06646
 Alpha virt. eigenvalues --    0.07515   0.07547   0.07953   0.08665   0.09089

 Mulliken charges:
               1
     1  C    0.007399
     2  C   -0.004596
     3  C   -0.150014
     4  C   -0.153141
     5  C   -0.169326
     6  C   -0.184146
     7  C    0.026000
     8  C    0.050827
     9  C   -0.189671
    10  C   -0.224633
    11  C    0.013839
    12  C    0.079063
    13  C   -0.281426
    14  C   -0.292385
    15  C   -0.275713
    16  C   -0.286284
    17  C   -0.117977
    18  C   -0.148457
    19  C   -0.356242
    20  C   -0.353873
    21  C   -0.069923
    22  C   -0.112769
    23  C    0.096759
    24  C    0.146395
    25  C   -0.353313
    26  C   -0.378557
    27  C   -0.089065
    28  C   -0.145173
    29  C   -0.098055
    30  C   -0.078707
    31  C   -0.126475
    32  C   -0.122096
    33  C    0.086509
    34  C    0.136609
    35  C   -0.363827
    36  C   -0.387004
    37  C   -0.057856
    38  C   -0.094139
    39  C   -0.088850
    40  C   -0.115487
    41  H    0.063227
    42  H    0.072909
    43  H    0.073850
    44  H    0.093049
    45  H    0.082736
    46  H    0.070657
    47  H    0.056204
    48  H    0.106053
    49  H    0.105670
    50  H    0.119919
    51  H    0.100608
    52  H    0.080715
    53  H    0.112669
    54  H    0.065497
    55  H    0.113327
    56  H    0.108159
    57  H    0.102474
    58  H    0.097292
    59  H    0.100315
    60  H    0.062643
    61  H    0.112775
    62  H    0.093476
    63  H    0.101218
    64  H    0.088629
    65  H    0.065490
    66  H    0.085970
    67  H    0.118116
    68  H    0.100603
    69  H    0.101499
    70  H    0.119554
    71  H    0.110985
    72  H    0.086242
    73  H    0.080773
    74  H    0.088428
    75  H    0.119573
    76  H    0.095649
    77  H    0.120032
    78  H    0.117097
    79  H    0.124618
    80  H    0.114524
    81  H    0.067548
    82  H    0.075153
    83  H    0.068400
    84  H    0.073950
    85  H    0.071636
    86  H    0.071672
    87  H    0.113591
    88  H    0.094948
    89  H    0.104319
    90  H    0.129082
    91  H    0.120316
    92  H    0.100405
    93  H    0.062188
    94  H    0.072597
    95  H    0.098864
    96  H    0.067886
 Sum of Mulliken charges =  -0.00000

 Dipole moment (field-independent basis, Debye):
    X=              0.9309    Y=             -0.4932    Z=              0.2890  Tot=              1.0924
 Quadrupole moment (field-independent basis, Debye-Ang):
   XX=           -225.7909   YY=           -238.0693   ZZ=           -257.7196
   XY=              1.3312   XZ=              6.3532   YZ=              1.6756

 Normal termination of Gaussian 16 at Wed Jul 24 01:52:15 2019.
