 Gaussian 16, Revision A.03,
 Gaussian 16:  ES64L-G16RevA.03 25-Dec-2016

 ---------------------------------
 # td=(NStates=1) B3LYP/6-31G(d,p)
 ---------------------------------

 --
 TD
 --
 Symbolic Z-matrix:
 Charge =  0 Multiplicity = 1

                         Standard orientation:
 ---------------------------------------------------------------------
 Center     Atomic      Atomic             Coordinates (Angstroms)
 Number     Number       Type             X           Y           Z
 ---------------------------------------------------------------------
      1          6           0      -12.171629   -0.534429   -0.577750
      2          6           0       12.072878    0.146309    0.776776
      3          6           0      -13.467811    0.257152   -0.508574
      4          6           0       13.079845   -0.935448    1.339239
      5          6           0      -13.181175    1.804174   -0.667364
      6          6           0       13.480703   -1.990019    0.235426
      7          6           0      -11.039819    0.045452    0.305503
      8          6           0       10.980051   -0.407157   -0.153261
      9          6           0      -12.242756    2.251204    0.496321
     10          6           0       12.244964   -2.620738   -0.401501
     11          6           0      -11.082963    1.319016    0.792530
     12          6           0       11.217205   -1.574412   -0.748495
     13          6           0      -11.700750   -0.681157   -2.122649
     14          6           0      -12.514469   -2.023402   -0.058363
     15          6           0       12.969385    1.179325    0.238073
     16          6           0       11.326772    0.664243    2.025976
     17          6           0       -9.879709   -0.876902    0.487776
     18          6           0        9.753827    0.520615   -0.399659
     19          6           0      -10.055833    1.967850    1.657807
     20          6           0       10.164914   -2.138468   -1.765415
     21          6           0       -8.569207   -0.495570    0.414435
     22          6           0        8.518053    0.237624   -0.425905
     23          6           0       -7.414696   -1.358759    0.494361
     24          6           0        7.496584    1.289123   -0.496693
     25          6           0       -7.579047   -2.743910    0.834618
     26          6           0        7.984475    2.699449   -0.515267
     27          6           0       -6.162206   -0.723362    0.182358
     28          6           0        6.171137    0.833809   -0.487585
     29          6           0       -4.908746   -1.319042    0.285516
     30          6           0        4.980075    1.552646   -0.396770
     31          6           0       -3.727639   -0.724590    0.204686
     32          6           0        3.814685    0.994176   -0.313399
     33          6           0       -2.381068   -1.358441    0.214357
     34          6           0        2.468158    1.856000   -0.416496
     35          6           0       -2.263517   -2.844140    0.502294
     36          6           0        2.610638    3.249280   -0.326687
     37          6           0       -1.180995   -0.701796    0.050953
     38          6           0        1.329444    1.117508   -0.435608
     39          6           0       -1.207876    0.781264   -0.224537
     40          6           0       -0.033371    1.607102   -0.337518
     41          1           0      -13.778855    0.265686    0.518058
     42          1           0      -14.156480   -0.269743   -1.316501
     43          1           0       12.541373   -1.641851    2.083023
     44          1           0       13.718442   -0.519588    2.137763
     45          1           0      -14.162434    2.429695   -0.736827
     46          1           0      -12.740359    1.675286   -1.688137
     47          1           0       13.960879   -2.987485    0.674009
     48          1           0       14.088821   -1.438337   -0.550074
     49          1           0      -12.740628    2.460819    1.453374
     50          1           0      -11.585085    3.063616    0.504108
     51          1           0       11.951410   -3.290132    0.499923
     52          1           0       12.410108   -3.214442   -1.190476
     53          1           0      -11.599851    0.330664   -2.666831
     54          1           0      -12.602925   -1.004934   -2.648630
     55          1           0      -10.782728   -1.353499   -2.387182
     56          1           0      -12.863707   -2.011050    0.929018
     57          1           0      -11.751570   -2.809265    0.123052
     58          1           0      -13.302383   -2.416573   -0.733654
     59          1           0       13.426389    0.508721   -0.555501
     60          1           0       13.517311    1.677714    0.939905
     61          1           0       12.445223    1.996251   -0.164388
     62          1           0       10.621601   -0.127640    2.343649
     63          1           0       10.780563    1.581243    1.811810
     64          1           0       12.164913    0.850257    3.027691
     65          1           0      -10.061287   -1.935038    0.399652
     66          1           0       10.192176    1.609879   -0.534856
     67          1           0       -9.473843    1.166736    1.987651
     68          1           0      -10.409681    2.508038    2.559266
     69          1           0       -9.496877    2.704124    0.866050
     70          1           0        9.686558   -1.064067   -2.221111
     71          1           0        9.557919   -3.011659   -1.421905
     72          1           0       10.752309   -2.602192   -2.584175
     73          1           0       -8.276736    0.439180   -0.066192
     74          1           0        8.032651   -0.531321   -0.215177
     75          1           0       -8.354881   -3.036138    1.606935
     76          1           0       -6.749909   -3.457310    1.108223
     77          1           0       -8.130886   -3.247721   -0.024031
     78          1           0        8.488277    2.925954   -1.466307
     79          1           0        8.738015    3.030162    0.350456
     80          1           0        7.208129    3.383956   -0.468026
     81          1           0       -6.257065    0.176446   -0.179163
     82          1           0        5.969620   -0.108965   -0.338283
     83          1           0       -4.886331   -2.321852    0.713102
     84          1           0        5.125723    2.804196   -0.428926
     85          1           0       -3.714158    0.509313    0.135070
     86          1           0        3.695403   -0.122915   -0.357086
     87          1           0       -2.741952   -3.206386    1.409857
     88          1           0       -1.263021   -3.226376    0.318098
     89          1           0       -3.047651   -3.231033   -0.271565
     90          1           0        2.903530    3.843001   -1.367012
     91          1           0        3.220233    3.737790    0.585944
     92          1           0        1.681737    3.912048   -0.209866
     93          1           0       -0.325195   -1.180624    0.360333
     94          1           0        1.411193   -0.000905   -0.338767
     95          1           0       -2.131744    1.279788   -0.269348
     96          1           0       -0.293360    2.569030   -0.603055
 ---------------------------------------------------------------------

 SCF Done:  E(RB3LYP) =  -1557.51973217     A.U. after   15 cycles

 Excitation energies and oscillator strengths:

 Excited State   1:      Singlet-A      2.3012 eV  538.77 nm  f=2.5020  <S**2>=0.000
     148 ->149         0.70142
 This state for optimization and/or second-order correction.
 Total Energy, E(TD-HF/TD-DFT) =  -1557.43516300
 Copying the excited state density for this state as the 1-particle RhoCI density.

 The electronic state is 1-A.
 Alpha  occ. eigenvalues --  -10.21233 -10.20618 -10.20474 -10.20318 -10.20236
 Alpha  occ. eigenvalues --  -10.19998 -10.19883 -10.19789 -10.19437 -10.19365
 Alpha  occ. eigenvalues --  -10.19345 -10.19204 -10.19112 -10.19032 -10.19001
 Alpha  occ. eigenvalues --  -10.18983 -10.18929 -10.18896 -10.18791 -10.18731
 Alpha  occ. eigenvalues --  -10.18692 -10.18685 -10.18638 -10.18563 -10.18467
 Alpha  occ. eigenvalues --  -10.18458 -10.18451 -10.18445 -10.18445 -10.18430
 Alpha  occ. eigenvalues --  -10.18355 -10.18284 -10.18230 -10.18203 -10.17999
 Alpha  occ. eigenvalues --  -10.17795 -10.17510 -10.17392 -10.16189 -10.15610
 Alpha  occ. eigenvalues --   -0.84870  -0.84787  -0.83547  -0.83462  -0.82075
 Alpha  occ. eigenvalues --   -0.81497  -0.78976  -0.78837  -0.78429  -0.77930
 Alpha  occ. eigenvalues --   -0.76033  -0.75344  -0.74394  -0.72084  -0.72002
 Alpha  occ. eigenvalues --   -0.69672  -0.69247  -0.68910  -0.68241  -0.68013
 Alpha  occ. eigenvalues --   -0.67665  -0.67188  -0.66387  -0.66047  -0.65821
 Alpha  occ. eigenvalues --   -0.62555  -0.61622  -0.59838  -0.58361  -0.57199
 Alpha  occ. eigenvalues --   -0.56943  -0.55319  -0.55166  -0.53886  -0.53663
 Alpha  occ. eigenvalues --   -0.52941  -0.52402  -0.51051  -0.50595  -0.49594
 Alpha  occ. eigenvalues --   -0.48354  -0.47841  -0.47522  -0.46999  -0.46258
 Alpha  occ. eigenvalues --   -0.45810  -0.45256  -0.44787  -0.44107  -0.43628
 Alpha  occ. eigenvalues --   -0.43404  -0.43296  -0.42897  -0.42158  -0.42044
 Alpha  occ. eigenvalues --   -0.41532  -0.41152  -0.40986  -0.40801  -0.40735
 Alpha  occ. eigenvalues --   -0.40532  -0.40332  -0.40287  -0.40080  -0.39659
 Alpha  occ. eigenvalues --   -0.39443  -0.39103  -0.38863  -0.38736  -0.38683
 Alpha  occ. eigenvalues --   -0.38198  -0.37491  -0.37320  -0.37116  -0.36388
 Alpha  occ. eigenvalues --   -0.36272  -0.36127  -0.35756  -0.35560  -0.35255
 Alpha  occ. eigenvalues --   -0.35155  -0.34499  -0.34413  -0.34210  -0.33449
 Alpha  occ. eigenvalues --   -0.33206  -0.33154  -0.33020  -0.32498  -0.32138
 Alpha  occ. eigenvalues --   -0.31952  -0.31731  -0.31403  -0.31129  -0.30655
 Alpha  occ. eigenvalues --   -0.30112  -0.29880  -0.29054  -0.28758  -0.28551
 Alpha  occ. eigenvalues --   -0.27824  -0.27137  -0.26440  -0.23685  -0.22929
 Alpha  occ. eigenvalues --   -0.20980  -0.18833  -0.16706
 Alpha virt. eigenvalues --   -0.07736  -0.05198  -0.02150   0.00826   0.02196
 Alpha virt. eigenvalues --    0.03899   0.06241   0.06600   0.06984   0.07238
 Alpha virt. eigenvalues --    0.07532   0.07783   0.08055   0.08805   0.08909

 Mulliken charges:
               1
     1  C   -0.011794
     2  C   -0.027101
     3  C   -0.180488
     4  C   -0.167450
     5  C   -0.192595
     6  C   -0.197116
     7  C    0.106177
     8  C    0.081015
     9  C   -0.203507
    10  C   -0.181358
    11  C    0.016341
    12  C    0.034022
    13  C   -0.304806
    14  C   -0.313543
    15  C   -0.258795
    16  C   -0.279101
    17  C   -0.143203
    18  C   -0.175398
    19  C   -0.356797
    20  C   -0.357437
    21  C   -0.115752
    22  C    0.029110
    23  C    0.152546
    24  C    0.096997
    25  C   -0.410357
    26  C   -0.380065
    27  C   -0.111056
    28  C   -0.125560
    29  C   -0.076867
    30  C   -0.030411
    31  C   -0.087961
    32  C   -0.144446
    33  C    0.103506
    34  C    0.168328
    35  C   -0.376040
    36  C   -0.397554
    37  C   -0.127151
    38  C   -0.119862
    39  C   -0.089777
    40  C   -0.106224
    41  H    0.106072
    42  H    0.079672
    43  H    0.066970
    44  H    0.096623
    45  H    0.084997
    46  H    0.101045
    47  H    0.071284
    48  H    0.090617
    49  H    0.106862
    50  H    0.107141
    51  H    0.096644
    52  H    0.102483
    53  H    0.092440
    54  H    0.097474
    55  H    0.102760
    56  H    0.111782
    57  H    0.095251
    58  H    0.092801
    59  H    0.091991
    60  H    0.107651
    61  H    0.086771
    62  H    0.108201
    63  H    0.096882
    64  H    0.033615
    65  H    0.078583
    66  H    0.084473
    67  H    0.133671
    68  H    0.107868
    69  H    0.097757
    70  H    0.094430
    71  H    0.110703
    72  H    0.092647
    73  H    0.088714
    74  H    0.057999
    75  H    0.117258
    76  H    0.114624
    77  H    0.120895
    78  H    0.124811
    79  H    0.104687
    80  H    0.109976
    81  H    0.062488
    82  H    0.062802
    83  H    0.076283
    84  H    0.063173
    85  H    0.063252
    86  H    0.081218
    87  H    0.123448
    88  H    0.113287
    89  H    0.104712
    90  H    0.096584
    91  H    0.114513
    92  H    0.106549
    93  H    0.090032
    94  H    0.076266
    95  H    0.080782
    96  H    0.079014
 Sum of Mulliken charges =  -0.00000

 Dipole moment (field-independent basis, Debye):
    X=             -2.8858    Y=             -0.3490    Z=              0.5114  Tot=              2.9515
 Quadrupole moment (field-independent basis, Debye-Ang):
   XX=           -233.7765   YY=           -230.9645   ZZ=           -256.3680
   XY=              1.3760   XZ=             -0.9184   YZ=             -1.8149

 Normal termination of Gaussian 16 at Wed Jul 31 00:16:36 2019.
