 Gaussian 16, Revision A.03,
 Gaussian 16:  ES64L-G16RevA.03 25-Dec-2016

 ---------------------------------
 # td=(NStates=1) B3LYP/6-31G(d,p)
 ---------------------------------

 --
 TD
 --
 Symbolic Z-matrix:
 Charge =  0 Multiplicity = 1

                         Standard orientation:
 ---------------------------------------------------------------------
 Center     Atomic      Atomic             Coordinates (Angstroms)
 Number     Number       Type             X           Y           Z
 ---------------------------------------------------------------------
      1          6           0      -11.979172    0.557977    0.931445
      2          6           0       12.140588   -0.044677   -0.709089
      3          6           0      -13.275938   -0.148180    1.006472
      4          6           0       13.062827    1.021163   -1.031668
      5          6           0      -13.028721   -1.664888    0.946142
      6          6           0       13.419479    1.924099    0.073457
      7          6           0      -10.970603   -0.018898   -0.189216
      8          6           0       10.979411    0.537928    0.207100
      9          6           0      -12.360342   -2.191093   -0.342816
     10          6           0       12.161128    2.709743    0.531295
     11          6           0      -11.146646   -1.275513   -0.738993
     12          6           0       11.035595    1.726657    0.799483
     13          6           0      -11.304037    0.579588    2.325574
     14          6           0      -12.383146    2.103749    0.623191
     15          6           0       12.911340   -1.270479    0.111501
     16          6           0       11.675876   -0.755060   -2.003494
     17          6           0       -9.876844    0.901567   -0.588285
     18          6           0        9.853857   -0.417861    0.390129
     19          6           0      -10.220401   -1.735885   -1.879167
     20          6           0        9.916141    2.311270    1.655355
     21          6           0       -8.529760    0.454108   -0.497835
     22          6           0        8.546358   -0.259046    0.391969
     23          6           0       -7.451188    1.352563   -0.718427
     24          6           0        7.471205   -1.222562    0.521689
     25          6           0       -7.526295    2.796278   -1.046257
     26          6           0        7.870199   -2.677558    0.744350
     27          6           0       -6.184506    0.780396   -0.378591
     28          6           0        6.148001   -0.913222    0.318319
     29          6           0       -4.903547    1.351997   -0.479061
     30          6           0        4.855628   -1.643822    0.189005
     31          6           0       -3.830286    0.645544   -0.437793
     32          6           0        3.640815   -1.167262    0.091856
     33          6           0       -2.395385    1.219980   -0.562604
     34          6           0        2.395090   -1.844939    0.200901
     35          6           0       -2.165130    2.690861   -0.699077
     36          6           0        2.410002   -3.277019    0.559136
     37          6           0       -1.205259    0.404226   -0.417632
     38          6           0        1.224276   -1.163135   -0.009730
     39          6           0       -1.173313   -0.994168   -0.236108
     40          6           0       -0.049617   -1.691756   -0.120165
     41          1           0      -14.024807    0.125559    0.123787
     42          1           0      -13.712771    0.222050    1.955318
     43          1           0       12.482956    1.485788   -1.854943
     44          1           0       13.938443    0.318638   -1.307268
     45          1           0      -14.079259   -2.344621    1.199681
     46          1           0      -12.412041   -1.879933    1.878425
     47          1           0       14.133437    2.651664   -0.313671
     48          1           0       13.911797    1.376511    1.051100
     49          1           0      -13.133374   -2.076326   -0.977549
     50          1           0      -11.857739   -3.325241   -0.234183
     51          1           0       11.912831    3.517509   -0.207775
     52          1           0       12.304227    3.303525    1.311141
     53          1           0      -11.312498   -0.562338    2.477979
     54          1           0      -11.804622    1.179781    3.203485
     55          1           0      -10.111406    0.902223    2.303750
     56          1           0      -12.866649    2.405106   -0.214437
     57          1           0      -11.568475    2.672779    1.039295
     58          1           0      -13.282264    2.403153    1.575337
     59          1           0       13.001796   -0.804573    1.000259
     60          1           0       13.775148   -1.687558   -0.498867
     61          1           0       12.324467   -2.165328    0.397103
     62          1           0       11.134182    0.153551   -2.544055
     63          1           0       10.996752   -1.619357   -1.866034
     64          1           0       12.581733   -0.893634   -2.572024
     65          1           0      -10.183326    2.058283   -0.657827
     66          1           0       10.295371   -1.466217    0.480758
     67          1           0       -9.827096   -0.834742   -2.396819
     68          1           0      -10.849021   -2.352384   -2.646456
     69          1           0       -9.546300   -2.513649   -1.629489
     70          1           0        9.249427    1.574380    2.219470
     71          1           0        9.308919    2.938078    1.287695
     72          1           0       10.299714    2.782394    2.465326
     73          1           0       -8.291432   -0.547640   -0.103666
     74          1           0        8.358926    0.644586    0.271151
     75          1           0       -8.108542    2.717304   -1.975316
     76          1           0       -6.557921    3.368316   -1.296078
     77          1           0       -8.047299    3.537738   -0.223478
     78          1           0        8.349856   -2.582484    1.767731
     79          1           0        8.354763   -3.272313   -0.221648
     80          1           0        7.030048   -3.351856    0.944820
     81          1           0       -6.129094   -0.451538   -0.323849
     82          1           0        6.026993    0.183803    0.065259
     83          1           0       -5.090261    2.449211   -0.834185
     84          1           0        4.945036   -2.673367    0.499664
     85          1           0       -3.883737   -0.425598   -0.209213
     86          1           0        3.529676   -0.013798   -0.163633
     87          1           0       -2.544046    2.922120   -1.766937
     88          1           0       -1.116006    2.948713   -0.783885
     89          1           0       -2.641650    3.136418    0.118192
     90          1           0        2.887367   -3.341469    1.565758
     91          1           0        3.100754   -3.883031   -0.142690
     92          1           0        1.449834   -3.701987    0.634389
     93          1           0       -0.187234    1.015688   -0.547173
     94          1           0        1.266475   -0.130946   -0.458143
     95          1           0       -2.009600   -1.482483   -0.168990
     96          1           0       -0.318533   -2.766484    0.109244
 ---------------------------------------------------------------------

 SCF Done:  E(RB3LYP) =  -1557.51671408     A.U. after   15 cycles

 Excitation energies and oscillator strengths:

 Excited State   1:      Singlet-A      2.2453 eV  552.20 nm  f=2.9437  <S**2>=0.000
     148 ->149         0.70814
 This state for optimization and/or second-order correction.
 Total Energy, E(TD-HF/TD-DFT) =  -1557.43420108
 Copying the excited state density for this state as the 1-particle RhoCI density.

 The electronic state is 1-A.
 Alpha  occ. eigenvalues --  -10.21198 -10.20813 -10.20769 -10.20711 -10.20280
 Alpha  occ. eigenvalues --  -10.20026 -10.19945 -10.19905 -10.19853 -10.19806
 Alpha  occ. eigenvalues --  -10.19796 -10.19791 -10.19624 -10.19592 -10.19570
 Alpha  occ. eigenvalues --  -10.19542 -10.19297 -10.19201 -10.19142 -10.18974
 Alpha  occ. eigenvalues --  -10.18900 -10.18891 -10.18878 -10.18689 -10.18608
 Alpha  occ. eigenvalues --  -10.18529 -10.18454 -10.18283 -10.18273 -10.18232
 Alpha  occ. eigenvalues --  -10.18112 -10.18104 -10.17996 -10.17720 -10.17475
 Alpha  occ. eigenvalues --  -10.17471 -10.17132 -10.16766 -10.16154 -10.15552
 Alpha  occ. eigenvalues --   -0.85399  -0.84277  -0.84134  -0.83333  -0.82111
 Alpha  occ. eigenvalues --   -0.81377  -0.79995  -0.78876  -0.77915  -0.77289
 Alpha  occ. eigenvalues --   -0.76579  -0.75442  -0.74785  -0.72630  -0.71343
 Alpha  occ. eigenvalues --   -0.70119  -0.69384  -0.68338  -0.67821  -0.67601
 Alpha  occ. eigenvalues --   -0.67411  -0.67226  -0.66846  -0.66262  -0.65771
 Alpha  occ. eigenvalues --   -0.62516  -0.61670  -0.60303  -0.58079  -0.57906
 Alpha  occ. eigenvalues --   -0.56084  -0.55549  -0.54452  -0.53151  -0.52711
 Alpha  occ. eigenvalues --   -0.51880  -0.51772  -0.50713  -0.50115  -0.48891
 Alpha  occ. eigenvalues --   -0.48567  -0.47937  -0.47010  -0.46164  -0.45891
 Alpha  occ. eigenvalues --   -0.45287  -0.44971  -0.44532  -0.44284  -0.43840
 Alpha  occ. eigenvalues --   -0.43647  -0.43491  -0.43423  -0.42982  -0.42164
 Alpha  occ. eigenvalues --   -0.41939  -0.41859  -0.41735  -0.41455  -0.41301
 Alpha  occ. eigenvalues --   -0.41174  -0.41050  -0.40609  -0.40342  -0.39595
 Alpha  occ. eigenvalues --   -0.39239  -0.38894  -0.38748  -0.38246  -0.38144
 Alpha  occ. eigenvalues --   -0.37776  -0.37208  -0.36919  -0.36498  -0.36332
 Alpha  occ. eigenvalues --   -0.35941  -0.35835  -0.35466  -0.35223  -0.35018
 Alpha  occ. eigenvalues --   -0.34305  -0.34248  -0.34145  -0.33841  -0.33734
 Alpha  occ. eigenvalues --   -0.33472  -0.33291  -0.32892  -0.32670  -0.32332
 Alpha  occ. eigenvalues --   -0.31981  -0.31923  -0.31554  -0.31267  -0.30923
 Alpha  occ. eigenvalues --   -0.30710  -0.29876  -0.29647  -0.28746  -0.28379
 Alpha  occ. eigenvalues --   -0.27823  -0.27255  -0.25984  -0.24167  -0.23359
 Alpha  occ. eigenvalues --   -0.21119  -0.18984  -0.16612
 Alpha virt. eigenvalues --   -0.08012  -0.05279  -0.01826   0.00966   0.02716
 Alpha virt. eigenvalues --    0.04080   0.05456   0.05707   0.06432   0.07292
 Alpha virt. eigenvalues --    0.07542   0.07768   0.08455   0.08716   0.08946

 Mulliken charges:
               1
     1  C    0.009975
     2  C   -0.020909
     3  C   -0.148425
     4  C   -0.143647
     5  C   -0.194752
     6  C   -0.183786
     7  C    0.070485
     8  C    0.057833
     9  C   -0.188506
    10  C   -0.214292
    11  C    0.046564
    12  C    0.054042
    13  C   -0.292366
    14  C   -0.291915
    15  C   -0.318839
    16  C   -0.279648
    17  C   -0.183871
    18  C   -0.132806
    19  C   -0.363098
    20  C   -0.373526
    21  C   -0.076716
    22  C   -0.034436
    23  C    0.118360
    24  C    0.102766
    25  C   -0.365998
    26  C   -0.364891
    27  C   -0.139165
    28  C   -0.136486
    29  C   -0.027075
    30  C   -0.093535
    31  C   -0.119308
    32  C   -0.082179
    33  C    0.056525
    34  C    0.141234
    35  C   -0.358038
    36  C   -0.377635
    37  C   -0.129001
    38  C   -0.120523
    39  C   -0.036080
    40  C   -0.097627
    41  H    0.074363
    42  H    0.100725
    43  H    0.093635
    44  H    0.076690
    45  H    0.043755
    46  H    0.094609
    47  H    0.092273
    48  H    0.080402
    49  H    0.131293
    50  H    0.080449
    51  H    0.096610
    52  H    0.101199
    53  H    0.094257
    54  H    0.097820
    55  H    0.087182
    56  H    0.118388
    57  H    0.110843
    58  H    0.023826
    59  H    0.116907
    60  H    0.092765
    61  H    0.096877
    62  H    0.070519
    63  H    0.109419
    64  H    0.103484
    65  H    0.095025
    66  H    0.068108
    67  H    0.127104
    68  H    0.081326
    69  H    0.120048
    70  H    0.102222
    71  H    0.131227
    72  H    0.107004
    73  H    0.105968
    74  H    0.047112
    75  H    0.130926
    76  H    0.111207
    77  H    0.104526
    78  H    0.117975
    79  H    0.100002
    80  H    0.106893
    81  H    0.050065
    82  H    0.057867
    83  H    0.072823
    84  H    0.069199
    85  H    0.088203
    86  H    0.060619
    87  H    0.108687
    88  H    0.112754
    89  H    0.132941
    90  H    0.120047
    91  H    0.112783
    92  H    0.113998
    93  H    0.071972
    94  H    0.080044
    95  H    0.066563
    96  H    0.067767
 Sum of Mulliken charges =  -0.00000

 Dipole moment (field-independent basis, Debye):
    X=             -0.5238    Y=              0.8109    Z=             -0.0569  Tot=              0.9670
 Quadrupole moment (field-independent basis, Debye-Ang):
   XX=           -241.1141   YY=           -233.2437   ZZ=           -255.3073
   XY=              2.9659   XZ=              5.7888   YZ=             -1.6369

 Normal termination of Gaussian 16 at Mon Jul 29 20:44:05 2019.
