 Gaussian 16, Revision A.03,
 Gaussian 16:  ES64L-G16RevA.03 25-Dec-2016

 ---------------------------------
 # td=(NStates=1) B3LYP/6-31G(d,p)
 ---------------------------------

 --
 TD
 --
 Symbolic Z-matrix:
 Charge =  0 Multiplicity = 1

                         Standard orientation:
 ---------------------------------------------------------------------
 Center     Atomic      Atomic             Coordinates (Angstroms)
 Number     Number       Type             X           Y           Z
 ---------------------------------------------------------------------
      1          6           0       12.229679    0.486644   -0.808424
      2          6           0      -12.199424   -0.052031    0.823666
      3          6           0       13.461500   -0.316956   -0.670443
      4          6           0      -13.061824    1.226535    1.243069
      5          6           0       13.256506   -1.915252   -0.632663
      6          6           0      -13.330171    2.068699    0.031760
      7          6           0       11.000916   -0.090877    0.118473
      8          6           0      -11.046485    0.305672   -0.196031
      9          6           0       12.372692   -2.132527    0.684654
     10          6           0      -12.160229    2.518265   -0.555115
     11          6           0       11.262666   -1.186525    0.893397
     12          6           0      -11.067350    1.528004   -0.845398
     13          6           0       11.582135    0.390764   -2.359742
     14          6           0       12.514500    1.891831   -0.495081
     15          6           0      -13.134359   -1.103519    0.175933
     16          6           0      -11.594734   -0.655493    2.125215
     17          6           0        9.853812    0.691460    0.241020
     18          6           0       -9.954175   -0.602419   -0.200107
     19          6           0       10.282274   -1.608867    2.073316
     20          6           0       -9.994345    1.925954   -1.845719
     21          6           0        8.542997    0.345083    0.388412
     22          6           0       -8.626554   -0.328262   -0.190535
     23          6           0        7.467107    1.327336    0.522039
     24          6           0       -7.636956   -1.388812   -0.473966
     25          6           0        7.630262    2.874671    0.608612
     26          6           0       -7.961529   -2.804677   -0.466842
     27          6           0        6.157434    0.738144    0.455453
     28          6           0       -6.337673   -0.911938   -0.464720
     29          6           0        4.921856    1.479981    0.482447
     30          6           0       -5.018566   -1.640880   -0.508621
     31          6           0        3.737757    0.810132    0.347927
     32          6           0       -3.794191   -1.100211   -0.448936
     33          6           0        2.420826    1.395977    0.427349
     34          6           0       -2.524049   -1.767173   -0.367796
     35          6           0        2.327412    2.878158    0.724090
     36          6           0       -2.533727   -3.199338   -0.593686
     37          6           0        1.224813    0.716140    0.195182
     38          6           0       -1.415503   -0.938731   -0.278782
     39          6           0        1.124481   -0.688761   -0.026972
     40          6           0        0.028987   -1.462356   -0.179303
     41          1           0       14.048104    0.075632    0.307204
     42          1           0       13.837729    0.079724   -1.529284
     43          1           0      -12.422670    1.866390    1.797406
     44          1           0      -13.935707    0.745062    1.682483
     45          1           0       14.076436   -2.551853   -0.438689
     46          1           0       12.541932   -2.235159   -1.533367
     47          1           0      -13.803895    3.077691    0.426258
     48          1           0      -13.965693    1.482980   -0.536221
     49          1           0       13.025084   -2.124149    1.652453
     50          1           0       11.980263   -3.372365    0.815229
     51          1           0      -11.680488    3.194823    0.212483
     52          1           0      -12.394647    2.959123   -1.452802
     53          1           0       11.551656   -0.587310   -2.806640
     54          1           0       12.367214    0.971860   -3.009391
     55          1           0       10.700640    0.875419   -2.404408
     56          1           0       12.789561    1.947983    0.640571
     57          1           0       11.696764    2.524322   -0.847380
     58          1           0       13.418675    2.410166   -0.930998
     59          1           0      -13.532042   -0.577847   -0.872636
     60          1           0      -13.926267   -1.438177    0.785836
     61          1           0      -12.739466   -2.119034   -0.070058
     62          1           0      -10.736954   -0.245519    2.712582
     63          1           0      -10.865421   -1.434505    1.934657
     64          1           0      -12.254818   -0.828978    2.999351
     65          1           0        9.916059    1.686034    0.064694
     66          1           0      -10.325867   -1.645390   -0.275508
     67          1           0        9.873928   -0.785695    2.621869
     68          1           0       10.792056   -2.142614    2.739216
     69          1           0        9.443922   -2.161229    1.582907
     70          1           0       -9.325890    1.213382   -1.866270
     71          1           0       -9.526541    2.857431   -1.333139
     72          1           0      -10.282193    2.082254   -2.879368
     73          1           0        8.366493   -0.639925    0.194482
     74          1           0       -8.089136    0.643164   -0.301770
     75          1           0        8.450072    3.241478    1.350817
     76          1           0        6.518312    3.035551    0.783543
     77          1           0        7.782583    3.344593   -0.391471
     78          1           0       -8.734080   -3.080520   -1.282966
     79          1           0       -8.270531   -3.404617    0.555816
     80          1           0       -6.955879   -3.443367   -0.819847
     81          1           0        6.133473   -0.271293    0.305229
     82          1           0       -6.085373    0.157039   -0.139753
     83          1           0        5.154088    2.688389    0.713752
     84          1           0       -4.941672   -2.891541   -0.645617
     85          1           0        3.873488   -0.388402    0.359465
     86          1           0       -3.643571    0.037835   -0.236722
     87          1           0        2.916884    3.149979    1.666878
     88          1           0        1.240887    3.207775    0.909407
     89          1           0        2.776876    3.556093   -0.086940
     90          1           0       -3.134573   -3.172125   -1.582544
     91          1           0       -3.125139   -3.744128    0.161035
     92          1           0       -1.529753   -3.615666   -0.766284
     93          1           0        0.378464    1.227282    0.330107
     94          1           0       -1.555618    0.040856   -0.039234
     95          1           0        2.003819   -1.105937   -0.318575
     96          1           0        0.075800   -2.596038   -0.626623
 ---------------------------------------------------------------------

 SCF Done:  E(RB3LYP) =  -1557.53617682     A.U. after   15 cycles

 Excitation energies and oscillator strengths:

 Excited State   1:      Singlet-A      2.1831 eV  567.94 nm  f=2.8767  <S**2>=0.000
     148 ->149         0.70216
 This state for optimization and/or second-order correction.
 Total Energy, E(TD-HF/TD-DFT) =  -1557.45595063
 Copying the excited state density for this state as the 1-particle RhoCI density.

 The electronic state is 1-A.
 Alpha  occ. eigenvalues --  -10.20987 -10.20967 -10.20908 -10.20744 -10.20621
 Alpha  occ. eigenvalues --  -10.20428 -10.20330 -10.20330 -10.20202 -10.20199
 Alpha  occ. eigenvalues --  -10.20178 -10.20122 -10.20071 -10.19988 -10.19608
 Alpha  occ. eigenvalues --  -10.19527 -10.19331 -10.18833 -10.18793 -10.18693
 Alpha  occ. eigenvalues --  -10.18635 -10.18597 -10.18532 -10.18502 -10.18402
 Alpha  occ. eigenvalues --  -10.18332 -10.18229 -10.18019 -10.17863 -10.17828
 Alpha  occ. eigenvalues --  -10.17635 -10.17632 -10.17479 -10.16942 -10.16790
 Alpha  occ. eigenvalues --  -10.16766 -10.16709 -10.16655 -10.16644 -10.16585
 Alpha  occ. eigenvalues --   -0.85457  -0.84650  -0.83467  -0.82865  -0.82012
 Alpha  occ. eigenvalues --   -0.81446  -0.79104  -0.78800  -0.78054  -0.77755
 Alpha  occ. eigenvalues --   -0.76646  -0.74692  -0.73781  -0.72115  -0.71823
 Alpha  occ. eigenvalues --   -0.69924  -0.68713  -0.68436  -0.68074  -0.67833
 Alpha  occ. eigenvalues --   -0.67554  -0.67327  -0.67101  -0.66741  -0.65912
 Alpha  occ. eigenvalues --   -0.62980  -0.61882  -0.59858  -0.59063  -0.56719
 Alpha  occ. eigenvalues --   -0.56589  -0.55676  -0.54441  -0.53271  -0.52649
 Alpha  occ. eigenvalues --   -0.52491  -0.51175  -0.51125  -0.50509  -0.49380
 Alpha  occ. eigenvalues --   -0.48708  -0.47536  -0.47240  -0.46750  -0.46173
 Alpha  occ. eigenvalues --   -0.45370  -0.44973  -0.44775  -0.44361  -0.44307
 Alpha  occ. eigenvalues --   -0.43162  -0.42744  -0.42611  -0.42410  -0.42109
 Alpha  occ. eigenvalues --   -0.42050  -0.41381  -0.41214  -0.40666  -0.40563
 Alpha  occ. eigenvalues --   -0.40317  -0.40129  -0.40081  -0.39958  -0.39822
 Alpha  occ. eigenvalues --   -0.39527  -0.39363  -0.38733  -0.38599  -0.38474
 Alpha  occ. eigenvalues --   -0.37773  -0.37605  -0.37461  -0.36935  -0.36767
 Alpha  occ. eigenvalues --   -0.36705  -0.36428  -0.35953  -0.35663  -0.35390
 Alpha  occ. eigenvalues --   -0.35185  -0.34823  -0.34699  -0.34038  -0.33760
 Alpha  occ. eigenvalues --   -0.33484  -0.33124  -0.32885  -0.32646  -0.32448
 Alpha  occ. eigenvalues --   -0.31958  -0.31867  -0.31373  -0.30662  -0.30526
 Alpha  occ. eigenvalues --   -0.30433  -0.30386  -0.29742  -0.28910  -0.28128
 Alpha  occ. eigenvalues --   -0.27263  -0.27143  -0.26142  -0.24156  -0.22594
 Alpha  occ. eigenvalues --   -0.20571  -0.18293  -0.16345
 Alpha virt. eigenvalues --   -0.07905  -0.05389  -0.02146   0.00067   0.02113
 Alpha virt. eigenvalues --    0.03791   0.05586   0.06197   0.06738   0.07037
 Alpha virt. eigenvalues --    0.07448   0.08027   0.08279   0.08816   0.08983

 Mulliken charges:
               1
     1  C   -0.002639
     2  C   -0.005212
     3  C   -0.152946
     4  C   -0.160984
     5  C   -0.187164
     6  C   -0.177160
     7  C    0.084468
     8  C    0.081387
     9  C   -0.224648
    10  C   -0.188358
    11  C    0.055053
    12  C    0.025318
    13  C   -0.322928
    14  C   -0.300029
    15  C   -0.293326
    16  C   -0.321238
    17  C   -0.122510
    18  C   -0.157851
    19  C   -0.349758
    20  C   -0.346183
    21  C   -0.090490
    22  C   -0.091994
    23  C    0.069319
    24  C    0.154686
    25  C   -0.352282
    26  C   -0.369032
    27  C   -0.099412
    28  C   -0.151133
    29  C   -0.072395
    30  C   -0.097359
    31  C   -0.141733
    32  C   -0.098656
    33  C    0.113785
    34  C    0.154561
    35  C   -0.371295
    36  C   -0.383143
    37  C   -0.098285
    38  C   -0.124582
    39  C   -0.065491
    40  C   -0.119361
    41  H    0.072001
    42  H    0.101158
    43  H    0.094770
    44  H    0.089626
    45  H    0.109601
    46  H    0.095259
    47  H    0.069108
    48  H    0.098887
    49  H    0.093904
    50  H    0.055805
    51  H    0.099199
    52  H    0.103774
    53  H    0.110239
    54  H    0.071906
    55  H    0.121350
    56  H    0.094335
    57  H    0.105209
    58  H    0.096799
    59  H    0.074284
    60  H    0.105988
    61  H    0.097870
    62  H    0.091576
    63  H    0.096735
    64  H    0.093805
    65  H    0.064666
    66  H    0.094127
    67  H    0.121223
    68  H    0.107194
    69  H    0.113453
    70  H    0.127409
    71  H    0.093399
    72  H    0.108212
    73  H    0.072888
    74  H    0.087728
    75  H    0.119257
    76  H    0.092896
    77  H    0.127184
    78  H    0.109514
    79  H    0.111291
    80  H    0.086408
    81  H    0.074712
    82  H    0.082060
    83  H    0.088007
    84  H    0.055806
    85  H    0.085207
    86  H    0.060634
    87  H    0.111456
    88  H    0.099643
    89  H    0.113491
    90  H    0.121143
    91  H    0.130953
    92  H    0.107115
    93  H    0.065419
    94  H    0.077647
    95  H    0.081325
    96  H    0.066342
 Sum of Mulliken charges =  -0.00000

 Dipole moment (field-independent basis, Debye):
    X=              1.2201    Y=              0.3778    Z=             -0.0719  Tot=              1.2793
 Quadrupole moment (field-independent basis, Debye-Ang):
   XX=           -216.6664   YY=           -235.5959   ZZ=           -254.8227
   XY=              1.9366   XZ=              0.8536   YZ=              0.1681

 Normal termination of Gaussian 16 at Sat Jul 27 12:46:29 2019.
