 Gaussian 16, Revision A.03,
 Gaussian 16:  ES64L-G16RevA.03 25-Dec-2016

 ---------------------------------
 # td=(NStates=1) B3LYP/6-31G(d,p)
 ---------------------------------

 --
 TD
 --
 Symbolic Z-matrix:
 Charge =  0 Multiplicity = 1

                         Standard orientation:
 ---------------------------------------------------------------------
 Center     Atomic      Atomic             Coordinates (Angstroms)
 Number     Number       Type             X           Y           Z
 ---------------------------------------------------------------------
      1          6           0       12.193646    0.605414   -0.543039
      2          6           0      -12.091244   -0.069994    0.905345
      3          6           0       13.568544   -0.307966   -0.300572
      4          6           0      -13.030196    1.146947    1.458750
      5          6           0       13.128696   -1.811234   -0.310508
      6          6           0      -13.300141    2.121132    0.340647
      7          6           0       11.056298   -0.061301    0.303044
      8          6           0      -10.965507    0.437800    0.049285
      9          6           0       12.296391   -2.139022    0.985938
     10          6           0      -12.043995    2.720901   -0.363280
     11          6           0       11.187739   -1.126904    1.049444
     12          6           0      -11.094743    1.639478   -0.576701
     13          6           0       11.876324    0.673491   -2.041018
     14          6           0       12.558254    1.997961   -0.107155
     15          6           0      -12.984268   -1.074150    0.207423
     16          6           0      -11.523340   -0.647899    2.225644
     17          6           0        9.860611    0.928892    0.244562
     18          6           0       -9.975166   -0.525581   -0.269784
     19          6           0       10.082108   -1.540027    1.924138
     20          6           0      -10.162776    2.002469   -1.761563
     21          6           0        8.517002    0.400277    0.146398
     22          6           0       -8.597595   -0.419332   -0.202978
     23          6           0        7.351074    1.313965    0.208779
     24          6           0       -7.560746   -1.349622   -0.390399
     25          6           0        7.452524    2.771153    0.562959
     26          6           0       -7.980966   -2.729769   -0.761196
     27          6           0        6.184976    0.688426    0.103410
     28          6           0       -6.258693   -0.843537   -0.253821
     29          6           0        4.895312    1.284780    0.177287
     30          6           0       -4.986986   -1.546160   -0.499558
     31          6           0        3.764199    0.565427    0.124286
     32          6           0       -3.680728   -1.047535   -0.468160
     33          6           0        2.369414    1.166594    0.121466
     34          6           0       -2.477830   -1.844644   -0.532796
     35          6           0        2.311648    2.648281    0.394715
     36          6           0       -2.607921   -3.331632   -0.798593
     37          6           0        1.199791    0.515123   -0.127438
     38          6           0       -1.292629   -1.094027   -0.495502
     39          6           0        1.186268   -0.981222   -0.404688
     40          6           0       -0.011231   -1.614782   -0.421123
     41          1           0       14.069173   -0.074963    0.454690
     42          1           0       14.388336    0.032484   -1.200750
     43          1           0      -12.590358    1.737152    2.320998
     44          1           0      -13.932302    0.757598    1.848835
     45          1           0       14.065038   -2.311078   -0.424830
     46          1           0       12.345541   -1.999827   -1.156704
     47          1           0      -13.746155    3.171650    0.658375
     48          1           0      -14.203366    1.653272   -0.407967
     49          1           0       12.962442   -1.851026    1.949550
     50          1           0       11.829973   -3.003435    0.947426
     51          1           0      -11.628081    3.592746    0.242995
     52          1           0      -12.356708    2.991233   -1.351958
     53          1           0       11.952643   -0.427440   -2.765831
     54          1           0       12.557349    1.311508   -2.778151
     55          1           0       10.943728    1.120412   -2.148361
     56          1           0       12.800165    2.045081    0.780441
     57          1           0       11.479018    2.659984   -0.317067
     58          1           0       13.313758    2.482069   -0.793623
     59          1           0      -13.403402   -0.778828   -0.765811
     60          1           0      -13.968486   -1.520079    0.841275
     61          1           0      -12.392323   -1.876760   -0.005881
     62          1           0      -10.874210   -0.028470    2.838514
     63          1           0      -11.019401   -1.620690    1.796992
     64          1           0      -12.427423   -0.945208    2.790803
     65          1           0       10.039640    1.966815    0.346845
     66          1           0      -10.343384   -1.593666   -0.148354
     67          1           0        9.420214   -0.538309    2.189996
     68          1           0       10.482662   -2.275970    2.843972
     69          1           0        9.264520   -2.264351    1.589664
     70          1           0       -9.556172    1.171481   -2.138995
     71          1           0       -9.421913    2.858386   -1.588894
     72          1           0      -10.782413    2.479891   -2.535035
     73          1           0        8.484410   -0.697440   -0.237387
     74          1           0       -8.306022    0.623349    0.117795
     75          1           0        7.957041    2.829290    1.525165
     76          1           0        6.612199    3.242927    0.573732
     77          1           0        8.182342    3.255682   -0.149928
     78          1           0       -8.508293   -2.604707   -1.854372
     79          1           0       -8.630093   -3.101138    0.081534
     80          1           0       -6.965827   -3.258043   -0.778283
     81          1           0        6.180704   -0.395637   -0.054309
     82          1           0       -6.335413    0.261108   -0.044797
     83          1           0        4.662266    2.373475    0.211296
     84          1           0       -5.183930   -2.649356   -0.549781
     85          1           0        3.732173   -0.573567    0.214515
     86          1           0       -3.692382    0.150002   -0.399154
     87          1           0        2.611764    2.946877    1.495521
     88          1           0        1.210838    3.063913    0.532659
     89          1           0        2.884284    3.256934   -0.378560
     90          1           0       -3.161177   -3.600843   -1.622549
     91          1           0       -2.973880   -3.920141    0.158881
     92          1           0       -1.597676   -3.800034   -0.834657
     93          1           0        0.272381    1.027755   -0.080991
     94          1           0       -1.375661   -0.149771   -0.315999
     95          1           0        2.075806   -1.601426   -0.178295
     96          1           0        0.111344   -2.733910   -0.767083
 ---------------------------------------------------------------------

 SCF Done:  E(RB3LYP) =  -1557.51979162     A.U. after   15 cycles

 Excitation energies and oscillator strengths:

 Excited State   1:      Singlet-A      2.2423 eV  552.93 nm  f=2.8872  <S**2>=0.000
     148 ->149         0.69308
     148 ->150         0.10070
 This state for optimization and/or second-order correction.
 Total Energy, E(TD-HF/TD-DFT) =  -1557.43738791
 Copying the excited state density for this state as the 1-particle RhoCI density.

 The electronic state is 1-A.
 Alpha  occ. eigenvalues --  -10.21163 -10.20598 -10.20522 -10.20330 -10.20283
 Alpha  occ. eigenvalues --  -10.20166 -10.20166 -10.20053 -10.19924 -10.19919
 Alpha  occ. eigenvalues --  -10.19883 -10.19842 -10.19631 -10.19575 -10.19517
 Alpha  occ. eigenvalues --  -10.19457 -10.19369 -10.19230 -10.19126 -10.18995
 Alpha  occ. eigenvalues --  -10.18848 -10.18780 -10.18747 -10.18706 -10.18647
 Alpha  occ. eigenvalues --  -10.18592 -10.18540 -10.18484 -10.18422 -10.18366
 Alpha  occ. eigenvalues --  -10.18359 -10.18137 -10.18077 -10.17876 -10.17825
 Alpha  occ. eigenvalues --  -10.17791 -10.17688 -10.17591 -10.17396 -10.17346
 Alpha  occ. eigenvalues --   -0.85282  -0.84631  -0.83687  -0.83297  -0.82469
 Alpha  occ. eigenvalues --   -0.81263  -0.78842  -0.78778  -0.78534  -0.76968
 Alpha  occ. eigenvalues --   -0.76319  -0.75134  -0.73826  -0.71694  -0.71467
 Alpha  occ. eigenvalues --   -0.70347  -0.69467  -0.68428  -0.67998  -0.67651
 Alpha  occ. eigenvalues --   -0.67582  -0.67132  -0.66812  -0.66142  -0.65983
 Alpha  occ. eigenvalues --   -0.62524  -0.61609  -0.58931  -0.58807  -0.56961
 Alpha  occ. eigenvalues --   -0.56090  -0.55956  -0.55247  -0.53671  -0.53116
 Alpha  occ. eigenvalues --   -0.52718  -0.51196  -0.50713  -0.49323  -0.48851
 Alpha  occ. eigenvalues --   -0.48032  -0.47333  -0.47012  -0.46570  -0.46284
 Alpha  occ. eigenvalues --   -0.45803  -0.45618  -0.45173  -0.44719  -0.44464
 Alpha  occ. eigenvalues --   -0.43889  -0.43212  -0.42755  -0.42472  -0.42209
 Alpha  occ. eigenvalues --   -0.41752  -0.41684  -0.41532  -0.41247  -0.40902
 Alpha  occ. eigenvalues --   -0.40835  -0.40000  -0.39735  -0.39541  -0.39400
 Alpha  occ. eigenvalues --   -0.38853  -0.38647  -0.38560  -0.38438  -0.38050
 Alpha  occ. eigenvalues --   -0.37408  -0.37218  -0.37031  -0.36611  -0.36469
 Alpha  occ. eigenvalues --   -0.36232  -0.35666  -0.35433  -0.35397  -0.35158
 Alpha  occ. eigenvalues --   -0.35127  -0.34974  -0.34629  -0.34460  -0.34086
 Alpha  occ. eigenvalues --   -0.33575  -0.33434  -0.33248  -0.33076  -0.32614
 Alpha  occ. eigenvalues --   -0.32521  -0.32313  -0.31655  -0.30800  -0.30692
 Alpha  occ. eigenvalues --   -0.30230  -0.29968  -0.29302  -0.28709  -0.27892
 Alpha  occ. eigenvalues --   -0.26853  -0.26528  -0.25702  -0.24478  -0.23378
 Alpha  occ. eigenvalues --   -0.21107  -0.19040  -0.16742
 Alpha virt. eigenvalues --   -0.08272  -0.05558  -0.02478   0.00413   0.02404
 Alpha virt. eigenvalues --    0.03892   0.05232   0.06565   0.07002   0.07247
 Alpha virt. eigenvalues --    0.07489   0.07968   0.08275   0.08636   0.08956

 Mulliken charges:
               1
     1  C   -0.012054
     2  C   -0.048545
     3  C   -0.156892
     4  C   -0.161224
     5  C   -0.196998
     6  C   -0.182512
     7  C    0.072382
     8  C    0.123678
     9  C   -0.193826
    10  C   -0.211398
    11  C    0.088671
    12  C    0.065498
    13  C   -0.270859
    14  C   -0.254270
    15  C   -0.286646
    16  C   -0.274797
    17  C   -0.157997
    18  C   -0.170985
    19  C   -0.365509
    20  C   -0.363705
    21  C   -0.119846
    22  C   -0.094499
    23  C    0.113731
    24  C    0.127275
    25  C   -0.357623
    26  C   -0.354504
    27  C   -0.110268
    28  C   -0.120611
    29  C   -0.082696
    30  C   -0.106671
    31  C   -0.094109
    32  C   -0.114518
    33  C    0.109181
    34  C    0.110910
    35  C   -0.381801
    36  C   -0.375770
    37  C   -0.130870
    38  C   -0.058726
    39  C   -0.096555
    40  C   -0.100254
    41  H    0.098347
    42  H    0.042322
    43  H    0.080971
    44  H    0.098840
    45  H    0.091280
    46  H    0.094908
    47  H    0.063287
    48  H    0.060664
    49  H    0.092846
    50  H    0.116492
    51  H    0.110668
    52  H    0.114243
    53  H    0.050487
    54  H    0.081039
    55  H    0.114783
    56  H    0.109841
    57  H    0.039628
    58  H    0.100782
    59  H    0.111548
    60  H    0.069118
    61  H    0.111176
    62  H    0.112140
    63  H    0.066713
    64  H    0.093480
    65  H    0.095832
    66  H    0.066652
    67  H    0.105537
    68  H    0.063310
    69  H    0.105145
    70  H    0.115288
    71  H    0.093385
    72  H    0.096420
    73  H    0.103327
    74  H    0.073776
    75  H    0.129751
    76  H    0.118482
    77  H    0.110313
    78  H    0.117044
    79  H    0.126251
    80  H    0.098444
    81  H    0.079385
    82  H    0.075228
    83  H    0.084289
    84  H    0.076793
    85  H    0.072371
    86  H    0.076640
    87  H    0.106422
    88  H    0.089657
    89  H    0.119483
    90  H    0.139899
    91  H    0.108106
    92  H    0.110933
    93  H    0.091130
    94  H    0.066856
    95  H    0.092047
    96  H    0.062414
 Sum of Mulliken charges =  -0.00000

 Dipole moment (field-independent basis, Debye):
    X=             -0.0628    Y=              0.2831    Z=              0.5409  Tot=              0.6138
 Quadrupole moment (field-independent basis, Debye-Ang):
   XX=           -241.7684   YY=           -234.5996   ZZ=           -257.8540
   XY=              2.3538   XZ=              5.3761   YZ=              2.4519

 Normal termination of Gaussian 16 at Tue Jul 23 21:17:10 2019.
