 Gaussian 16, Revision A.03,
 Gaussian 16:  ES64L-G16RevA.03 25-Dec-2016

 ---------------------------------
 # td=(NStates=1) B3LYP/6-31G(d,p)
 ---------------------------------

 --
 TD
 --
 Symbolic Z-matrix:
 Charge =  0 Multiplicity = 1

                         Standard orientation:
 ---------------------------------------------------------------------
 Center     Atomic      Atomic             Coordinates (Angstroms)
 Number     Number       Type             X           Y           Z
 ---------------------------------------------------------------------
      1          6           0       12.086464   -0.480849    0.811284
      2          6           0      -12.024191   -0.081410   -0.914772
      3          6           0       13.384015    0.368774    0.717490
      4          6           0      -12.902159   -1.270931   -1.266261
      5          6           0       13.128432    1.809946    0.745102
      6          6           0      -13.331984   -2.029861   -0.013647
      7          6           0       10.958240   -0.036267   -0.191744
      8          6           0      -11.012614   -0.376363    0.253210
      9          6           0       12.211314    2.224290   -0.506235
     10          6           0      -12.090852   -2.643529    0.797738
     11          6           0       11.142931    1.177853   -0.804189
     12          6           0      -11.010798   -1.587452    0.930604
     13          6           0       11.475005   -0.500978    2.275954
     14          6           0       12.518794   -1.917582    0.584364
     15          6           0      -12.920067    1.082450   -0.407845
     16          6           0      -11.376163    0.454830   -2.071856
     17          6           0        9.884844   -1.002132   -0.460420
     18          6           0       -9.885277    0.603683    0.345972
     19          6           0       10.147018    1.658558   -1.832705
     20          6           0      -10.005529   -1.949422    2.159608
     21          6           0        8.537856   -0.577704   -0.379232
     22          6           0       -8.611324    0.465332    0.486098
     23          6           0        7.424833   -1.413210   -0.512984
     24          6           0       -7.535891    1.431863    0.351211
     25          6           0        7.510601   -2.936252   -0.781498
     26          6           0       -7.852221    2.955900    0.488690
     27          6           0        6.160597   -0.742145   -0.395404
     28          6           0       -6.239979    1.058262    0.393542
     29          6           0        4.882107   -1.305057   -0.556094
     30          6           0       -5.096417    1.766869    0.473399
     31          6           0        3.754626   -0.650255   -0.259821
     32          6           0       -3.854258    1.073848    0.338807
     33          6           0        2.452706   -1.267558   -0.465842
     34          6           0       -2.532787    1.758723    0.303254
     35          6           0        2.253408   -2.724453   -0.966968
     36          6           0       -2.541113    3.277244    0.358907
     37          6           0        1.291909   -0.606783   -0.320265
     38          6           0       -1.390868    1.015303    0.230111
     39          6           0        1.091611    0.813154    0.036260
     40          6           0       -0.054410    1.523745    0.229193
     41          1           0       14.258490   -0.008729    0.049669
     42          1           0       13.962282    0.100105    1.659270
     43          1           0      -12.349089   -1.852651   -1.858484
     44          1           0      -13.705765   -1.104787   -1.884391
     45          1           0       14.007452    2.482704    0.604254
     46          1           0       12.504113    2.426746    1.558209
     47          1           0      -14.056540   -2.736399   -0.540091
     48          1           0      -13.850200   -1.494960    0.654144
     49          1           0       12.814285    2.013917   -1.307187
     50          1           0       11.810290    3.165609   -0.266957
     51          1           0      -11.550501   -3.443723    0.049878
     52          1           0      -12.386537   -3.123888    1.703817
     53          1           0       11.180149    0.536656    2.474434
     54          1           0       11.990608   -0.824917    3.336401
     55          1           0       10.432665   -1.173534    2.308005
     56          1           0       12.786872   -2.287542   -0.494835
     57          1           0       11.689657   -2.738332    0.679670
     58          1           0       13.434426   -2.079295    1.357914
     59          1           0      -13.554546    0.733488    0.496934
     60          1           0      -13.618974    1.226938   -1.115419
     61          1           0      -12.282565    1.910871   -0.237818
     62          1           0      -10.759164   -0.330337   -2.471729
     63          1           0      -10.800398    1.399647   -2.108676
     64          1           0      -12.082351    0.372594   -3.017928
     65          1           0       10.296070   -1.999457   -0.473161
     66          1           0      -10.222567    1.663533    0.175109
     67          1           0        9.501235    0.844448   -2.489343
     68          1           0       10.720126    2.400989   -2.701440
     69          1           0        9.509912    2.227072   -1.411359
     70          1           0       -9.339722   -1.025630    2.456704
     71          1           0       -9.262019   -2.841832    1.890429
     72          1           0      -10.544298   -2.440397    3.011337
     73          1           0        8.362021    0.356878   -0.131402
     74          1           0       -8.151687   -0.556002    0.588404
     75          1           0        8.458539   -3.042664   -1.481636
     76          1           0        6.596482   -3.367796   -1.031817
     77          1           0        8.123077   -3.546754    0.026003
     78          1           0       -8.235298    3.179869    1.447942
     79          1           0       -8.654087    2.922990   -0.275720
     80          1           0       -7.113777    3.726684    0.217326
     81          1           0        6.281861    0.252223   -0.351044
     82          1           0       -5.934724    0.001202    0.267187
     83          1           0        4.720599   -2.310977   -0.806277
     84          1           0       -5.064865    2.881336    0.689252
     85          1           0        3.757478    0.482368   -0.010802
     86          1           0       -3.818100   -0.051182    0.255726
     87          1           0        2.643378   -2.891972   -2.009176
     88          1           0        1.140743   -2.940717   -1.070712
     89          1           0        2.571499   -3.476383   -0.254210
     90          1           0       -3.369694    3.718727    0.990485
     91          1           0       -2.775827    3.761486   -0.769553
     92          1           0       -1.443820    3.581913    0.376662
     93          1           0        0.368922   -1.106171   -0.589645
     94          1           0       -1.369735    0.086221   -0.050985
     95          1           0        2.056615    1.389339    0.008786
     96          1           0        0.146541    2.427852    0.659762
 ---------------------------------------------------------------------

 SCF Done:  E(RB3LYP) =  -1557.54943955     A.U. after   15 cycles

 Excitation energies and oscillator strengths:

 Excited State   1:      Singlet-A      2.1475 eV  577.34 nm  f=2.9439  <S**2>=0.000
     148 ->149         0.70956
 This state for optimization and/or second-order correction.
 Total Energy, E(TD-HF/TD-DFT) =  -1557.47052077
 Copying the excited state density for this state as the 1-particle RhoCI density.

 The electronic state is 1-A.
 Alpha  occ. eigenvalues --  -10.20974 -10.20442 -10.20398 -10.20392 -10.20212
 Alpha  occ. eigenvalues --  -10.20032 -10.19993 -10.19932 -10.19905 -10.19792
 Alpha  occ. eigenvalues --  -10.19594 -10.19432 -10.19428 -10.19334 -10.19293
 Alpha  occ. eigenvalues --  -10.19264 -10.19205 -10.19179 -10.19160 -10.19143
 Alpha  occ. eigenvalues --  -10.19118 -10.19076 -10.18990 -10.18506 -10.18471
 Alpha  occ. eigenvalues --  -10.18452 -10.18364 -10.18339 -10.18281 -10.18179
 Alpha  occ. eigenvalues --  -10.18156 -10.17969 -10.17834 -10.17746 -10.17494
 Alpha  occ. eigenvalues --  -10.17440 -10.17425 -10.17031 -10.16092 -10.15818
 Alpha  occ. eigenvalues --   -0.85176  -0.84601  -0.83671  -0.83278  -0.82310
 Alpha  occ. eigenvalues --   -0.81423  -0.79207  -0.78215  -0.78065  -0.77903
 Alpha  occ. eigenvalues --   -0.76674  -0.75551  -0.74456  -0.72027  -0.71603
 Alpha  occ. eigenvalues --   -0.69500  -0.68910  -0.68372  -0.67830  -0.67605
 Alpha  occ. eigenvalues --   -0.67276  -0.66974  -0.66709  -0.66172  -0.65726
 Alpha  occ. eigenvalues --   -0.62980  -0.62323  -0.60305  -0.59070  -0.57187
 Alpha  occ. eigenvalues --   -0.56593  -0.55998  -0.55140  -0.54799  -0.53815
 Alpha  occ. eigenvalues --   -0.53135  -0.52792  -0.51392  -0.49655  -0.48873
 Alpha  occ. eigenvalues --   -0.48727  -0.48111  -0.47384  -0.46665  -0.45965
 Alpha  occ. eigenvalues --   -0.45891  -0.45697  -0.45215  -0.44501  -0.44416
 Alpha  occ. eigenvalues --   -0.43901  -0.42855  -0.42426  -0.42273  -0.42209
 Alpha  occ. eigenvalues --   -0.41892  -0.41642  -0.41457  -0.41307  -0.40735
 Alpha  occ. eigenvalues --   -0.40654  -0.39941  -0.39626  -0.39432  -0.39218
 Alpha  occ. eigenvalues --   -0.39128  -0.38571  -0.38379  -0.38150  -0.37998
 Alpha  occ. eigenvalues --   -0.37958  -0.37519  -0.37188  -0.37166  -0.36906
 Alpha  occ. eigenvalues --   -0.36497  -0.36321  -0.36209  -0.35632  -0.35601
 Alpha  occ. eigenvalues --   -0.34970  -0.34575  -0.34549  -0.34144  -0.33810
 Alpha  occ. eigenvalues --   -0.33336  -0.33290  -0.33116  -0.32976  -0.32610
 Alpha  occ. eigenvalues --   -0.31801  -0.31350  -0.31224  -0.31083  -0.30922
 Alpha  occ. eigenvalues --   -0.30494  -0.29863  -0.29305  -0.29047  -0.28683
 Alpha  occ. eigenvalues --   -0.28058  -0.27482  -0.26463  -0.23986  -0.22761
 Alpha  occ. eigenvalues --   -0.21248  -0.18419  -0.16372
 Alpha virt. eigenvalues --   -0.08175  -0.05782  -0.01499   0.01007   0.02653
 Alpha virt. eigenvalues --    0.04299   0.06161   0.07037   0.07184   0.07365
 Alpha virt. eigenvalues --    0.07559   0.07876   0.08397   0.08750   0.08958

 Mulliken charges:
               1
     1  C    0.003571
     2  C   -0.003899
     3  C   -0.181726
     4  C   -0.180658
     5  C   -0.193023
     6  C   -0.189901
     7  C    0.072294
     8  C    0.087794
     9  C   -0.215490
    10  C   -0.217927
    11  C    0.030616
    12  C    0.047500
    13  C   -0.282509
    14  C   -0.289806
    15  C   -0.276122
    16  C   -0.305041
    17  C   -0.134044
    18  C   -0.146847
    19  C   -0.338974
    20  C   -0.357534
    21  C   -0.084008
    22  C   -0.066265
    23  C    0.142357
    24  C    0.061079
    25  C   -0.371992
    26  C   -0.366003
    27  C   -0.129383
    28  C   -0.101049
    29  C   -0.071986
    30  C   -0.060097
    31  C   -0.094514
    32  C   -0.135635
    33  C    0.112414
    34  C    0.126106
    35  C   -0.385423
    36  C   -0.365681
    37  C   -0.131396
    38  C   -0.082407
    39  C   -0.105177
    40  C   -0.099580
    41  H    0.101196
    42  H    0.092439
    43  H    0.100737
    44  H    0.095186
    45  H    0.091101
    46  H    0.084084
    47  H    0.074645
    48  H    0.115255
    49  H    0.129353
    50  H    0.108554
    51  H    0.085718
    52  H    0.106818
    53  H    0.102708
    54  H    0.080636
    55  H    0.081561
    56  H    0.082464
    57  H    0.083201
    58  H    0.082402
    59  H    0.077416
    60  H    0.104858
    61  H    0.098659
    62  H    0.102829
    63  H    0.104320
    64  H    0.073540
    65  H    0.080787
    66  H    0.070324
    67  H    0.096586
    68  H    0.051612
    69  H    0.136866
    70  H    0.113634
    71  H    0.091362
    72  H    0.104953
    73  H    0.081091
    74  H    0.082424
    75  H    0.108916
    76  H    0.121559
    77  H    0.107634
    78  H    0.131264
    79  H    0.113251
    80  H    0.108623
    81  H    0.072663
    82  H    0.065298
    83  H    0.082190
    84  H    0.071623
    85  H    0.078858
    86  H    0.081382
    87  H    0.117673
    88  H    0.104424
    89  H    0.124175
    90  H    0.119586
    91  H    0.091795
    92  H    0.113368
    93  H    0.077107
    94  H    0.066244
    95  H    0.069581
    96  H    0.083837
 Sum of Mulliken charges =  -0.00000

 Dipole moment (field-independent basis, Debye):
    X=              0.0405    Y=             -0.1803    Z=             -0.5602  Tot=              0.5899
 Quadrupole moment (field-independent basis, Debye-Ang):
   XX=           -222.2453   YY=           -234.8037   ZZ=           -256.3916
   XY=              8.5933   XZ=              4.7913   YZ=              3.1664

 Normal termination of Gaussian 16 at Fri Jul 26 12:53:58 2019.
