 Gaussian 16, Revision A.03,
 Gaussian 16:  ES64L-G16RevA.03 25-Dec-2016

 ---------------------------------
 # td=(NStates=1) B3LYP/6-31G(d,p)
 ---------------------------------

 --
 TD
 --
 Symbolic Z-matrix:
 Charge =  0 Multiplicity = 1

                         Standard orientation:
 ---------------------------------------------------------------------
 Center     Atomic      Atomic             Coordinates (Angstroms)
 Number     Number       Type             X           Y           Z
 ---------------------------------------------------------------------
      1          6           0       12.011504    0.549461   -0.765230
      2          6           0      -12.036259    0.014859    0.763911
      3          6           0       13.322509   -0.395792   -0.664276
      4          6           0      -12.898862    1.194548    1.287264
      5          6           0       13.028961   -1.870210   -0.501662
      6          6           0      -13.290931    2.110356    0.132486
      7          6           0       11.008534    0.020224    0.234145
      8          6           0      -10.892230    0.523365   -0.071316
      9          6           0       12.150223   -2.075166    0.743496
     10          6           0      -12.045551    2.744782   -0.473357
     11          6           0       11.159537   -1.062946    0.901092
     12          6           0      -10.891407    1.766995   -0.622832
     13          6           0       11.509568    0.511416   -2.168283
     14          6           0       12.490376    1.968431   -0.343370
     15          6           0      -12.927050   -0.948890   -0.071200
     16          6           0      -11.653030   -0.828779    2.041105
     17          6           0        9.868771    0.914287    0.281030
     18          6           0       -9.837191   -0.566608   -0.315085
     19          6           0       10.184463   -1.442393    2.039189
     20          6           0       -9.840357    2.298900   -1.575481
     21          6           0        8.559436    0.481936    0.219408
     22          6           0       -8.454839   -0.390203   -0.233450
     23          6           0        7.345874    1.331185    0.265445
     24          6           0       -7.489603   -1.413574   -0.489695
     25          6           0        7.624717    2.722338    0.820866
     26          6           0       -7.893196   -2.799307   -0.700806
     27          6           0        6.084302    0.817710    0.115125
     28          6           0       -6.151732   -1.100394   -0.344807
     29          6           0        4.772661    1.346766    0.299144
     30          6           0       -4.906858   -1.833217   -0.529056
     31          6           0        3.689475    0.748656    0.118826
     32          6           0       -3.761285   -1.226312   -0.226067
     33          6           0        2.345684    1.182934    0.343616
     34          6           0       -2.478223   -1.913205   -0.230650
     35          6           0        2.183191    2.753475    0.603903
     36          6           0       -2.563454   -3.425779   -0.434074
     37          6           0        1.223147    0.482196    0.026800
     38          6           0       -1.342596   -1.118574   -0.293266
     39          6           0        1.223422   -0.985438   -0.130887
     40          6           0        0.014465   -1.641089   -0.213742
     41          1           0       13.786077   -0.108536    0.288636
     42          1           0       13.836852   -0.282392   -1.530878
     43          1           0      -12.303602    1.641778    2.247441
     44          1           0      -13.711927    0.733972    1.841368
     45          1           0       14.002645   -2.365343   -0.574533
     46          1           0       12.423457   -2.011261   -1.311891
     47          1           0      -13.826257    3.054829    0.483303
     48          1           0      -13.823860    1.477462   -0.634107
     49          1           0       12.944549   -1.958516    1.525474
     50          1           0       11.555425   -3.112238    0.912394
     51          1           0      -11.717712    3.560824    0.269460
     52          1           0      -12.378778    3.175137   -1.403996
     53          1           0       11.465083   -0.429649   -2.815657
     54          1           0       12.275760    1.070852   -2.821711
     55          1           0       10.719223    1.081297   -2.097125
     56          1           0       12.473904    2.083195    0.778948
     57          1           0       11.643199    2.839144   -0.477236
     58          1           0       13.530713    2.505293   -0.803476
     59          1           0      -13.593474   -0.227129   -0.884019
     60          1           0      -13.772563   -1.475991    0.538675
     61          1           0      -12.349742   -1.726746   -0.595242
     62          1           0      -11.006207   -0.130173    2.764096
     63          1           0      -11.183750   -1.691062    1.750402
     64          1           0      -12.571292   -1.052638    2.676514
     65          1           0       10.143161    2.035763    0.043515
     66          1           0      -10.333726   -1.697509   -0.362096
     67          1           0        9.670347   -0.731301    2.527198
     68          1           0       10.759862   -1.920575    2.837184
     69          1           0        9.220316   -2.146467    2.089277
     70          1           0       -9.076283    1.598570   -1.760585
     71          1           0       -9.352282    3.230287   -0.923941
     72          1           0      -10.445850    2.664609   -2.387782
     73          1           0        8.463973   -0.604846   -0.129581
     74          1           0       -8.279648    0.697068    0.022958
     75          1           0        8.131197    3.041727    1.755775
     76          1           0        6.664216    3.324271    0.675981
     77          1           0        8.210159    3.188865   -0.040177
     78          1           0       -8.351480   -3.033863   -1.916790
     79          1           0       -8.755504   -3.028669    0.032192
     80          1           0       -6.991357   -3.683791   -0.301777
     81          1           0        6.045262   -0.100523   -0.273570
     82          1           0       -5.951574    0.051707   -0.316398
     83          1           0        4.679650    2.394463    0.715771
     84          1           0       -4.944124   -2.858646   -0.740968
     85          1           0        3.871131   -0.190107   -0.449330
     86          1           0       -3.931870   -0.215953   -0.202445
     87          1           0        2.895614    2.964604    1.469465
     88          1           0        1.126669    3.102129    0.766622
     89          1           0        2.380815    3.221276   -0.373688
     90          1           0       -3.255709   -3.566522   -1.318062
     91          1           0       -3.009557   -4.065171    0.432763
     92          1           0       -1.527217   -3.787210   -0.772890
     93          1           0        0.269925    0.986928    0.148361
     94          1           0       -1.505441    0.024585   -0.179386
     95          1           0        2.010121   -1.559320   -0.033204
     96          1           0        0.074470   -2.670147   -0.190800
 ---------------------------------------------------------------------

 SCF Done:  E(RB3LYP) =  -1557.54584986     A.U. after   15 cycles

 Excitation energies and oscillator strengths:

 Excited State   1:      Singlet-A      2.3568 eV  526.07 nm  f=2.8726  <S**2>=0.000
     148 ->149         0.70460
 This state for optimization and/or second-order correction.
 Total Energy, E(TD-HF/TD-DFT) =  -1557.45923921
 Copying the excited state density for this state as the 1-particle RhoCI density.

 The electronic state is 1-A.
 Alpha  occ. eigenvalues --  -10.22320 -10.20768 -10.20651 -10.20592 -10.20406
 Alpha  occ. eigenvalues --  -10.20370 -10.20081 -10.20011 -10.19912 -10.19900
 Alpha  occ. eigenvalues --  -10.19647 -10.19475 -10.19414 -10.19366 -10.19335
 Alpha  occ. eigenvalues --  -10.19257 -10.19093 -10.19066 -10.18997 -10.18901
 Alpha  occ. eigenvalues --  -10.18833 -10.18814 -10.18574 -10.18551 -10.18435
 Alpha  occ. eigenvalues --  -10.18386 -10.18355 -10.18312 -10.18308 -10.18098
 Alpha  occ. eigenvalues --  -10.17936 -10.17868 -10.17824 -10.17737 -10.17678
 Alpha  occ. eigenvalues --  -10.17284 -10.16891 -10.16785 -10.16717 -10.16553
 Alpha  occ. eigenvalues --   -0.86446  -0.84724  -0.84126  -0.83602  -0.81901
 Alpha  occ. eigenvalues --   -0.81176  -0.79541  -0.79209  -0.78208  -0.77858
 Alpha  occ. eigenvalues --   -0.76736  -0.75812  -0.74284  -0.72093  -0.71402
 Alpha  occ. eigenvalues --   -0.69401  -0.68599  -0.68326  -0.67842  -0.67636
 Alpha  occ. eigenvalues --   -0.67170  -0.66733  -0.66605  -0.66117  -0.65963
 Alpha  occ. eigenvalues --   -0.62546  -0.61796  -0.59625  -0.59039  -0.57394
 Alpha  occ. eigenvalues --   -0.56641  -0.55888  -0.55601  -0.54481  -0.53613
 Alpha  occ. eigenvalues --   -0.52777  -0.51792  -0.50389  -0.49619  -0.49324
 Alpha  occ. eigenvalues --   -0.48318  -0.47660  -0.46994  -0.46743  -0.46171
 Alpha  occ. eigenvalues --   -0.45854  -0.45217  -0.45115  -0.44349  -0.43808
 Alpha  occ. eigenvalues --   -0.43705  -0.42718  -0.42549  -0.42115  -0.41955
 Alpha  occ. eigenvalues --   -0.41858  -0.41501  -0.41413  -0.41157  -0.41002
 Alpha  occ. eigenvalues --   -0.40398  -0.40224  -0.39895  -0.39671  -0.39381
 Alpha  occ. eigenvalues --   -0.38850  -0.38457  -0.38384  -0.38098  -0.37991
 Alpha  occ. eigenvalues --   -0.37603  -0.37377  -0.37274  -0.36970  -0.36497
 Alpha  occ. eigenvalues --   -0.35918  -0.35896  -0.35601  -0.35201  -0.34893
 Alpha  occ. eigenvalues --   -0.34510  -0.34366  -0.34214  -0.33881  -0.33823
 Alpha  occ. eigenvalues --   -0.33501  -0.33327  -0.33093  -0.33024  -0.32808
 Alpha  occ. eigenvalues --   -0.32653  -0.32341  -0.31359  -0.30984  -0.30491
 Alpha  occ. eigenvalues --   -0.30357  -0.30059  -0.29431  -0.29311  -0.28881
 Alpha  occ. eigenvalues --   -0.27866  -0.27426  -0.26477  -0.24657  -0.23385
 Alpha  occ. eigenvalues --   -0.21244  -0.19011  -0.17005
 Alpha virt. eigenvalues --   -0.07758  -0.05334  -0.02092   0.00580   0.02623
 Alpha virt. eigenvalues --    0.04309   0.05526   0.06052   0.06363   0.06781
 Alpha virt. eigenvalues --    0.07241   0.07799   0.08085   0.08406   0.08598

 Mulliken charges:
               1
     1  C   -0.026374
     2  C   -0.028925
     3  C   -0.175658
     4  C   -0.154768
     5  C   -0.197508
     6  C   -0.190161
     7  C    0.106697
     8  C    0.096399
     9  C   -0.231395
    10  C   -0.208453
    11  C    0.087189
    12  C    0.041909
    13  C   -0.279319
    14  C   -0.300377
    15  C   -0.276812
    16  C   -0.284550
    17  C   -0.129096
    18  C   -0.138643
    19  C   -0.374792
    20  C   -0.331723
    21  C   -0.104107
    22  C   -0.110577
    23  C    0.093230
    24  C    0.148276
    25  C   -0.372500
    26  C   -0.345417
    27  C   -0.113823
    28  C   -0.143303
    29  C   -0.052384
    30  C   -0.061540
    31  C   -0.072461
    32  C   -0.077154
    33  C    0.063730
    34  C    0.102824
    35  C   -0.365745
    36  C   -0.374957
    37  C   -0.117515
    38  C   -0.107174
    39  C   -0.059607
    40  C   -0.105040
    41  H    0.085788
    42  H    0.090211
    43  H    0.063484
    44  H    0.087138
    45  H    0.093375
    46  H    0.104963
    47  H    0.084430
    48  H    0.099360
    49  H    0.105527
    50  H    0.094127
    51  H    0.098950
    52  H    0.103503
    53  H    0.100290
    54  H    0.082675
    55  H    0.113249
    56  H    0.113063
    57  H    0.070711
    58  H    0.084394
    59  H    0.057498
    60  H    0.089485
    61  H    0.106339
    62  H    0.080726
    63  H    0.103915
    64  H    0.092142
    65  H    0.073373
    66  H    0.065040
    67  H    0.126557
    68  H    0.095879
    69  H    0.084332
    70  H    0.121642
    71  H    0.080873
    72  H    0.115369
    73  H    0.085690
    74  H    0.096018
    75  H    0.129595
    76  H    0.095340
    77  H    0.109659
    78  H    0.084132
    79  H    0.112790
    80  H    0.074077
    81  H    0.060240
    82  H    0.060202
    83  H    0.062307
    84  H    0.073595
    85  H    0.071856
    86  H    0.074349
    87  H    0.115458
    88  H    0.100893
    89  H    0.130421
    90  H    0.126899
    91  H    0.120015
    92  H    0.106353
    93  H    0.082788
    94  H    0.080283
    95  H    0.078951
    96  H    0.071285
 Sum of Mulliken charges =  -0.00000

 Dipole moment (field-independent basis, Debye):
    X=              0.3897    Y=              0.1734    Z=             -0.2987  Tot=              0.5207
 Quadrupole moment (field-independent basis, Debye-Ang):
   XX=           -227.3924   YY=           -237.0945   ZZ=           -254.7144
   XY=             -1.9038   XZ=             -1.6096   YZ=              1.2365

 Normal termination of Gaussian 16 at Tue Jul 30 06:45:35 2019.
