 Gaussian 16, Revision A.03,
 Gaussian 16:  ES64L-G16RevA.03 25-Dec-2016

 ---------------------------------
 # td=(NStates=1) B3LYP/6-31G(d,p)
 ---------------------------------

 --
 TD
 --
 Symbolic Z-matrix:
 Charge =  0 Multiplicity = 1

                         Standard orientation:
 ---------------------------------------------------------------------
 Center     Atomic      Atomic             Coordinates (Angstroms)
 Number     Number       Type             X           Y           Z
 ---------------------------------------------------------------------
      1          6           0      -12.128109   -0.592101   -0.817335
      2          6           0       12.080959   -0.089263    0.852490
      3          6           0      -13.377938    0.275132   -0.797318
      4          6           0       13.035694   -1.226420    1.220977
      5          6           0      -13.086991    1.679341   -0.714455
      6          6           0       13.369241   -2.105768   -0.094609
      7          6           0      -11.074856   -0.074102    0.251655
      8          6           0       11.032544   -0.450761   -0.190653
      9          6           0      -12.350732    1.997660    0.502426
     10          6           0       12.106545   -2.692436   -0.542453
     11          6           0      -11.199440    1.110227    0.823398
     12          6           0       11.004503   -1.624679   -0.799276
     13          6           0      -11.485508   -0.579735   -2.254411
     14          6           0      -12.476976   -2.048469   -0.444360
     15          6           0       12.964871    1.047633    0.220136
     16          6           0       11.453183    0.585191    2.113227
     17          6           0       -9.889434   -0.903242    0.443816
     18          6           0        9.916213    0.495768   -0.430352
     19          6           0      -10.315402    1.510272    1.943988
     20          6           0        9.940401   -2.280813   -1.691374
     21          6           0       -8.621018   -0.504488    0.377662
     22          6           0        8.660529    0.340818   -0.254322
     23          6           0       -7.471914   -1.335257    0.507041
     24          6           0        7.533241    1.331586   -0.376574
     25          6           0       -7.590077   -2.792818    0.767590
     26          6           0        8.031392    2.748905   -0.667388
     27          6           0       -6.204248   -0.682474    0.351359
     28          6           0        6.256327    1.066437   -0.317878
     29          6           0       -4.893471   -1.319049    0.440129
     30          6           0        5.034776    1.742889   -0.472042
     31          6           0       -3.724354   -0.590095    0.408110
     32          6           0        3.744349    1.201758   -0.313805
     33          6           0       -2.423941   -1.081371    0.546788
     34          6           0        2.542509    1.901100   -0.375738
     35          6           0       -2.165560   -2.552660    0.659917
     36          6           0        2.642653    3.467735   -0.524149
     37          6           0       -1.257511   -0.401662    0.291107
     38          6           0        1.408385    1.164358   -0.283889
     39          6           0       -1.095164    0.966879   -0.058256
     40          6           0        0.076092    1.697235   -0.202588
     41          1           0      -14.185022    0.076410   -0.048514
     42          1           0      -14.118215    0.037739   -1.692784
     43          1           0       12.494417   -1.873502    2.024193
     44          1           0       13.798108   -0.746288    1.726649
     45          1           0      -13.858029    2.352141   -0.966493
     46          1           0      -12.487563    2.109139   -1.624495
     47          1           0       14.161998   -2.798159    0.195023
     48          1           0       13.758560   -1.589382   -1.161520
     49          1           0      -12.905224    2.115219    1.630822
     50          1           0      -12.237321    3.105427    0.421130
     51          1           0       11.763030   -3.623420   -0.135378
     52          1           0       12.469592   -3.253086   -1.370663
     53          1           0      -11.520603    0.474825   -2.690067
     54          1           0      -12.076156   -1.201974   -2.917756
     55          1           0      -10.484984   -0.937080   -2.146211
     56          1           0      -12.789314   -2.195842    0.478088
     57          1           0      -11.776681   -2.829262   -0.764768
     58          1           0      -13.333589   -2.297683   -1.216966
     59          1           0       13.715427    0.677705   -0.539967
     60          1           0       13.742904    1.443300    1.011877
     61          1           0       12.284677    1.777040   -0.137248
     62          1           0       10.733506    0.052875    2.776506
     63          1           0       10.838640    1.488780    1.792185
     64          1           0       12.191224    0.796191    2.688198
     65          1           0      -10.168288   -1.901791    0.469203
     66          1           0       10.256726    1.565708   -0.411263
     67          1           0       -9.766168    0.635200    2.413517
     68          1           0      -10.849238    2.003211    2.807150
     69          1           0       -9.786084    2.369096    1.760535
     70          1           0        9.077358   -1.579733   -2.112007
     71          1           0        9.349054   -3.180732   -1.294788
     72          1           0       10.371378   -2.846796   -2.626050
     73          1           0       -8.512340    0.520944    0.115834
     74          1           0        8.338091   -0.582620   -0.011135
     75          1           0       -8.128393   -2.828384    1.779858
     76          1           0       -6.729203   -3.406959    0.759018
     77          1           0       -8.392596   -3.175075   -0.004267
     78          1           0        8.702479    2.885111   -1.528000
     79          1           0        8.616743    3.247352    0.169940
     80          1           0        7.163154    3.426961   -0.647131
     81          1           0       -6.230357    0.418357    0.114786
     82          1           0        6.112400   -0.143718   -0.328763
     83          1           0       -4.780612   -2.237769    0.790117
     84          1           0        5.113451    2.769410   -0.478206
     85          1           0       -3.947890    0.473246    0.159632
     86          1           0        3.660283    0.106479   -0.213650
     87          1           0       -2.679407   -3.137254    1.578222
     88          1           0       -1.169480   -2.785574    0.715512
     89          1           0       -2.822493   -3.120494   -0.136472
     90          1           0        2.751383    3.985617   -1.467763
     91          1           0        3.457973    3.757487    0.249729
     92          1           0        1.585635    3.956580   -0.121879
     93          1           0       -0.418224   -1.057592    0.330230
     94          1           0        1.670964    0.025015   -0.063674
     95          1           0       -1.882305    1.592654   -0.160539
     96          1           0       -0.153962    2.665382   -0.531091
 ---------------------------------------------------------------------

 SCF Done:  E(RB3LYP) =  -1557.61471680     A.U. after   15 cycles

 Excitation energies and oscillator strengths:

 Excited State   1:      Singlet-A      2.1486 eV  577.05 nm  f=3.1763  <S**2>=0.000
     148 ->149         0.70965
     148 <-149        -0.11493
 This state for optimization and/or second-order correction.
 Total Energy, E(TD-HF/TD-DFT) =  -1557.53575825
 Copying the excited state density for this state as the 1-particle RhoCI density.

 The electronic state is 1-A.
 Alpha  occ. eigenvalues --  -10.20576 -10.20517 -10.20378 -10.20024 -10.19940
 Alpha  occ. eigenvalues --  -10.19886 -10.19826 -10.19825 -10.19588 -10.19533
 Alpha  occ. eigenvalues --  -10.19447 -10.19365 -10.19266 -10.19210 -10.19136
 Alpha  occ. eigenvalues --  -10.19108 -10.18828 -10.18781 -10.18761 -10.18528
 Alpha  occ. eigenvalues --  -10.18494 -10.18454 -10.18305 -10.18298 -10.18298
 Alpha  occ. eigenvalues --  -10.18128 -10.18012 -10.17985 -10.17973 -10.17712
 Alpha  occ. eigenvalues --  -10.17600 -10.17589 -10.17576 -10.17421 -10.17167
 Alpha  occ. eigenvalues --  -10.17102 -10.16986 -10.16959 -10.16774 -10.16231
 Alpha  occ. eigenvalues --   -0.85935  -0.84994  -0.84022  -0.83389  -0.82540
 Alpha  occ. eigenvalues --   -0.81904  -0.79387  -0.78721  -0.78410  -0.78264
 Alpha  occ. eigenvalues --   -0.77638  -0.75913  -0.74213  -0.72920  -0.71823
 Alpha  occ. eigenvalues --   -0.69329  -0.68760  -0.68495  -0.68242  -0.67970
 Alpha  occ. eigenvalues --   -0.67916  -0.67352  -0.67151  -0.66808  -0.66572
 Alpha  occ. eigenvalues --   -0.63713  -0.62571  -0.59951  -0.59334  -0.57606
 Alpha  occ. eigenvalues --   -0.57403  -0.56328  -0.55662  -0.54670  -0.53811
 Alpha  occ. eigenvalues --   -0.53122  -0.52364  -0.51395  -0.50343  -0.49163
 Alpha  occ. eigenvalues --   -0.48435  -0.47988  -0.47779  -0.46849  -0.46395
 Alpha  occ. eigenvalues --   -0.45691  -0.45338  -0.45094  -0.44796  -0.44364
 Alpha  occ. eigenvalues --   -0.43950  -0.43203  -0.42991  -0.42444  -0.42126
 Alpha  occ. eigenvalues --   -0.41864  -0.41696  -0.41219  -0.41158  -0.40778
 Alpha  occ. eigenvalues --   -0.40537  -0.40376  -0.40142  -0.40062  -0.39753
 Alpha  occ. eigenvalues --   -0.39371  -0.39091  -0.38738  -0.38550  -0.38280
 Alpha  occ. eigenvalues --   -0.38109  -0.37071  -0.37008  -0.36608  -0.36456
 Alpha  occ. eigenvalues --   -0.36249  -0.35942  -0.35616  -0.35496  -0.35116
 Alpha  occ. eigenvalues --   -0.34664  -0.34596  -0.34444  -0.34400  -0.34163
 Alpha  occ. eigenvalues --   -0.33982  -0.33573  -0.33284  -0.32537  -0.32503
 Alpha  occ. eigenvalues --   -0.32440  -0.31958  -0.31467  -0.31189  -0.30894
 Alpha  occ. eigenvalues --   -0.30681  -0.29755  -0.29410  -0.28976  -0.28646
 Alpha  occ. eigenvalues --   -0.28372  -0.28063  -0.26807  -0.24429  -0.22843
 Alpha  occ. eigenvalues --   -0.21712  -0.19256  -0.16547
 Alpha virt. eigenvalues --   -0.08683  -0.05128  -0.01279   0.01153   0.03015
 Alpha virt. eigenvalues --    0.04500   0.06439   0.07516   0.07607   0.08117
 Alpha virt. eigenvalues --    0.08225   0.08280   0.08655   0.08921   0.09221

 Mulliken charges:
               1
     1  C    0.016692
     2  C   -0.025071
     3  C   -0.167199
     4  C   -0.171833
     5  C   -0.187355
     6  C   -0.187118
     7  C    0.048595
     8  C    0.097016
     9  C   -0.203052
    10  C   -0.213960
    11  C    0.105379
    12  C    0.080376
    13  C   -0.299380
    14  C   -0.310816
    15  C   -0.293829
    16  C   -0.287395
    17  C   -0.152308
    18  C   -0.149154
    19  C   -0.376842
    20  C   -0.370263
    21  C   -0.064388
    22  C   -0.043891
    23  C    0.121933
    24  C    0.128431
    25  C   -0.367530
    26  C   -0.392766
    27  C   -0.141268
    28  C   -0.121369
    29  C   -0.062773
    30  C   -0.086116
    31  C   -0.116167
    32  C   -0.113412
    33  C    0.147507
    34  C    0.166814
    35  C   -0.377083
    36  C   -0.369041
    37  C   -0.118443
    38  C   -0.127239
    39  C   -0.072685
    40  C   -0.108729
    41  H    0.094589
    42  H    0.061507
    43  H    0.081931
    44  H    0.090280
    45  H    0.096962
    46  H    0.080201
    47  H    0.090088
    48  H    0.076170
    49  H    0.058470
    50  H    0.094976
    51  H    0.100074
    52  H    0.096039
    53  H    0.094053
    54  H    0.098814
    55  H    0.111818
    56  H    0.117944
    57  H    0.101059
    58  H    0.075159
    59  H    0.102311
    60  H    0.074539
    61  H    0.107696
    62  H    0.093593
    63  H    0.091385
    64  H    0.109092
    65  H    0.071671
    66  H    0.066794
    67  H    0.118921
    68  H    0.085575
    69  H    0.119777
    70  H    0.099313
    71  H    0.109021
    72  H    0.092088
    73  H    0.087508
    74  H    0.069387
    75  H    0.119289
    76  H    0.121163
    77  H    0.108654
    78  H    0.125967
    79  H    0.103407
    80  H    0.099162
    81  H    0.076859
    82  H    0.043908
    83  H    0.070999
    84  H    0.071123
    85  H    0.074464
    86  H    0.074568
    87  H    0.084477
    88  H    0.118198
    89  H    0.109518
    90  H    0.135974
    91  H    0.115743
    92  H    0.080942
    93  H    0.075034
    94  H    0.078391
    95  H    0.074426
    96  H    0.084657
 Sum of Mulliken charges =  -0.00000

 Dipole moment (field-independent basis, Debye):
    X=             -1.7031    Y=             -0.2326    Z=              0.1633  Tot=              1.7267
 Quadrupole moment (field-independent basis, Debye-Ang):
   XX=           -224.3346   YY=           -231.4972   ZZ=           -255.6894
   XY=             -7.0557   XZ=              5.9255   YZ=             -2.4624

 Normal termination of Gaussian 16 at Fri Jul 26 14:52:32 2019.
