 Gaussian 16, Revision A.03,
 Gaussian 16:  ES64L-G16RevA.03 25-Dec-2016

 ---------------------------------
 # td=(NStates=1) B3LYP/6-31G(d,p)
 ---------------------------------

 --
 TD
 --
 Symbolic Z-matrix:
 Charge =  0 Multiplicity = 1

                         Standard orientation:
 ---------------------------------------------------------------------
 Center     Atomic      Atomic             Coordinates (Angstroms)
 Number     Number       Type             X           Y           Z
 ---------------------------------------------------------------------
      1          6           0      -12.322270   -0.611085   -0.502114
      2          6           0       12.124422    0.085643    0.945355
      3          6           0      -13.609240    0.303328   -0.247339
      4          6           0       13.012904   -1.147899    1.371385
      5          6           0      -13.322657    1.771279   -0.270195
      6          6           0       13.554480   -2.039344    0.177508
      7          6           0      -11.060832   -0.013184    0.255849
      8          6           0       11.069443   -0.352594   -0.042801
      9          6           0      -12.240114    2.177001    0.873886
     10          6           0       12.242468   -2.563095   -0.462614
     11          6           0      -11.086318    1.220746    0.863050
     12          6           0       11.105625   -1.559787   -0.706147
     13          6           0      -11.901632   -0.570360   -2.120657
     14          6           0      -12.653670   -1.979916   -0.153495
     15          6           0       13.097387    1.114642    0.166414
     16          6           0       11.524684    0.620470    2.075271
     17          6           0       -9.855341   -0.819581    0.147467
     18          6           0        9.951560    0.620511   -0.173602
     19          6           0      -10.009342    1.704885    1.730979
     20          6           0       10.130120   -2.077642   -1.682293
     21          6           0       -8.626057   -0.472694    0.077081
     22          6           0        8.594507    0.366198   -0.150254
     23          6           0       -7.407502   -1.336654    0.380634
     24          6           0        7.580870    1.327493   -0.374402
     25          6           0       -7.643689   -2.742575    0.635328
     26          6           0        7.934262    2.756425   -0.750767
     27          6           0       -6.170981   -0.735971    0.290690
     28          6           0        6.231416    0.841192   -0.194017
     29          6           0       -4.873590   -1.295446    0.281190
     30          6           0        5.072296    1.723965   -0.403741
     31          6           0       -3.586389   -0.640480    0.015258
     32          6           0        3.855537    1.080319   -0.213381
     33          6           0       -2.345470   -1.353086    0.069294
     34          6           0        2.518020    1.698661   -0.471557
     35          6           0       -2.332418   -2.779141    0.505690
     36          6           0        2.528087    3.223008   -0.718426
     37          6           0       -1.220853   -0.654292   -0.209982
     38          6           0        1.335775    1.000198   -0.340275
     39          6           0       -1.131552    0.818757   -0.403160
     40          6           0        0.028079    1.528480   -0.481914
     41          1           0      -14.017585    0.225310    0.690433
     42          1           0      -14.423921    0.157768   -1.086720
     43          1           0       12.472917   -1.841620    2.152871
     44          1           0       13.872909   -0.858221    2.092393
     45          1           0      -14.291382    2.330133    0.120501
     46          1           0      -13.062977    2.318637   -1.259760
     47          1           0       14.218658   -2.882316    0.332470
     48          1           0       14.235500   -1.400987   -0.491752
     49          1           0      -12.865974    2.088260    1.757129
     50          1           0      -11.945188    3.133785    0.782395
     51          1           0       12.070433   -3.494414    0.096721
     52          1           0       12.551985   -2.836732   -1.479805
     53          1           0      -11.823216    0.626833   -2.377287
     54          1           0      -12.911211   -0.979141   -2.743062
     55          1           0      -11.124941   -1.184259   -2.255287
     56          1           0      -13.042383   -2.196624    0.949961
     57          1           0      -11.915146   -2.584368   -0.390213
     58          1           0      -13.535931   -2.475942   -0.746894
     59          1           0       13.566854    0.568306   -0.562334
     60          1           0       13.664168    1.432052    0.974793
     61          1           0       12.380440    1.883070   -0.366943
     62          1           0       10.910142   -0.187273    2.495598
     63          1           0       10.755254    1.454279    1.708787
     64          1           0       12.392365    0.930499    2.692684
     65          1           0      -10.233400   -1.902003   -0.044840
     66          1           0       10.189142    1.643484    0.081320
     67          1           0       -9.203650    1.114343    2.111790
     68          1           0      -10.255740    2.290501    2.638321
     69          1           0       -9.493714    2.679420    1.152773
     70          1           0        9.232417   -1.465151   -1.844262
     71          1           0        9.578007   -2.964915   -1.165758
     72          1           0       10.601635   -2.316978   -2.533253
     73          1           0       -8.420181    0.558284   -0.039046
     74          1           0        8.120601   -0.641158   -0.065555
     75          1           0       -8.621591   -2.928793    1.367231
     76          1           0       -6.701570   -3.269949    1.084287
     77          1           0       -7.927952   -3.340699   -0.342975
     78          1           0        8.281793    2.749714   -1.658688
     79          1           0        8.695677    3.208373   -0.236575
     80          1           0        7.005768    3.592788   -0.649154
     81          1           0       -6.411513    0.257543   -0.116173
     82          1           0        6.184714   -0.169021    0.308251
     83          1           0       -4.904277   -2.303322    0.506217
     84          1           0        5.234274    2.697901   -0.409835
     85          1           0       -3.535227    0.385414   -0.060482
     86          1           0        4.092590    0.156835    0.218162
     87          1           0       -2.648448   -2.994506    1.531298
     88          1           0       -1.403948   -2.998075    0.766201
     89          1           0       -2.878671   -3.362936   -0.367963
     90          1           0        2.821721    3.490609   -1.794881
     91          1           0        3.237310    3.752643   -0.144895
     92          1           0        1.749147    3.720580   -0.745016
     93          1           0       -0.261173   -0.976298   -0.101768
     94          1           0        1.467949   -0.047713    0.031461
     95          1           0       -2.093686    1.157521   -0.678504
     96          1           0       -0.181915    2.568282   -0.619523
 ---------------------------------------------------------------------

 SCF Done:  E(RB3LYP) =  -1557.51588346     A.U. after   15 cycles

 Excitation energies and oscillator strengths:

 Excited State   1:      Singlet-A      2.0848 eV  594.70 nm  f=2.8441  <S**2>=0.000
     148 ->149         0.70871
 This state for optimization and/or second-order correction.
 Total Energy, E(TD-HF/TD-DFT) =  -1557.43926741
 Copying the excited state density for this state as the 1-particle RhoCI density.

 The electronic state is 1-A.
 Alpha  occ. eigenvalues --  -10.20967 -10.20695 -10.20361 -10.20149 -10.20069
 Alpha  occ. eigenvalues --  -10.19817 -10.19511 -10.19497 -10.19419 -10.19212
 Alpha  occ. eigenvalues --  -10.19210 -10.19158 -10.19139 -10.18994 -10.18913
 Alpha  occ. eigenvalues --  -10.18881 -10.18875 -10.18796 -10.18789 -10.18752
 Alpha  occ. eigenvalues --  -10.18614 -10.18580 -10.18509 -10.18410 -10.18393
 Alpha  occ. eigenvalues --  -10.18305 -10.18212 -10.18187 -10.18068 -10.18030
 Alpha  occ. eigenvalues --  -10.17987 -10.17892 -10.17570 -10.17567 -10.17534
 Alpha  occ. eigenvalues --  -10.17421 -10.16994 -10.16903 -10.16900 -10.16798
 Alpha  occ. eigenvalues --   -0.85327  -0.84577  -0.83484  -0.82638  -0.82027
 Alpha  occ. eigenvalues --   -0.81279  -0.79234  -0.78734  -0.78638  -0.77778
 Alpha  occ. eigenvalues --   -0.76266  -0.75043  -0.74446  -0.72388  -0.72269
 Alpha  occ. eigenvalues --   -0.71068  -0.69628  -0.68748  -0.68691  -0.68045
 Alpha  occ. eigenvalues --   -0.67683  -0.67475  -0.66574  -0.66333  -0.65731
 Alpha  occ. eigenvalues --   -0.62881  -0.62112  -0.59423  -0.58928  -0.57120
 Alpha  occ. eigenvalues --   -0.56969  -0.56044  -0.55213  -0.54804  -0.54116
 Alpha  occ. eigenvalues --   -0.52195  -0.51797  -0.50870  -0.49961  -0.49223
 Alpha  occ. eigenvalues --   -0.48610  -0.47828  -0.47603  -0.47124  -0.46308
 Alpha  occ. eigenvalues --   -0.45960  -0.45450  -0.45089  -0.44857  -0.44407
 Alpha  occ. eigenvalues --   -0.43600  -0.43417  -0.43117  -0.42969  -0.42668
 Alpha  occ. eigenvalues --   -0.42357  -0.42019  -0.41472  -0.41037  -0.40807
 Alpha  occ. eigenvalues --   -0.40612  -0.40189  -0.39881  -0.39677  -0.39505
 Alpha  occ. eigenvalues --   -0.39250  -0.38910  -0.38709  -0.38453  -0.38163
 Alpha  occ. eigenvalues --   -0.38114  -0.38030  -0.37944  -0.37783  -0.36949
 Alpha  occ. eigenvalues --   -0.36015  -0.35783  -0.35743  -0.35497  -0.35432
 Alpha  occ. eigenvalues --   -0.35088  -0.35032  -0.34829  -0.34233  -0.34150
 Alpha  occ. eigenvalues --   -0.33870  -0.33508  -0.33293  -0.33033  -0.32047
 Alpha  occ. eigenvalues --   -0.31944  -0.31198  -0.31042  -0.30794  -0.30566
 Alpha  occ. eigenvalues --   -0.30202  -0.29778  -0.29294  -0.29187  -0.28784
 Alpha  occ. eigenvalues --   -0.28027  -0.27456  -0.26545  -0.23784  -0.22236
 Alpha  occ. eigenvalues --   -0.20759  -0.18108  -0.16163
 Alpha virt. eigenvalues --   -0.08138  -0.05799  -0.02185  -0.00248   0.02480
 Alpha virt. eigenvalues --    0.04198   0.05744   0.06630   0.07424   0.07584
 Alpha virt. eigenvalues --    0.07690   0.08083   0.08548   0.08754   0.09510

 Mulliken charges:
               1
     1  C   -0.012805
     2  C   -0.019562
     3  C   -0.146256
     4  C   -0.179800
     5  C   -0.210856
     6  C   -0.193408
     7  C    0.079768
     8  C    0.101688
     9  C   -0.225669
    10  C   -0.217517
    11  C    0.083304
    12  C    0.045181
    13  C   -0.282518
    14  C   -0.285314
    15  C   -0.283676
    16  C   -0.262486
    17  C   -0.105479
    18  C   -0.184991
    19  C   -0.371967
    20  C   -0.352452
    21  C   -0.113227
    22  C   -0.087339
    23  C    0.134774
    24  C    0.111484
    25  C   -0.376492
    26  C   -0.363440
    27  C   -0.110051
    28  C   -0.163686
    29  C   -0.103980
    30  C   -0.044741
    31  C   -0.107418
    32  C   -0.123613
    33  C    0.114894
    34  C    0.095311
    35  C   -0.349619
    36  C   -0.352701
    37  C   -0.119654
    38  C   -0.116529
    39  C   -0.091015
    40  C   -0.092813
    41  H    0.104133
    42  H    0.080414
    43  H    0.073997
    44  H    0.065028
    45  H    0.064779
    46  H    0.084355
    47  H    0.091980
    48  H    0.084513
    49  H    0.110980
    50  H    0.110308
    51  H    0.109531
    52  H    0.090300
    53  H    0.093626
    54  H    0.064910
    55  H    0.122627
    56  H    0.084731
    57  H    0.109180
    58  H    0.084948
    59  H    0.118537
    60  H    0.104530
    61  H    0.083467
    62  H    0.106925
    63  H    0.076787
    64  H    0.086843
    65  H    0.061492
    66  H    0.082694
    67  H    0.130658
    68  H    0.107026
    69  H    0.068929
    70  H    0.114246
    71  H    0.097689
    72  H    0.120223
    73  H    0.086851
    74  H    0.077166
    75  H    0.095022
    76  H    0.100655
    77  H    0.112801
    78  H    0.145204
    79  H    0.128152
    80  H    0.074232
    81  H    0.069235
    82  H    0.087880
    83  H    0.075771
    84  H    0.081408
    85  H    0.083905
    86  H    0.084489
    87  H    0.116615
    88  H    0.110958
    89  H    0.114419
    90  H    0.098594
    91  H    0.119366
    92  H    0.112638
    93  H    0.060991
    94  H    0.087672
    95  H    0.084465
    96  H    0.085793
 Sum of Mulliken charges =  -0.00000

 Dipole moment (field-independent basis, Debye):
    X=              0.0762    Y=              0.1326    Z=              0.6345  Tot=              0.6527
 Quadrupole moment (field-independent basis, Debye-Ang):
   XX=           -226.6781   YY=           -232.7329   ZZ=           -255.4322
   XY=             -4.0168   XZ=             -4.8585   YZ=             -2.2430

 Normal termination of Gaussian 16 at Thu Aug  1 00:53:27 2019.
