 Gaussian 16, Revision A.03,
 Gaussian 16:  ES64L-G16RevA.03 25-Dec-2016

 ---------------------------------
 # td=(NStates=1) B3LYP/6-31G(d,p)
 ---------------------------------

 --
 TD
 --
 Symbolic Z-matrix:
 Charge =  0 Multiplicity = 1

                         Standard orientation:
 ---------------------------------------------------------------------
 Center     Atomic      Atomic             Coordinates (Angstroms)
 Number     Number       Type             X           Y           Z
 ---------------------------------------------------------------------
      1          6           0       12.113375    0.512270   -0.738585
      2          6           0      -11.979927   -0.045382    0.940994
      3          6           0       13.406357   -0.358659   -0.485990
      4          6           0      -12.889887    1.207341    1.351183
      5          6           0       13.272243   -1.830475   -0.392983
      6          6           0      -13.399119    1.936681    0.126001
      7          6           0       11.028897    0.001647    0.241941
      8          6           0      -10.972431    0.440033   -0.187718
      9          6           0       12.276914   -2.165695    0.680018
     10          6           0      -12.237282    2.592559   -0.689817
     11          6           0       11.061798   -1.272974    0.817704
     12          6           0      -11.052070    1.576633   -0.841520
     13          6           0       11.734536    0.544278   -2.215499
     14          6           0       12.491602    1.958742   -0.449796
     15          6           0      -12.970109   -1.126441    0.437645
     16          6           0      -11.382838   -0.497216    2.201326
     17          6           0        9.779247    0.864532    0.348830
     18          6           0       -9.885489   -0.633140   -0.394962
     19          6           0       10.157900   -1.737781    1.901142
     20          6           0      -10.032482    1.940613   -1.879849
     21          6           0        8.447055    0.503229    0.230063
     22          6           0       -8.588325   -0.419381   -0.266031
     23          6           0        7.347851    1.413305    0.443962
     24          6           0       -7.507932   -1.366685   -0.365193
     25          6           0        7.559538    2.847597    0.741833
     26          6           0       -7.947135   -2.769085   -0.658012
     27          6           0        6.153447    0.741442    0.283789
     28          6           0       -6.185929   -0.879347   -0.401469
     29          6           0        4.849609    1.374485    0.340314
     30          6           0       -5.055353   -1.645159   -0.444960
     31          6           0        3.689123    0.624760    0.245441
     32          6           0       -3.766091   -1.027121   -0.320520
     33          6           0        2.364901    1.288222    0.299622
     34          6           0       -2.435666   -1.747780   -0.351930
     35          6           0        2.341299    2.792977    0.781004
     36          6           0       -2.655268   -3.206596   -0.597453
     37          6           0        1.230263    0.554476    0.108931
     38          6           0       -1.294839   -0.989737   -0.369388
     39          6           0        1.159788   -0.891850   -0.198944
     40          6           0        0.031786   -1.615929   -0.447386
     41          1           0       13.938532    0.087282    0.374797
     42          1           0       14.173822   -0.216871   -1.353711
     43          1           0      -12.492311    1.891067    2.059216
     44          1           0      -13.740982    1.054467    1.891458
     45          1           0       14.226626   -2.395915   -0.583864
     46          1           0       12.772702   -2.182215   -1.326658
     47          1           0      -13.983961    2.785404    0.364891
     48          1           0      -14.000220    1.335186   -0.489500
     49          1           0       12.909919   -2.115050    1.653824
     50          1           0       11.843425   -3.117606    0.592065
     51          1           0      -11.869890    3.513957   -0.243673
     52          1           0      -12.595340    2.649629   -1.700012
     53          1           0       11.457529   -0.323780   -2.589375
     54          1           0       12.469935    1.231107   -2.948520
     55          1           0       10.760498    1.108002   -2.217763
     56          1           0       12.915369    2.270311    0.530098
     57          1           0       11.725504    2.622489   -0.445886
     58          1           0       13.264912    2.505247   -1.075453
     59          1           0      -13.559219   -0.750075   -0.466439
     60          1           0      -13.550885   -1.659448    1.300059
     61          1           0      -12.202233   -1.992469    0.084166
     62          1           0      -10.814504    0.220203    2.580926
     63          1           0      -10.773195   -1.469564    2.063402
     64          1           0      -12.072239   -0.573294    2.926943
     65          1           0        9.983939    1.966283    0.150253
     66          1           0      -10.140013   -1.636857   -0.380946
     67          1           0        9.569008   -1.062815    2.433393
     68          1           0       10.857017   -2.151675    2.611266
     69          1           0        9.341643   -2.403929    1.481542
     70          1           0       -9.446873    0.968606   -2.094303
     71          1           0       -9.276049    2.614255   -1.297722
     72          1           0      -10.554105    2.477001   -2.663307
     73          1           0        8.220340   -0.653018    0.096217
     74          1           0       -8.395486    0.831316    0.257512
     75          1           0        8.171585    3.233294    1.702417
     76          1           0        6.566726    3.263114    0.680868
     77          1           0        8.177244    3.278593   -0.089537
     78          1           0       -8.890250   -2.751305   -1.472589
     79          1           0       -8.394948   -3.189381    0.159411
     80          1           0       -7.215557   -3.346309   -0.979356
     81          1           0        6.172351   -0.294132    0.082913
     82          1           0       -6.483359    0.336737   -0.247950
     83          1           0        4.888258    2.566873    0.705429
     84          1           0       -5.150071   -2.682984   -0.518639
     85          1           0        3.692773   -0.582210    0.122408
     86          1           0       -3.603914    0.092181   -0.373644
     87          1           0        2.466437    2.891413    1.849779
     88          1           0        1.310683    3.247211    0.611198
     89          1           0        2.828180    3.476658    0.049493
     90          1           0       -3.016309   -3.352450   -1.747318
     91          1           0       -3.421556   -3.606414    0.088967
     92          1           0       -1.696475   -3.767228   -0.153168
     93          1           0        0.276882    0.975488    0.136533
     94          1           0       -1.628784   -0.030500   -0.022315
     95          1           0        2.129547   -1.423764   -0.410066
     96          1           0        0.301227   -2.698439   -0.692156
 ---------------------------------------------------------------------

 SCF Done:  E(RB3LYP) =  -1557.55260679     A.U. after   16 cycles

 Excitation energies and oscillator strengths:

 Excited State   1:      Singlet-A      2.2475 eV  551.65 nm  f=2.6537  <S**2>=0.000
     148 ->149         0.70301
 This state for optimization and/or second-order correction.
 Total Energy, E(TD-HF/TD-DFT) =  -1557.47001214
 Copying the excited state density for this state as the 1-particle RhoCI density.

 The electronic state is 1-A.
 Alpha  occ. eigenvalues --  -10.20763 -10.20598 -10.20535 -10.20293 -10.20286
 Alpha  occ. eigenvalues --  -10.20274 -10.20156 -10.20075 -10.20052 -10.19879
 Alpha  occ. eigenvalues --  -10.19822 -10.19800 -10.19775 -10.19529 -10.19527
 Alpha  occ. eigenvalues --  -10.19455 -10.19455 -10.19384 -10.19355 -10.19341
 Alpha  occ. eigenvalues --  -10.19336 -10.19043 -10.18872 -10.18623 -10.18491
 Alpha  occ. eigenvalues --  -10.18191 -10.18023 -10.17900 -10.17864 -10.17844
 Alpha  occ. eigenvalues --  -10.17739 -10.17620 -10.17562 -10.17545 -10.17299
 Alpha  occ. eigenvalues --  -10.17211 -10.16420 -10.16286 -10.15878 -10.14861
 Alpha  occ. eigenvalues --   -0.84461  -0.84261  -0.83222  -0.82973  -0.82222
 Alpha  occ. eigenvalues --   -0.81032  -0.78945  -0.78694  -0.78244  -0.77184
 Alpha  occ. eigenvalues --   -0.76576  -0.75340  -0.74230  -0.72244  -0.71977
 Alpha  occ. eigenvalues --   -0.69816  -0.68885  -0.68471  -0.68095  -0.67889
 Alpha  occ. eigenvalues --   -0.67514  -0.67264  -0.67076  -0.66900  -0.65966
 Alpha  occ. eigenvalues --   -0.62396  -0.61709  -0.59144  -0.58837  -0.56677
 Alpha  occ. eigenvalues --   -0.56344  -0.55433  -0.54704  -0.53490  -0.52171
 Alpha  occ. eigenvalues --   -0.51686  -0.50981  -0.49868  -0.49551  -0.48789
 Alpha  occ. eigenvalues --   -0.48020  -0.47752  -0.46618  -0.46389  -0.45779
 Alpha  occ. eigenvalues --   -0.45554  -0.45311  -0.45114  -0.44650  -0.43952
 Alpha  occ. eigenvalues --   -0.43848  -0.43545  -0.43031  -0.42680  -0.42103
 Alpha  occ. eigenvalues --   -0.41878  -0.41770  -0.41401  -0.41221  -0.40783
 Alpha  occ. eigenvalues --   -0.40457  -0.40300  -0.40256  -0.39896  -0.39453
 Alpha  occ. eigenvalues --   -0.39007  -0.38820  -0.38716  -0.38114  -0.37912
 Alpha  occ. eigenvalues --   -0.37681  -0.37481  -0.37128  -0.36862  -0.36639
 Alpha  occ. eigenvalues --   -0.35903  -0.35409  -0.35376  -0.34959  -0.34719
 Alpha  occ. eigenvalues --   -0.34460  -0.33963  -0.33856  -0.33790  -0.33413
 Alpha  occ. eigenvalues --   -0.33288  -0.33136  -0.32865  -0.32594  -0.32398
 Alpha  occ. eigenvalues --   -0.32281  -0.31689  -0.31582  -0.31312  -0.31145
 Alpha  occ. eigenvalues --   -0.30603  -0.30064  -0.29435  -0.28979  -0.28238
 Alpha  occ. eigenvalues --   -0.28031  -0.26842  -0.26055  -0.24081  -0.22897
 Alpha  occ. eigenvalues --   -0.21482  -0.18492  -0.16714
 Alpha virt. eigenvalues --   -0.07960  -0.05618  -0.01619   0.00641   0.02763
 Alpha virt. eigenvalues --    0.04166   0.04498   0.05414   0.06395   0.06948
 Alpha virt. eigenvalues --    0.07316   0.08094   0.08197   0.08364   0.08667

 Mulliken charges:
               1
     1  C    0.006348
     2  C   -0.001902
     3  C   -0.160328
     4  C   -0.175485
     5  C   -0.197006
     6  C   -0.203591
     7  C    0.073201
     8  C    0.073855
     9  C   -0.207928
    10  C   -0.215099
    11  C    0.032613
    12  C    0.036440
    13  C   -0.272809
    14  C   -0.317919
    15  C   -0.279076
    16  C   -0.281401
    17  C   -0.157873
    18  C   -0.164140
    19  C   -0.353046
    20  C   -0.346522
    21  C   -0.098402
    22  C   -0.064886
    23  C    0.137219
    24  C    0.092401
    25  C   -0.366481
    26  C   -0.368215
    27  C   -0.102240
    28  C   -0.074443
    29  C   -0.099398
    30  C   -0.115475
    31  C   -0.110122
    32  C   -0.121703
    33  C    0.092211
    34  C    0.116175
    35  C   -0.377666
    36  C   -0.367876
    37  C   -0.109196
    38  C   -0.116195
    39  C   -0.075199
    40  C   -0.114125
    41  H    0.089617
    42  H    0.065317
    43  H    0.081411
    44  H    0.089981
    45  H    0.093561
    46  H    0.088932
    47  H    0.086618
    48  H    0.100602
    49  H    0.092489
    50  H    0.106081
    51  H    0.106355
    52  H    0.104117
    53  H    0.107301
    54  H    0.078313
    55  H    0.093302
    56  H    0.087788
    57  H    0.106287
    58  H    0.091025
    59  H    0.100291
    60  H    0.093940
    61  H    0.067077
    62  H    0.109264
    63  H    0.073728
    64  H    0.104901
    65  H    0.068202
    66  H    0.081297
    67  H    0.129967
    68  H    0.111720
    69  H    0.104777
    70  H    0.120206
    71  H    0.099261
    72  H    0.099763
    73  H    0.070285
    74  H    0.042243
    75  H    0.115024
    76  H    0.106564
    77  H    0.123446
    78  H    0.092489
    79  H    0.136033
    80  H    0.111145
    81  H    0.079522
    82  H    0.073462
    83  H    0.084495
    84  H    0.093752
    85  H    0.083778
    86  H    0.077994
    87  H    0.139295
    88  H    0.095184
    89  H    0.123148
    90  H    0.118433
    91  H    0.124121
    92  H    0.088634
    93  H    0.076498
    94  H    0.098797
    95  H    0.068790
    96  H    0.098658
 Sum of Mulliken charges =  -0.00000

 Dipole moment (field-independent basis, Debye):
    X=             -0.0303    Y=             -0.0363    Z=              0.7816  Tot=              0.7830
 Quadrupole moment (field-independent basis, Debye-Ang):
   XX=           -238.0477   YY=           -231.8870   ZZ=           -255.0345
   XY=             -1.8211   XZ=             -3.1208   YZ=              3.0692

 Normal termination of Gaussian 16 at Sun Jul 28 11:09:22 2019.
