 Gaussian 16, Revision A.03,
 Gaussian 16:  ES64L-G16RevA.03 25-Dec-2016

 ---------------------------------
 # td=(NStates=1) B3LYP/6-31G(d,p)
 ---------------------------------

 --
 TD
 --
 Symbolic Z-matrix:
 Charge =  0 Multiplicity = 1

                         Standard orientation:
 ---------------------------------------------------------------------
 Center     Atomic      Atomic             Coordinates (Angstroms)
 Number     Number       Type             X           Y           Z
 ---------------------------------------------------------------------
      1          6           0       12.262176    0.487530   -0.715929
      2          6           0      -12.056324   -0.066546    1.021137
      3          6           0       13.526996   -0.382083   -0.427842
      4          6           0      -13.015294    1.034587    1.375503
      5          6           0       13.277488   -1.879334   -0.434312
      6          6           0      -13.479321    1.923610    0.207676
      7          6           0       10.999353   -0.034824    0.181601
      8          6           0      -11.156686    0.320090   -0.182789
      9          6           0       12.273596   -2.131341    0.775839
     10          6           0      -12.295600    2.503945   -0.664503
     11          6           0       11.078572   -1.223015    0.855271
     12          6           0      -11.078820    1.477082   -0.870113
     13          6           0       11.731118    0.334706   -2.141241
     14          6           0       12.478027    1.951246   -0.494582
     15          6           0      -12.902811   -1.171714    0.413385
     16          6           0      -11.369763   -0.515813    2.319561
     17          6           0        9.858132    0.862791    0.282803
     18          6           0       -9.992872   -0.697046   -0.299208
     19          6           0       10.145898   -1.671463    1.954379
     20          6           0      -10.057867    1.867233   -1.916249
     21          6           0        8.551510    0.451886    0.285292
     22          6           0       -8.624006   -0.308218   -0.247458
     23          6           0        7.454424    1.348536    0.427687
     24          6           0       -7.514893   -1.280934   -0.429157
     25          6           0        7.662911    2.762449    0.698027
     26          6           0       -7.889695   -2.695023   -0.655452
     27          6           0        6.214595    0.753334    0.350322
     28          6           0       -6.240473   -0.780716   -0.336674
     29          6           0        4.906589    1.266200    0.442186
     30          6           0       -5.121986   -1.636773   -0.476089
     31          6           0        3.669093    0.778064    0.215703
     32          6           0       -3.862757   -1.055912   -0.355204
     33          6           0        2.358920    1.416107    0.277414
     34          6           0       -2.570122   -1.641977   -0.329813
     35          6           0        2.384223    2.881604    0.494554
     36          6           0       -2.511966   -3.135303   -0.887077
     37          6           0        1.239848    0.680853   -0.006963
     38          6           0       -1.389683   -0.948679   -0.240069
     39          6           0        1.065731   -0.649651   -0.143102
     40          6           0       -0.051840   -1.425799   -0.334933
     41          1           0       14.157179   -0.136520    0.618704
     42          1           0       14.347808   -0.086722   -1.175690
     43          1           0      -12.428437    1.770936    2.101654
     44          1           0      -13.743765    0.619533    1.768493
     45          1           0       14.245037   -2.533178   -0.466240
     46          1           0       12.864441   -2.153692   -1.474604
     47          1           0      -14.211867    2.853862    0.309187
     48          1           0      -14.183543    1.207474   -0.492542
     49          1           0       12.772996   -2.266534    1.666217
     50          1           0       11.846268   -3.272838    0.414172
     51          1           0      -11.875734    3.183500   -0.042691
     52          1           0      -12.887865    2.731163   -1.627175
     53          1           0       11.566963   -0.716582   -2.367249
     54          1           0       12.372395    0.931645   -2.798298
     55          1           0       10.574153    0.730525   -2.148840
     56          1           0       12.592097    2.232910    0.579546
     57          1           0       11.646576    2.799845   -0.884114
     58          1           0       13.349254    2.303632   -1.090622
     59          1           0      -13.247040   -0.866705   -0.449079
     60          1           0      -13.939283   -1.353014    1.114525
     61          1           0      -12.319782   -2.020268    0.426304
     62          1           0      -10.772829    0.353972    2.622486
     63          1           0      -10.706348   -1.273577    2.014360
     64          1           0      -12.005364   -0.843607    3.157675
     65          1           0       10.043194    1.890185    0.408207
     66          1           0      -10.087899   -1.706031   -0.411541
     67          1           0        9.653534   -0.750873    2.286054
     68          1           0       10.639598   -2.081230    2.878494
     69          1           0        9.498553   -2.432190    1.508595
     70          1           0       -9.454498    0.984261   -2.068761
     71          1           0       -9.619096    2.764770   -1.527914
     72          1           0      -10.715479    2.162037   -2.859641
     73          1           0        8.303920   -0.775483    0.069855
     74          1           0       -8.099046    0.657652   -0.203530
     75          1           0        7.991605    2.938751    1.832258
     76          1           0        6.737641    3.255079    0.525381
     77          1           0        8.435522    3.120517   -0.044675
     78          1           0       -8.628714   -2.752421   -1.452967
     79          1           0       -8.165271   -3.238428    0.177576
     80          1           0       -6.886152   -3.368411   -0.868447
     81          1           0        6.313451   -0.301399   -0.065297
     82          1           0       -6.167595    0.397140   -0.080711
     83          1           0        4.804720    2.408361    0.814566
     84          1           0       -5.145988   -2.679258   -0.653245
     85          1           0        3.688951   -0.346305   -0.073138
     86          1           0       -3.561737    0.022764   -0.319439
     87          1           0        3.056245    3.188072    1.344676
     88          1           0        1.309095    3.241622    0.678201
     89          1           0        2.737888    3.394594   -0.314006
     90          1           0       -2.762197   -3.367415   -1.939852
     91          1           0       -3.170533   -3.640568   -0.174707
     92          1           0       -1.366435   -3.619314   -0.672987
     93          1           0        0.175170    1.239408    0.211352
     94          1           0       -1.421728    0.173724   -0.168338
     95          1           0        2.043493   -1.109766   -0.102499
     96          1           0        0.067965   -2.483752   -0.447183
 ---------------------------------------------------------------------

 SCF Done:  E(RB3LYP) =  -1557.56620451     A.U. after   15 cycles

 Excitation energies and oscillator strengths:

 Excited State   1:      Singlet-A      2.0581 eV  602.42 nm  f=3.2615  <S**2>=0.000
     148 ->149         0.71032
     148 <-149        -0.12020
 This state for optimization and/or second-order correction.
 Total Energy, E(TD-HF/TD-DFT) =  -1557.49057014
 Copying the excited state density for this state as the 1-particle RhoCI density.

 The electronic state is 1-A.
 Alpha  occ. eigenvalues --  -10.20737 -10.20665 -10.20029 -10.19929 -10.19917
 Alpha  occ. eigenvalues --  -10.19898 -10.19877 -10.19856 -10.19731 -10.19621
 Alpha  occ. eigenvalues --  -10.19607 -10.19556 -10.19495 -10.19478 -10.19372
 Alpha  occ. eigenvalues --  -10.19306 -10.19281 -10.19242 -10.19231 -10.19169
 Alpha  occ. eigenvalues --  -10.19160 -10.19133 -10.19116 -10.19053 -10.19006
 Alpha  occ. eigenvalues --  -10.18982 -10.18892 -10.18885 -10.18832 -10.18805
 Alpha  occ. eigenvalues --  -10.18418 -10.18356 -10.18334 -10.18203 -10.18156
 Alpha  occ. eigenvalues --  -10.17917 -10.17644 -10.16742 -10.16332 -10.16309
 Alpha  occ. eigenvalues --   -0.84825  -0.84697  -0.84049  -0.83271  -0.82908
 Alpha  occ. eigenvalues --   -0.81542  -0.79132  -0.78620  -0.78449  -0.77212
 Alpha  occ. eigenvalues --   -0.76296  -0.75220  -0.74323  -0.72348  -0.71483
 Alpha  occ. eigenvalues --   -0.70505  -0.69151  -0.68996  -0.68505  -0.67791
 Alpha  occ. eigenvalues --   -0.67421  -0.67015  -0.66837  -0.66283  -0.66014
 Alpha  occ. eigenvalues --   -0.63261  -0.61859  -0.59354  -0.58397  -0.57282
 Alpha  occ. eigenvalues --   -0.56393  -0.55597  -0.54905  -0.53733  -0.52508
 Alpha  occ. eigenvalues --   -0.51923  -0.50966  -0.50185  -0.49450  -0.49076
 Alpha  occ. eigenvalues --   -0.47737  -0.47266  -0.47126  -0.46783  -0.46348
 Alpha  occ. eigenvalues --   -0.45835  -0.45372  -0.45096  -0.44675  -0.44219
 Alpha  occ. eigenvalues --   -0.43680  -0.43297  -0.43022  -0.42877  -0.42527
 Alpha  occ. eigenvalues --   -0.42406  -0.42291  -0.42134  -0.41897  -0.41489
 Alpha  occ. eigenvalues --   -0.40905  -0.40697  -0.40516  -0.40035  -0.39618
 Alpha  occ. eigenvalues --   -0.39277  -0.39097  -0.38888  -0.38754  -0.38257
 Alpha  occ. eigenvalues --   -0.37789  -0.37532  -0.37165  -0.36954  -0.36872
 Alpha  occ. eigenvalues --   -0.36595  -0.36010  -0.35644  -0.35090  -0.35014
 Alpha  occ. eigenvalues --   -0.34647  -0.34345  -0.34065  -0.33896  -0.33659
 Alpha  occ. eigenvalues --   -0.33110  -0.33093  -0.32854  -0.32703  -0.32463
 Alpha  occ. eigenvalues --   -0.32429  -0.31999  -0.31257  -0.30645  -0.30388
 Alpha  occ. eigenvalues --   -0.30202  -0.29765  -0.29520  -0.29162  -0.28193
 Alpha  occ. eigenvalues --   -0.27854  -0.27379  -0.26226  -0.24287  -0.23017
 Alpha  occ. eigenvalues --   -0.21376  -0.18971  -0.16253
 Alpha virt. eigenvalues --   -0.08790  -0.05312  -0.01922   0.01034   0.02686
 Alpha virt. eigenvalues --    0.03924   0.05971   0.06383   0.07005   0.07072
 Alpha virt. eigenvalues --    0.07161   0.07725   0.07846   0.08139   0.08670

 Mulliken charges:
               1
     1  C    0.033861
     2  C   -0.023733
     3  C   -0.160064
     4  C   -0.112077
     5  C   -0.187872
     6  C   -0.199592
     7  C    0.055249
     8  C    0.082879
     9  C   -0.203414
    10  C   -0.207843
    11  C    0.051030
    12  C    0.012279
    13  C   -0.282049
    14  C   -0.306383
    15  C   -0.268727
    16  C   -0.293991
    17  C   -0.154691
    18  C   -0.188075
    19  C   -0.352158
    20  C   -0.338731
    21  C   -0.077939
    22  C   -0.077605
    23  C    0.145106
    24  C    0.129014
    25  C   -0.368592
    26  C   -0.380601
    27  C   -0.126207
    28  C   -0.118841
    29  C   -0.087688
    30  C   -0.101056
    31  C   -0.104070
    32  C   -0.084859
    33  C    0.117605
    34  C    0.080991
    35  C   -0.378643
    36  C   -0.357455
    37  C   -0.110833
    38  C   -0.116297
    39  C   -0.066829
    40  C   -0.078711
    41  H    0.061432
    42  H    0.074830
    43  H    0.057671
    44  H    0.089092
    45  H    0.083113
    46  H    0.092718
    47  H    0.077808
    48  H    0.055402
    49  H    0.121320
    50  H    0.058008
    51  H    0.122421
    52  H    0.099393
    53  H    0.106365
    54  H    0.094284
    55  H    0.087577
    56  H    0.104743
    57  H    0.070376
    58  H    0.100261
    59  H    0.122250
    60  H    0.043112
    61  H    0.103799
    62  H    0.104052
    63  H    0.102858
    64  H    0.104656
    65  H    0.091243
    66  H    0.088918
    67  H    0.121571
    68  H    0.099521
    69  H    0.117909
    70  H    0.128278
    71  H    0.121797
    72  H    0.090248
    73  H    0.069884
    74  H    0.075109
    75  H    0.111166
    76  H    0.119728
    77  H    0.117315
    78  H    0.125826
    79  H    0.141599
    80  H    0.073675
    81  H    0.068375
    82  H    0.082701
    83  H    0.043572
    84  H    0.096335
    85  H    0.068585
    86  H    0.069827
    87  H    0.117242
    88  H    0.099640
    89  H    0.144672
    90  H    0.129890
    91  H    0.115327
    92  H    0.067436
    93  H    0.049814
    94  H    0.071537
    95  H    0.073501
    96  H    0.077826
 Sum of Mulliken charges =  -0.00000

 Dipole moment (field-independent basis, Debye):
    X=              1.0846    Y=              0.3887    Z=              0.1303  Tot=              1.1595
 Quadrupole moment (field-independent basis, Debye-Ang):
   XX=           -226.6426   YY=           -236.1042   ZZ=           -255.6325
   XY=              3.5976   XZ=              3.3584   YZ=              1.7052

 Normal termination of Gaussian 16 at Mon Jul 29 12:58:09 2019.
