 Gaussian 16, Revision A.03,
 Gaussian 16:  ES64L-G16RevA.03 25-Dec-2016

 ---------------------------------
 # td=(NStates=1) B3LYP/6-31G(d,p)
 ---------------------------------

 --
 TD
 --
 Symbolic Z-matrix:
 Charge =  0 Multiplicity = 1

                         Standard orientation:
 ---------------------------------------------------------------------
 Center     Atomic      Atomic             Coordinates (Angstroms)
 Number     Number       Type             X           Y           Z
 ---------------------------------------------------------------------
      1          6           0       12.194062   -0.577317    0.865896
      2          6           0      -12.110330    0.021775   -0.815923
      3          6           0       13.466131    0.222239    0.808612
      4          6           0      -12.993731   -1.171335   -1.197727
      5          6           0       13.154274    1.724751    0.855986
      6          6           0      -13.513929   -2.044035    0.000481
      7          6           0       11.052306   -0.008032   -0.055904
      8          6           0      -11.035038   -0.344858    0.302137
      9          6           0       12.270659    2.154063   -0.352351
     10          6           0      -12.308096   -2.498468    0.924384
     11          6           0       11.136219    1.259947   -0.714774
     12          6           0      -11.230462   -1.501115    1.046496
     13          6           0       11.560636   -0.568713    2.276451
     14          6           0       12.466880   -2.057108    0.315198
     15          6           0      -13.066030    1.171567   -0.256891
     16          6           0      -11.375024    0.625856   -2.095079
     17          6           0        9.879505   -0.861226   -0.354612
     18          6           0       -9.924354    0.474149    0.304944
     19          6           0       10.333858    1.731190   -1.769848
     20          6           0      -10.117133   -1.950762    2.001131
     21          6           0        8.561008   -0.361078   -0.468134
     22          6           0       -8.604324    0.244917    0.306576
     23          6           0        7.437115   -1.304830   -0.530431
     24          6           0       -7.459854    1.247513    0.329456
     25          6           0        7.695916   -2.792058   -0.733304
     26          6           0       -7.762332    2.712493    0.574657
     27          6           0        6.244544   -0.793503   -0.451866
     28          6           0       -6.186132    0.862432    0.187169
     29          6           0        4.852186   -1.301018   -0.595646
     30          6           0       -4.902341    1.609193    0.244455
     31          6           0        3.635676   -0.694134   -0.519292
     32          6           0       -3.763076    1.030831    0.208698
     33          6           0        2.370735   -1.217714   -0.545162
     34          6           0       -2.486668    1.744662    0.288854
     35          6           0        2.236456   -2.634358   -1.005722
     36          6           0       -2.640397    3.160566    0.564311
     37          6           0        1.247748   -0.531732   -0.439679
     38          6           0       -1.297433    1.144432    0.210738
     39          6           0        1.153073    0.867881    0.013505
     40          6           0       -0.008956    1.587927    0.143524
     41          1           0       13.932276   -0.018462   -0.297251
     42          1           0       14.161587   -0.078964    1.717269
     43          1           0      -12.417597   -1.591002   -2.030671
     44          1           0      -13.808189   -0.879292   -1.537916
     45          1           0       14.089854    2.366468    0.943986
     46          1           0       12.816923    2.002859    1.844551
     47          1           0      -14.163276   -2.845151   -0.493480
     48          1           0      -14.168864   -1.191766    0.458608
     49          1           0       12.994057    2.466923   -1.066630
     50          1           0       12.143763    3.362308   -0.005156
     51          1           0      -12.006101   -3.531972    0.594149
     52          1           0      -12.790442   -2.642171    1.900794
     53          1           0       11.260139    0.360244    2.674957
     54          1           0       12.306952   -0.920243    3.070611
     55          1           0       10.743329   -1.300573    2.338797
     56          1           0       12.848362   -2.319877   -0.634034
     57          1           0       11.604137   -2.692815    0.572054
     58          1           0       13.175207   -2.548044    1.090698
     59          1           0      -13.780522    0.791568    0.430832
     60          1           0      -13.677077    1.498127   -1.181517
     61          1           0      -12.542249    1.914255    0.234394
     62          1           0      -10.654162    0.081933   -2.560936
     63          1           0      -10.828772    1.507034   -1.837105
     64          1           0      -12.184933    0.824306   -2.753781
     65          1           0       10.072725   -1.982435   -0.341678
     66          1           0      -10.163525    1.501283    0.402523
     67          1           0        9.573538    0.876987   -2.227339
     68          1           0       11.076152    2.290335   -2.551076
     69          1           0        9.730547    2.712612   -1.358398
     70          1           0       -9.590702   -1.062465    2.512848
     71          1           0       -9.472344   -2.738033    1.537744
     72          1           0      -10.438129   -2.602158    2.871697
     73          1           0        8.184423    0.506817   -0.237350
     74          1           0       -8.527643   -0.884078   -0.018878
     75          1           0        8.326433   -2.778234   -1.708528
     76          1           0        6.805908   -3.491324   -0.757975
     77          1           0        8.462416   -3.108255    0.156555
     78          1           0       -8.447496    2.846389    1.504440
     79          1           0       -8.640826    2.990842   -0.048315
     80          1           0       -6.838748    3.298181    0.618199
     81          1           0        6.064077    0.374290   -0.387219
     82          1           0       -6.047911   -0.168620   -0.168439
     83          1           0        4.670606   -2.477310   -0.893480
     84          1           0       -4.982177    2.657456    0.302377
     85          1           0        3.668938    0.367126   -0.189761
     86          1           0       -3.602331   -0.205281    0.085467
     87          1           0        2.721537   -2.887004   -2.059879
     88          1           0        1.323550   -3.114067   -1.197575
     89          1           0        2.833805   -3.545769   -0.382808
     90          1           0       -3.141785    3.440670    1.512703
     91          1           0       -2.985690    3.766866   -0.246179
     92          1           0       -1.675958    3.657728    0.618634
     93          1           0        0.313236   -1.122128   -0.509860
     94          1           0       -1.548405   -0.145341    0.076707
     95          1           0        2.075177    1.315746    0.047538
     96          1           0        0.166107    2.783540    0.336201
 ---------------------------------------------------------------------

 SCF Done:  E(RB3LYP) =  -1557.53918617     A.U. after   14 cycles

 Excitation energies and oscillator strengths:

 Excited State   1:      Singlet-A      2.3830 eV  520.28 nm  f=2.8267  <S**2>=0.000
     148 ->149         0.70300
 This state for optimization and/or second-order correction.
 Total Energy, E(TD-HF/TD-DFT) =  -1557.45161093
 Copying the excited state density for this state as the 1-particle RhoCI density.

 The electronic state is 1-A.
 Alpha  occ. eigenvalues --  -10.21226 -10.20613 -10.20499 -10.20483 -10.20366
 Alpha  occ. eigenvalues --  -10.20347 -10.20144 -10.20025 -10.19980 -10.19766
 Alpha  occ. eigenvalues --  -10.19756 -10.19717 -10.19659 -10.19597 -10.19536
 Alpha  occ. eigenvalues --  -10.19530 -10.19506 -10.19491 -10.19480 -10.19370
 Alpha  occ. eigenvalues --  -10.19362 -10.19329 -10.19259 -10.19030 -10.18954
 Alpha  occ. eigenvalues --  -10.18682 -10.18562 -10.18478 -10.18446 -10.18298
 Alpha  occ. eigenvalues --  -10.18275 -10.18270 -10.18202 -10.18068 -10.17593
 Alpha  occ. eigenvalues --  -10.17550 -10.17494 -10.16807 -10.15715 -10.15444
 Alpha  occ. eigenvalues --   -0.84802  -0.84674  -0.84361  -0.84046  -0.82716
 Alpha  occ. eigenvalues --   -0.81637  -0.79407  -0.78912  -0.78062  -0.77530
 Alpha  occ. eigenvalues --   -0.76788  -0.75488  -0.74230  -0.72306  -0.71872
 Alpha  occ. eigenvalues --   -0.70253  -0.68579  -0.68476  -0.68391  -0.68351
 Alpha  occ. eigenvalues --   -0.67587  -0.67336  -0.67049  -0.66664  -0.66552
 Alpha  occ. eigenvalues --   -0.62940  -0.61969  -0.60415  -0.59410  -0.57499
 Alpha  occ. eigenvalues --   -0.56784  -0.55940  -0.54871  -0.53969  -0.52864
 Alpha  occ. eigenvalues --   -0.52160  -0.51594  -0.50220  -0.50143  -0.48982
 Alpha  occ. eigenvalues --   -0.48381  -0.47513  -0.47134  -0.46650  -0.46390
 Alpha  occ. eigenvalues --   -0.45781  -0.45309  -0.44887  -0.44778  -0.44454
 Alpha  occ. eigenvalues --   -0.43682  -0.43100  -0.42635  -0.42389  -0.42228
 Alpha  occ. eigenvalues --   -0.42083  -0.41422  -0.41275  -0.41025  -0.40677
 Alpha  occ. eigenvalues --   -0.40654  -0.40299  -0.39675  -0.39603  -0.39015
 Alpha  occ. eigenvalues --   -0.38764  -0.38694  -0.38620  -0.38226  -0.38044
 Alpha  occ. eigenvalues --   -0.37972  -0.37742  -0.37531  -0.37086  -0.36776
 Alpha  occ. eigenvalues --   -0.36413  -0.36246  -0.35847  -0.35271  -0.35228
 Alpha  occ. eigenvalues --   -0.35005  -0.34742  -0.34271  -0.34056  -0.33916
 Alpha  occ. eigenvalues --   -0.33355  -0.33317  -0.32564  -0.32251  -0.32162
 Alpha  occ. eigenvalues --   -0.31959  -0.31475  -0.31175  -0.30825  -0.30736
 Alpha  occ. eigenvalues --   -0.30089  -0.29853  -0.29680  -0.29525  -0.29371
 Alpha  occ. eigenvalues --   -0.28758  -0.27376  -0.26573  -0.24411  -0.22845
 Alpha  occ. eigenvalues --   -0.20745  -0.19209  -0.17292
 Alpha virt. eigenvalues --   -0.07935  -0.05034  -0.02558  -0.00089   0.02524
 Alpha virt. eigenvalues --    0.03861   0.04848   0.06106   0.06737   0.07188
 Alpha virt. eigenvalues --    0.07484   0.07855   0.08273   0.08691   0.09020

 Mulliken charges:
               1
     1  C    0.016988
     2  C   -0.020109
     3  C   -0.154933
     4  C   -0.155749
     5  C   -0.195642
     6  C   -0.207902
     7  C    0.065723
     8  C    0.085523
     9  C   -0.228101
    10  C   -0.219255
    11  C    0.133942
    12  C    0.061762
    13  C   -0.304596
    14  C   -0.322412
    15  C   -0.304920
    16  C   -0.310525
    17  C   -0.152812
    18  C   -0.137697
    19  C   -0.361799
    20  C   -0.364782
    21  C   -0.075650
    22  C   -0.091029
    23  C    0.155849
    24  C    0.117341
    25  C   -0.362197
    26  C   -0.379664
    27  C   -0.156797
    28  C   -0.133345
    29  C   -0.084373
    30  C   -0.078168
    31  C   -0.117375
    32  C   -0.081699
    33  C    0.193450
    34  C    0.148425
    35  C   -0.385653
    36  C   -0.401555
    37  C   -0.131555
    38  C   -0.088192
    39  C   -0.078236
    40  C   -0.112375
    41  H    0.069015
    42  H    0.077537
    43  H    0.083111
    44  H    0.093737
    45  H    0.074703
    46  H    0.101169
    47  H    0.090245
    48  H    0.087064
    49  H    0.123207
    50  H    0.059348
    51  H    0.108192
    52  H    0.111133
    53  H    0.123680
    54  H    0.078708
    55  H    0.106917
    56  H    0.124049
    57  H    0.098495
    58  H    0.083155
    59  H    0.102797
    60  H    0.083626
    61  H    0.105773
    62  H    0.111963
    63  H    0.100926
    64  H    0.097067
    65  H    0.087776
    66  H    0.067217
    67  H    0.106805
    68  H    0.089568
    69  H    0.093534
    70  H    0.116512
    71  H    0.112026
    72  H    0.084702
    73  H    0.087083
    74  H    0.074714
    75  H    0.119804
    76  H    0.116968
    77  H    0.097933
    78  H    0.106491
    79  H    0.122735
    80  H    0.115062
    81  H    0.060533
    82  H    0.074806
    83  H    0.052498
    84  H    0.088133
    85  H    0.066141
    86  H    0.059416
    87  H    0.102158
    88  H    0.117170
    89  H    0.078093
    90  H    0.124516
    91  H    0.126028
    92  H    0.098375
    93  H    0.084276
    94  H    0.037893
    95  H    0.082641
    96  H    0.072867
 Sum of Mulliken charges =  -0.00000

 Dipole moment (field-independent basis, Debye):
    X=              0.5030    Y=              0.2957    Z=              0.0124  Tot=              0.5836
 Quadrupole moment (field-independent basis, Debye-Ang):
   XX=           -216.3919   YY=           -233.9811   ZZ=           -255.6650
   XY=              0.6629   XZ=              5.4993   YZ=              3.7582

 Normal termination of Gaussian 16 at Tue Jul 23 18:52:59 2019.
