 Gaussian 16, Revision A.03,
 Gaussian 16:  ES64L-G16RevA.03 25-Dec-2016

 ---------------------------------
 # td=(NStates=1) B3LYP/6-31G(d,p)
 ---------------------------------

 --
 TD
 --
 Symbolic Z-matrix:
 Charge =  0 Multiplicity = 1

                         Standard orientation:
 ---------------------------------------------------------------------
 Center     Atomic      Atomic             Coordinates (Angstroms)
 Number     Number       Type             X           Y           Z
 ---------------------------------------------------------------------
      1          6           0      -12.155128   -0.403348   -0.703420
      2          6           0       11.981242   -0.006317    0.957847
      3          6           0      -13.425002    0.543746   -0.582466
      4          6           0       12.789496   -1.225184    1.562707
      5          6           0      -12.974245    1.918390   -0.368770
      6          6           0       13.274556   -2.110609    0.323700
      7          6           0      -11.009590   -0.062062    0.317421
      8          6           0       10.974441   -0.394068   -0.057968
      9          6           0      -12.185804    1.999366    0.982107
     10          6           0       12.062577   -2.596182   -0.421770
     11          6           0      -11.068156    1.020218    1.130558
     12          6           0       11.046186   -1.585349   -0.803434
     13          6           0      -11.541806   -0.293541   -2.184794
     14          6           0      -12.557357   -1.898725   -0.504596
     15          6           0       12.977033    0.978492    0.301890
     16          6           0       11.351748    0.733648    2.270531
     17          6           0       -9.955970   -1.084577    0.371194
     18          6           0        9.867694    0.523092   -0.313514
     19          6           0      -10.099162    1.441108    2.150068
     20          6           0       10.135887   -2.000618   -1.875429
     21          6           0       -8.578835   -0.695555    0.201755
     22          6           0        8.553681    0.233820   -0.371357
     23          6           0       -7.367566   -1.419997    0.357457
     24          6           0        7.621737    1.328573   -0.451352
     25          6           0       -7.472819   -2.999589    0.568156
     26          6           0        7.941915    2.786450   -0.661893
     27          6           0       -6.219447   -0.800716    0.178130
     28          6           0        6.257752    0.928006   -0.453490
     29          6           0       -4.814350   -1.401510    0.361313
     30          6           0        5.026569    1.730295   -0.468704
     31          6           0       -3.761173   -0.728297    0.046793
     32          6           0        3.839708    1.310402   -0.339687
     33          6           0       -2.463703   -1.260050    0.161524
     34          6           0        2.564624    1.924140   -0.429306
     35          6           0       -2.288795   -2.788710    0.344050
     36          6           0        2.367519    3.469382   -0.536107
     37          6           0       -1.250994   -0.591387   -0.071385
     38          6           0        1.400480    1.141061   -0.348878
     39          6           0       -1.111760    0.971503   -0.248872
     40          6           0        0.061188    1.603971   -0.419668
     41          1           0      -14.027322    0.291051    0.268290
     42          1           0      -14.065295    0.387794   -1.531375
     43          1           0       12.192694   -2.040201    2.075297
     44          1           0       13.724933   -0.786514    1.936718
     45          1           0      -13.859628    2.669590   -0.066910
     46          1           0      -12.317359    2.546395   -1.113428
     47          1           0       13.956715   -3.055306    0.672453
     48          1           0       14.124399   -1.691975   -0.242631
     49          1           0      -12.777145    2.150144    1.843143
     50          1           0      -11.655585    2.925498    0.875717
     51          1           0       11.614204   -3.297288    0.036514
     52          1           0       12.340215   -3.065196   -1.327431
     53          1           0      -11.344740    0.750343   -2.479449
     54          1           0      -12.165608   -0.601286   -2.892681
     55          1           0      -10.655734   -0.864125   -2.141100
     56          1           0      -12.650187   -2.328630    0.752616
     57          1           0      -11.763117   -2.607113   -1.178441
     58          1           0      -13.622044   -1.984796   -0.910559
     59          1           0       13.368735    0.516088   -0.690929
     60          1           0       13.897378    0.979231    0.975271
     61          1           0       12.571278    2.012349   -0.133524
     62          1           0       10.696995   -0.076201    2.643342
     63          1           0       10.912479    1.662119    2.042622
     64          1           0       12.127005    0.821460    2.938094
     65          1           0      -10.276845   -2.088075    0.460783
     66          1           0       10.113952    1.675265   -0.065757
     67          1           0       -9.420125    0.711995    2.492597
     68          1           0      -10.598787    1.785422    3.091823
     69          1           0       -9.572351    2.341863    1.678881
     70          1           0        9.445384   -1.143782   -2.059784
     71          1           0        9.553191   -2.885317   -1.470192
     72          1           0       10.750058   -2.357899   -2.766262
     73          1           0       -8.400312    0.327048   -0.140174
     74          1           0        8.213056   -0.807927   -0.523979
     75          1           0       -7.677208   -2.841485    1.781863
     76          1           0       -6.629651   -3.621248    0.479277
     77          1           0       -8.551729   -3.452726    0.144277
     78          1           0        8.347646    3.050464   -1.692764
     79          1           0        8.539157    3.279106    0.078353
     80          1           0        7.001480    3.356397   -0.739286
     81          1           0       -6.000659    0.130853    0.020958
     82          1           0        5.935330   -0.139042   -0.551798
     83          1           0       -4.797551   -2.505067    0.650838
     84          1           0        5.247653    2.857205   -0.673712
     85          1           0       -3.799331    0.278662   -0.198205
     86          1           0        3.840081    0.202226   -0.114702
     87          1           0       -2.459490   -3.151248    1.594270
     88          1           0       -1.254924   -3.069735   -0.123491
     89          1           0       -2.972343   -3.411686   -0.245134
     90          1           0        2.450625    3.823723   -1.671834
     91          1           0        3.353750    4.062232   -0.089147
     92          1           0        1.404359    3.873773   -0.232361
     93          1           0       -0.386483   -1.169661    0.054331
     94          1           0        1.489455   -0.008550   -0.486924
     95          1           0       -2.115884    1.495819   -0.249271
     96          1           0       -0.161023    2.652330   -0.607141
 ---------------------------------------------------------------------

 SCF Done:  E(RB3LYP) =  -1557.57033834     A.U. after   14 cycles

 Excitation energies and oscillator strengths:

 Excited State   1:      Singlet-A      2.3823 eV  520.43 nm  f=2.7621  <S**2>=0.000
     148 ->149         0.70213
 This state for optimization and/or second-order correction.
 Total Energy, E(TD-HF/TD-DFT) =  -1557.48278970
 Copying the excited state density for this state as the 1-particle RhoCI density.

 The electronic state is 1-A.
 Alpha  occ. eigenvalues --  -10.21359 -10.21078 -10.20966 -10.20710 -10.20602
 Alpha  occ. eigenvalues --  -10.20567 -10.20489 -10.20255 -10.20124 -10.20025
 Alpha  occ. eigenvalues --  -10.19855 -10.19643 -10.19349 -10.19302 -10.19142
 Alpha  occ. eigenvalues --  -10.19131 -10.19068 -10.18999 -10.18969 -10.18928
 Alpha  occ. eigenvalues --  -10.18882 -10.18869 -10.18838 -10.18680 -10.18579
 Alpha  occ. eigenvalues --  -10.18517 -10.18492 -10.18480 -10.18406 -10.18323
 Alpha  occ. eigenvalues --  -10.18194 -10.18037 -10.17995 -10.17530 -10.17385
 Alpha  occ. eigenvalues --  -10.17339 -10.16995 -10.16298 -10.15877 -10.15765
 Alpha  occ. eigenvalues --   -0.85032  -0.84477  -0.83524  -0.83178  -0.81663
 Alpha  occ. eigenvalues --   -0.81164  -0.79151  -0.78840  -0.78194  -0.77159
 Alpha  occ. eigenvalues --   -0.76636  -0.75206  -0.73798  -0.72152  -0.71617
 Alpha  occ. eigenvalues --   -0.68818  -0.68034  -0.67878  -0.67833  -0.67664
 Alpha  occ. eigenvalues --   -0.67525  -0.67457  -0.66614  -0.65857  -0.65418
 Alpha  occ. eigenvalues --   -0.62549  -0.61754  -0.59499  -0.58434  -0.56737
 Alpha  occ. eigenvalues --   -0.56398  -0.55804  -0.55150  -0.54014  -0.52915
 Alpha  occ. eigenvalues --   -0.52461  -0.52053  -0.50654  -0.49971  -0.49023
 Alpha  occ. eigenvalues --   -0.48556  -0.47638  -0.47340  -0.46416  -0.45861
 Alpha  occ. eigenvalues --   -0.45447  -0.45057  -0.44429  -0.43939  -0.43382
 Alpha  occ. eigenvalues --   -0.43127  -0.42970  -0.42709  -0.42064  -0.42047
 Alpha  occ. eigenvalues --   -0.41799  -0.41487  -0.41322  -0.40778  -0.40125
 Alpha  occ. eigenvalues --   -0.39829  -0.39768  -0.39639  -0.39402  -0.39290
 Alpha  occ. eigenvalues --   -0.39220  -0.38840  -0.38803  -0.38316  -0.38280
 Alpha  occ. eigenvalues --   -0.37903  -0.37826  -0.37493  -0.37381  -0.37262
 Alpha  occ. eigenvalues --   -0.36476  -0.35928  -0.35670  -0.35645  -0.35544
 Alpha  occ. eigenvalues --   -0.35015  -0.34653  -0.34584  -0.34362  -0.33953
 Alpha  occ. eigenvalues --   -0.33534  -0.33024  -0.32929  -0.32569  -0.32296
 Alpha  occ. eigenvalues --   -0.32232  -0.31964  -0.31779  -0.31320  -0.30992
 Alpha  occ. eigenvalues --   -0.30041  -0.29970  -0.29493  -0.28963  -0.28496
 Alpha  occ. eigenvalues --   -0.27668  -0.27439  -0.25338  -0.23967  -0.22588
 Alpha  occ. eigenvalues --   -0.20634  -0.18658  -0.16829
 Alpha virt. eigenvalues --   -0.07463  -0.04933  -0.01927   0.00553   0.02980
 Alpha virt. eigenvalues --    0.04176   0.06154   0.06393   0.06642   0.06947
 Alpha virt. eigenvalues --    0.07246   0.07588   0.08039   0.08640   0.08759

 Mulliken charges:
               1
     1  C    0.001152
     2  C   -0.026314
     3  C   -0.161842
     4  C   -0.179299
     5  C   -0.184389
     6  C   -0.205696
     7  C    0.063807
     8  C    0.097429
     9  C   -0.234072
    10  C   -0.194116
    11  C    0.083015
    12  C    0.057592
    13  C   -0.307329
    14  C   -0.281828
    15  C   -0.294166
    16  C   -0.292036
    17  C   -0.154242
    18  C   -0.156400
    19  C   -0.356403
    20  C   -0.364833
    21  C   -0.114378
    22  C   -0.075304
    23  C    0.130589
    24  C    0.115305
    25  C   -0.342056
    26  C   -0.378320
    27  C   -0.111721
    28  C   -0.148402
    29  C   -0.093232
    30  C   -0.056577
    31  C   -0.066048
    32  C   -0.105761
    33  C    0.104351
    34  C    0.135443
    35  C   -0.352654
    36  C   -0.365684
    37  C   -0.136362
    38  C   -0.127356
    39  C   -0.114975
    40  C   -0.067587
    41  H    0.103247
    42  H    0.078417
    43  H    0.105456
    44  H    0.094841
    45  H    0.065883
    46  H    0.091588
    47  H    0.048159
    48  H    0.100140
    49  H    0.108081
    50  H    0.099849
    51  H    0.120846
    52  H    0.089976
    53  H    0.095656
    54  H    0.108372
    55  H    0.113106
    56  H    0.060661
    57  H    0.078438
    58  H    0.098844
    59  H    0.094631
    60  H    0.089659
    61  H    0.094518
    62  H    0.101999
    63  H    0.100968
    64  H    0.105531
    65  H    0.095999
    66  H    0.062484
    67  H    0.121919
    68  H    0.098258
    69  H    0.105934
    70  H    0.118672
    71  H    0.106384
    72  H    0.103676
    73  H    0.085119
    74  H    0.094871
    75  H    0.100009
    76  H    0.124575
    77  H    0.100765
    78  H    0.119354
    79  H    0.124131
    80  H    0.110401
    81  H    0.059576
    82  H    0.069931
    83  H    0.075177
    84  H    0.057562
    85  H    0.074095
    86  H    0.069032
    87  H    0.073473
    88  H    0.098138
    89  H    0.118729
    90  H    0.104048
    91  H    0.090457
    92  H    0.127775
    93  H    0.081752
    94  H    0.080736
    95  H    0.084825
    96  H    0.073975
 Sum of Mulliken charges =  -0.00000

 Dipole moment (field-independent basis, Debye):
    X=              0.2162    Y=              0.1202    Z=             -0.2713  Tot=              0.3671
 Quadrupole moment (field-independent basis, Debye-Ang):
   XX=           -216.5009   YY=           -234.8877   ZZ=           -255.7441
   XY=             -6.9686   XZ=             -3.6794   YZ=             -1.1895

 Normal termination of Gaussian 16 at Thu Aug  1 00:09:21 2019.
