 Gaussian 16, Revision A.03,
 Gaussian 16:  ES64L-G16RevA.03 25-Dec-2016

 ---------------------------------
 # td=(NStates=1) B3LYP/6-31G(d,p)
 ---------------------------------

 --
 TD
 --
 Symbolic Z-matrix:
 Charge =  0 Multiplicity = 1

                         Standard orientation:
 ---------------------------------------------------------------------
 Center     Atomic      Atomic             Coordinates (Angstroms)
 Number     Number       Type             X           Y           Z
 ---------------------------------------------------------------------
      1          6           0       12.059002    0.535665   -0.697197
      2          6           0      -12.141722   -0.044574    0.828431
      3          6           0       13.417100   -0.253230   -0.445533
      4          6           0      -12.995436    1.045835    1.298594
      5          6           0       13.233589   -1.728836   -0.402901
      6          6           0      -13.418963    2.001112    0.117008
      7          6           0       11.062317    0.074552    0.325595
      8          6           0      -10.898166    0.457516   -0.037381
      9          6           0       12.255351   -2.068788    0.743512
     10          6           0      -12.183274    2.665480   -0.378006
     11          6           0       11.134892   -1.161965    0.903547
     12          6           0      -11.042837    1.679006   -0.656956
     13          6           0       11.713324    0.447323   -2.230955
     14          6           0       12.492605    1.927995   -0.436649
     15          6           0      -12.975978   -1.115451    0.108374
     16          6           0      -11.366573   -0.593837    2.148140
     17          6           0        9.835449    0.931351    0.312594
     18          6           0       -9.875081   -0.586066   -0.259632
     19          6           0       10.049202   -1.594503    2.067855
     20          6           0       -9.981795    2.222888   -1.721247
     21          6           0        8.559973    0.483084    0.257967
     22          6           0       -8.595960   -0.268101   -0.323217
     23          6           0        7.348742    1.372987    0.270725
     24          6           0       -7.389210   -1.288987   -0.403519
     25          6           0        7.535672    2.890778    0.550091
     26          6           0       -7.779151   -2.793051   -0.538179
     27          6           0        6.131519    0.799118    0.239549
     28          6           0       -6.149463   -0.813683   -0.330474
     29          6           0        4.824388    1.416301    0.291876
     30          6           0       -5.002564   -1.602045   -0.513161
     31          6           0        3.647537    0.546821    0.301493
     32          6           0       -3.768486   -1.082805   -0.423452
     33          6           0        2.342824    1.213220    0.452339
     34          6           0       -2.532726   -1.840160   -0.533772
     35          6           0        2.153068    2.617345    0.662307
     36          6           0       -2.624591   -3.332887   -0.804177
     37          6           0        1.183639    0.385776    0.272963
     38          6           0       -1.323098   -1.222797   -0.341195
     39          6           0        1.135710   -1.017384    0.035856
     40          6           0       -0.018895   -1.705592   -0.381642
     41          1           0       13.970865   -0.003944    0.344825
     42          1           0       14.107112    0.041801   -1.159555
     43          1           0      -12.520537    1.597976    2.028332
     44          1           0      -13.990091    0.683143    1.737816
     45          1           0       14.118004   -2.290866   -0.416002
     46          1           0       12.915943   -2.203336   -1.300370
     47          1           0      -14.134040    2.839235    0.456313
     48          1           0      -14.102081    1.367843   -0.417089
     49          1           0       12.852688   -2.002468    1.664140
     50          1           0       12.019055   -3.133050    0.466684
     51          1           0      -11.759325    3.500258    0.032307
     52          1           0      -12.482779    3.027643   -1.561337
     53          1           0       11.581965   -0.694110   -2.467826
     54          1           0       12.829468    0.776551   -2.867559
     55          1           0       10.963059    1.131279   -2.585388
     56          1           0       12.716430    2.057346    0.578996
     57          1           0       11.829733    2.628387   -0.944145
     58          1           0       13.480621    2.371423   -0.945022
     59          1           0      -13.416284   -0.505448   -0.590630
     60          1           0      -13.572266   -1.512009    0.800963
     61          1           0      -12.585607   -1.922911   -0.305094
     62          1           0      -10.980632    0.284599    2.536441
     63          1           0      -10.637315   -1.426970    2.100578
     64          1           0      -12.065265   -0.971638    2.739208
     65          1           0        9.980489    1.951347    0.239329
     66          1           0      -10.205564   -1.564430   -0.197980
     67          1           0        9.184071   -0.767638    2.177948
     68          1           0       10.331006   -1.910130    3.009543
     69          1           0        9.474919   -2.158371    1.533868
     70          1           0       -9.550452    1.275948   -2.028598
     71          1           0       -9.286101    3.030195   -1.374904
     72          1           0      -10.451716    2.541306   -2.687177
     73          1           0        8.367524   -0.623151    0.008079
     74          1           0       -8.346644    0.884053   -0.338108
     75          1           0        8.046779    3.016990    1.477960
     76          1           0        6.690432    3.448829    0.504384
     77          1           0        8.227624    3.414363   -0.345205
     78          1           0       -8.575174   -2.968756   -1.485003
     79          1           0       -8.351789   -3.204270    0.174127
     80          1           0       -7.156316   -3.591665   -0.538557
     81          1           0        6.391225   -0.223836    0.111234
     82          1           0       -5.998371    0.211866   -0.355525
     83          1           0        4.762051    2.436420    0.314475
     84          1           0       -5.041769   -2.600222   -0.677406
     85          1           0        3.735280   -0.533312    0.171068
     86          1           0       -3.500887    0.079453   -0.360309
     87          1           0        2.833658    2.979346    1.558871
     88          1           0        1.212232    2.955149    0.835775
     89          1           0        2.676881    3.200497   -0.315593
     90          1           0       -2.845815   -3.554061   -1.835547
     91          1           0       -3.390488   -3.781238   -0.035059
     92          1           0       -1.549410   -3.790934   -0.611647
     93          1           0        0.277612    1.104194    0.305667
     94          1           0       -1.374780   -0.142553   -0.335315
     95          1           0        2.029355   -1.504569   -0.141620
     96          1           0       -0.046181   -2.848024   -0.662774
 ---------------------------------------------------------------------

 SCF Done:  E(RB3LYP) =  -1557.52315077     A.U. after   15 cycles

 Excitation energies and oscillator strengths:

 Excited State   1:      Singlet-A      2.1624 eV  573.37 nm  f=2.9380  <S**2>=0.000
     148 ->149         0.70780
     148 <-149        -0.11795
 This state for optimization and/or second-order correction.
 Total Energy, E(TD-HF/TD-DFT) =  -1557.44368513
 Copying the excited state density for this state as the 1-particle RhoCI density.

 The electronic state is 1-A.
 Alpha  occ. eigenvalues --  -10.20998 -10.20331 -10.20145 -10.19835 -10.19815
 Alpha  occ. eigenvalues --  -10.19763 -10.19761 -10.19749 -10.19738 -10.19699
 Alpha  occ. eigenvalues --  -10.19667 -10.19612 -10.19512 -10.19487 -10.19315
 Alpha  occ. eigenvalues --  -10.19289 -10.19240 -10.19200 -10.19190 -10.19138
 Alpha  occ. eigenvalues --  -10.18571 -10.18514 -10.18474 -10.18458 -10.18338
 Alpha  occ. eigenvalues --  -10.18139 -10.17806 -10.17790 -10.17697 -10.17691
 Alpha  occ. eigenvalues --  -10.17680 -10.17622 -10.17557 -10.17024 -10.16755
 Alpha  occ. eigenvalues --  -10.16704 -10.16171 -10.15138 -10.15046 -10.14497
 Alpha  occ. eigenvalues --   -0.85069  -0.84752  -0.83654  -0.82824  -0.81782
 Alpha  occ. eigenvalues --   -0.81085  -0.78924  -0.78337  -0.77787  -0.77601
 Alpha  occ. eigenvalues --   -0.77008  -0.74627  -0.74038  -0.72125  -0.71632
 Alpha  occ. eigenvalues --   -0.70504  -0.70372  -0.69108  -0.68777  -0.68305
 Alpha  occ. eigenvalues --   -0.67123  -0.67075  -0.66817  -0.66511  -0.65960
 Alpha  occ. eigenvalues --   -0.63108  -0.61837  -0.60550  -0.59892  -0.57443
 Alpha  occ. eigenvalues --   -0.56599  -0.55653  -0.55501  -0.54677  -0.53714
 Alpha  occ. eigenvalues --   -0.52920  -0.51757  -0.50362  -0.50258  -0.48827
 Alpha  occ. eigenvalues --   -0.48784  -0.47522  -0.47483  -0.46623  -0.46601
 Alpha  occ. eigenvalues --   -0.45473  -0.45075  -0.44873  -0.44445  -0.44096
 Alpha  occ. eigenvalues --   -0.43791  -0.43573  -0.43379  -0.42816  -0.42511
 Alpha  occ. eigenvalues --   -0.42303  -0.41995  -0.41628  -0.41591  -0.41430
 Alpha  occ. eigenvalues --   -0.40753  -0.40350  -0.40117  -0.39645  -0.39486
 Alpha  occ. eigenvalues --   -0.39385  -0.39242  -0.38821  -0.38614  -0.38393
 Alpha  occ. eigenvalues --   -0.37993  -0.37584  -0.36989  -0.36800  -0.36601
 Alpha  occ. eigenvalues --   -0.36557  -0.36289  -0.35701  -0.35535  -0.35432
 Alpha  occ. eigenvalues --   -0.35017  -0.34795  -0.34236  -0.34200  -0.34012
 Alpha  occ. eigenvalues --   -0.33599  -0.33283  -0.32947  -0.32758  -0.32571
 Alpha  occ. eigenvalues --   -0.32464  -0.32019  -0.31432  -0.31029  -0.30978
 Alpha  occ. eigenvalues --   -0.30335  -0.29372  -0.29203  -0.28531  -0.28044
 Alpha  occ. eigenvalues --   -0.27290  -0.26395  -0.26091  -0.24271  -0.22656
 Alpha  occ. eigenvalues --   -0.20977  -0.19209  -0.16235
 Alpha virt. eigenvalues --   -0.08316  -0.04580  -0.01695   0.00403   0.02527
 Alpha virt. eigenvalues --    0.04520   0.06144   0.07237   0.07313   0.07425
 Alpha virt. eigenvalues --    0.08024   0.08270   0.08445   0.09019   0.09370

 Mulliken charges:
               1
     1  C   -0.000863
     2  C   -0.023698
     3  C   -0.159883
     4  C   -0.191864
     5  C   -0.206207
     6  C   -0.189962
     7  C    0.079100
     8  C    0.075156
     9  C   -0.224269
    10  C   -0.183474
    11  C    0.031246
    12  C    0.009751
    13  C   -0.273050
    14  C   -0.294246
    15  C   -0.292794
    16  C   -0.312192
    17  C   -0.110187
    18  C   -0.092808
    19  C   -0.360591
    20  C   -0.372000
    21  C   -0.122992
    22  C   -0.112729
    23  C    0.093925
    24  C    0.104952
    25  C   -0.361427
    26  C   -0.374744
    27  C   -0.090225
    28  C   -0.103778
    29  C   -0.102902
    30  C   -0.070598
    31  C   -0.103687
    32  C   -0.098990
    33  C    0.130003
    34  C    0.116536
    35  C   -0.366653
    36  C   -0.373261
    37  C   -0.121905
    38  C   -0.095611
    39  C   -0.084693
    40  C   -0.107126
    41  H    0.095780
    42  H    0.081641
    43  H    0.100085
    44  H    0.075979
    45  H    0.084564
    46  H    0.091641
    47  H    0.073381
    48  H    0.114665
    49  H    0.110553
    50  H    0.097120
    51  H    0.125026
    52  H    0.056146
    53  H    0.095782
    54  H    0.049166
    55  H    0.115270
    56  H    0.109427
    57  H    0.091443
    58  H    0.070001
    59  H    0.107356
    60  H    0.105323
    61  H    0.101676
    62  H    0.108871
    63  H    0.091966
    64  H    0.096761
    65  H    0.086181
    66  H    0.084871
    67  H    0.094388
    68  H    0.114902
    69  H    0.134512
    70  H    0.126166
    71  H    0.106527
    72  H    0.097800
    73  H    0.084071
    74  H    0.090273
    75  H    0.133117
    76  H    0.114343
    77  H    0.076394
    78  H    0.082567
    79  H    0.131494
    80  H    0.115541
    81  H    0.062978
    82  H    0.080613
    83  H    0.087212
    84  H    0.078748
    85  H    0.096505
    86  H    0.062355
    87  H    0.107359
    88  H    0.120728
    89  H    0.091204
    90  H    0.134985
    91  H    0.107402
    92  H    0.091820
    93  H    0.069648
    94  H    0.071249
    95  H    0.087672
    96  H    0.065490
 Sum of Mulliken charges =  -0.00000

 Dipole moment (field-independent basis, Debye):
    X=             -0.7327    Y=             -0.4287    Z=              0.0434  Tot=              0.8500
 Quadrupole moment (field-independent basis, Debye-Ang):
   XX=           -222.8321   YY=           -230.5692   ZZ=           -256.7097
   XY=              2.2874   XZ=             -1.1586   YZ=              2.4247

 Normal termination of Gaussian 16 at Fri Aug  2 00:36:34 2019.
