 Gaussian 16, Revision A.03,
 Gaussian 16:  ES64L-G16RevA.03 25-Dec-2016

 ---------------------------------
 # td=(NStates=1) B3LYP/6-31G(d,p)
 ---------------------------------

 --
 TD
 --
 Symbolic Z-matrix:
 Charge =  0 Multiplicity = 1

                         Standard orientation:
 ---------------------------------------------------------------------
 Center     Atomic      Atomic             Coordinates (Angstroms)
 Number     Number       Type             X           Y           Z
 ---------------------------------------------------------------------
      1          6           0       12.195454    0.495046   -0.596269
      2          6           0      -12.088855   -0.147885    0.972034
      3          6           0       13.502628   -0.303974   -0.604958
      4          6           0      -13.046853    1.039694    1.508673
      5          6           0       13.191856   -1.807279   -0.588156
      6          6           0      -13.509591    1.784006    0.285630
      7          6           0       11.091519   -0.111689    0.223818
      8          6           0      -11.025781    0.372225   -0.074373
      9          6           0       12.319824   -2.256009    0.568701
     10          6           0      -12.393315    2.432070   -0.526677
     11          6           0       11.261589   -1.300893    0.828269
     12          6           0      -11.198814    1.541644   -0.726965
     13          6           0       11.579494    0.559280   -2.126990
     14          6           0       12.562170    1.940994   -0.205762
     15          6           0      -13.015515   -1.251577    0.349832
     16          6           0      -11.298709   -0.711644    2.209749
     17          6           0        9.938812    0.787270    0.373804
     18          6           0       -9.873082   -0.628441   -0.320923
     19          6           0       10.217325   -1.869814    1.891124
     20          6           0      -10.309495    1.993254   -1.866809
     21          6           0        8.566175    0.392795    0.393983
     22          6           0       -8.571752   -0.284375   -0.259623
     23          6           0        7.372787    1.343128    0.410803
     24          6           0       -7.489050   -1.283423   -0.472932
     25          6           0        7.788018    2.791333    0.737501
     26          6           0       -7.959565   -2.637583   -0.878095
     27          6           0        6.165102    0.831911    0.312585
     28          6           0       -6.240042   -0.736911   -0.387654
     29          6           0        4.983610    1.409924    0.432325
     30          6           0       -4.932987   -1.385934   -0.518784
     31          6           0        3.808544    0.759605    0.163974
     32          6           0       -3.775326   -0.770693   -0.331021
     33          6           0        2.450107    1.278015    0.278760
     34          6           0       -2.592664   -1.495091   -0.568064
     35          6           0        2.209457    2.820829    0.339159
     36          6           0       -2.598604   -3.075712   -0.777508
     37          6           0        1.239610    0.601514    0.107359
     38          6           0       -1.406834   -0.879129   -0.287784
     39          6           0        1.168673   -0.795744    0.017192
     40          6           0       -0.045238   -1.460549   -0.286986
     41          1           0       14.087987   -0.115699    0.326937
     42          1           0       14.155089   -0.160417   -1.415799
     43          1           0      -12.322631    1.513171    2.391480
     44          1           0      -13.951917    0.756991    1.963993
     45          1           0       14.153110   -2.381837   -0.722765
     46          1           0       12.609972   -1.812420   -1.404828
     47          1           0      -14.373647    2.539513    0.571356
     48          1           0      -14.031897    1.209412   -0.513426
     49          1           0       12.987869   -2.276818    1.565669
     50          1           0       12.012385   -3.463742    0.840364
     51          1           0      -11.982950    3.435549   -0.066124
     52          1           0      -12.845582    2.726790   -1.466377
     53          1           0       11.262289   -0.522451   -2.332484
     54          1           0       12.353986    0.904786   -2.762563
     55          1           0       10.730959    1.167153   -2.213288
     56          1           0       12.912779    1.827439    0.712164
     57          1           0       11.880029    2.805723   -0.466573
     58          1           0       13.470160    2.421428   -0.797195
     59          1           0      -13.495845   -0.839655   -0.514311
     60          1           0      -13.832794   -1.829357    0.983357
     61          1           0      -12.346740   -2.077728    0.086027
     62          1           0      -10.550773    0.077479    2.808945
     63          1           0      -10.887491   -1.560923    1.948574
     64          1           0      -12.025441   -1.002119    3.045542
     65          1           0       10.110657    1.950700    0.328319
     66          1           0      -10.363766   -1.653074   -0.604917
     67          1           0        9.551965   -1.031084    2.079929
     68          1           0       10.821322   -2.147931    2.810698
     69          1           0        9.760411   -2.833157    1.499534
     70          1           0      -10.013551    1.069712   -2.505214
     71          1           0       -9.492826    2.664297   -1.472908
     72          1           0      -11.080611    2.745961   -2.589347
     73          1           0        8.338822   -0.688123    0.080138
     74          1           0       -8.323954    0.762698   -0.094048
     75          1           0        8.301174    2.804938    1.637992
     76          1           0        6.883949    3.612761    0.633876
     77          1           0        8.426120    3.237995   -0.084763
     78          1           0       -8.487395   -2.841102   -1.933209
     79          1           0       -8.856877   -3.128530   -0.144123
     80          1           0       -7.145924   -3.337072   -0.685968
     81          1           0        5.869915   -0.279594    0.134389
     82          1           0       -5.982786    0.295404   -0.083133
     83          1           0        5.131752    2.446926    0.571931
     84          1           0       -5.069816   -2.484907   -0.806840
     85          1           0        4.099465   -0.372936    0.110103
     86          1           0       -3.645411    0.240521   -0.049279
     87          1           0        2.799892    3.182386    1.289419
     88          1           0        1.157464    2.966862    0.545558
     89          1           0        2.709968    3.209549   -0.498911
     90          1           0       -3.265085   -3.392669   -1.757655
     91          1           0       -3.060207   -3.576355    0.121900
     92          1           0       -1.702191   -3.594095   -0.969132
     93          1           0        0.385986    0.973389    0.233422
     94          1           0       -1.348139    0.064478   -0.082119
     95          1           0        1.951586   -1.445373   -0.064180
     96          1           0        0.125066   -2.645960   -0.213795
 ---------------------------------------------------------------------

 SCF Done:  E(RB3LYP) =  -1557.54279070     A.U. after   14 cycles

 Excitation energies and oscillator strengths:

 Excited State   1:      Singlet-A      2.1768 eV  569.58 nm  f=3.1305  <S**2>=0.000
     148 ->149         0.70763
     148 <-149        -0.10509
 This state for optimization and/or second-order correction.
 Total Energy, E(TD-HF/TD-DFT) =  -1557.46279629
 Copying the excited state density for this state as the 1-particle RhoCI density.

 The electronic state is 1-A.
 Alpha  occ. eigenvalues --  -10.20911 -10.20711 -10.20671 -10.20565 -10.20476
 Alpha  occ. eigenvalues --  -10.20313 -10.20236 -10.20225 -10.20223 -10.20215
 Alpha  occ. eigenvalues --  -10.20187 -10.20151 -10.19881 -10.19874 -10.19680
 Alpha  occ. eigenvalues --  -10.19242 -10.19189 -10.19177 -10.18854 -10.18660
 Alpha  occ. eigenvalues --  -10.18545 -10.18506 -10.18475 -10.18430 -10.18419
 Alpha  occ. eigenvalues --  -10.18358 -10.18236 -10.18173 -10.18130 -10.17977
 Alpha  occ. eigenvalues --  -10.17946 -10.17934 -10.17840 -10.17778 -10.17734
 Alpha  occ. eigenvalues --  -10.17562 -10.17346 -10.17299 -10.17150 -10.16922
 Alpha  occ. eigenvalues --   -0.85655  -0.84435  -0.83848  -0.83471  -0.82131
 Alpha  occ. eigenvalues --   -0.81232  -0.78842  -0.78115  -0.77524  -0.77137
 Alpha  occ. eigenvalues --   -0.76452  -0.75531  -0.74073  -0.71474  -0.71210
 Alpha  occ. eigenvalues --   -0.69339  -0.68713  -0.68342  -0.68309  -0.67267
 Alpha  occ. eigenvalues --   -0.67231  -0.66808  -0.66618  -0.66252  -0.65708
 Alpha  occ. eigenvalues --   -0.63184  -0.61907  -0.59785  -0.58536  -0.57032
 Alpha  occ. eigenvalues --   -0.56214  -0.55970  -0.54856  -0.54483  -0.53856
 Alpha  occ. eigenvalues --   -0.53073  -0.52674  -0.51288  -0.49036  -0.48925
 Alpha  occ. eigenvalues --   -0.47777  -0.47055  -0.46434  -0.46180  -0.45548
 Alpha  occ. eigenvalues --   -0.45401  -0.44908  -0.44527  -0.44215  -0.43836
 Alpha  occ. eigenvalues --   -0.43490  -0.43202  -0.42920  -0.42448  -0.42270
 Alpha  occ. eigenvalues --   -0.41840  -0.41515  -0.41124  -0.41033  -0.40975
 Alpha  occ. eigenvalues --   -0.40318  -0.40076  -0.39732  -0.39671  -0.39570
 Alpha  occ. eigenvalues --   -0.39381  -0.38915  -0.38234  -0.38131  -0.38054
 Alpha  occ. eigenvalues --   -0.37679  -0.37530  -0.37172  -0.37158  -0.36403
 Alpha  occ. eigenvalues --   -0.35947  -0.35782  -0.35665  -0.35543  -0.35042
 Alpha  occ. eigenvalues --   -0.34735  -0.34588  -0.34390  -0.34161  -0.34003
 Alpha  occ. eigenvalues --   -0.33955  -0.33067  -0.32900  -0.32765  -0.32243
 Alpha  occ. eigenvalues --   -0.31901  -0.31602  -0.31421  -0.31239  -0.30876
 Alpha  occ. eigenvalues --   -0.30796  -0.29761  -0.29316  -0.28706  -0.28547
 Alpha  occ. eigenvalues --   -0.27920  -0.26670  -0.26367  -0.24335  -0.22730
 Alpha  occ. eigenvalues --   -0.21079  -0.19204  -0.16483
 Alpha virt. eigenvalues --   -0.08349  -0.05199  -0.01767   0.00559   0.02636
 Alpha virt. eigenvalues --    0.04352   0.05819   0.06233   0.06845   0.07134
 Alpha virt. eigenvalues --    0.07251   0.07863   0.07918   0.08392   0.08957

 Mulliken charges:
               1
     1  C   -0.034152
     2  C   -0.012540
     3  C   -0.176181
     4  C   -0.142476
     5  C   -0.205913
     6  C   -0.199131
     7  C    0.108205
     8  C    0.048794
     9  C   -0.206053
    10  C   -0.202569
    11  C    0.068431
    12  C    0.068329
    13  C   -0.308707
    14  C   -0.296657
    15  C   -0.302859
    16  C   -0.289641
    17  C   -0.145155
    18  C   -0.143716
    19  C   -0.357906
    20  C   -0.337721
    21  C   -0.121234
    22  C   -0.072302
    23  C    0.076983
    24  C    0.124772
    25  C   -0.372723
    26  C   -0.369212
    27  C   -0.079149
    28  C   -0.119758
    29  C   -0.017667
    30  C   -0.086532
    31  C   -0.143012
    32  C   -0.098790
    33  C    0.068507
    34  C    0.127739
    35  C   -0.357645
    36  C   -0.361455
    37  C   -0.067413
    38  C   -0.107307
    39  C   -0.070214
    40  C   -0.124778
    41  H    0.084983
    42  H    0.104303
    43  H    0.069790
    44  H    0.097932
    45  H    0.081860
    46  H    0.118694
    47  H    0.064108
    48  H    0.104101
    49  H    0.082448
    50  H    0.080348
    51  H    0.085423
    52  H    0.098477
    53  H    0.091845
    54  H    0.100162
    55  H    0.113074
    56  H    0.117803
    57  H    0.094954
    58  H    0.073428
    59  H    0.111628
    60  H    0.085479
    61  H    0.091536
    62  H    0.076623
    63  H    0.110218
    64  H    0.080594
    65  H    0.083474
    66  H    0.088226
    67  H    0.123452
    68  H    0.096717
    69  H    0.106153
    70  H    0.120149
    71  H    0.117729
    72  H    0.054990
    73  H    0.093155
    74  H    0.088486
    75  H    0.146719
    76  H    0.085192
    77  H    0.121334
    78  H    0.118965
    79  H    0.088910
    80  H    0.112005
    81  H    0.056107
    82  H    0.074319
    83  H    0.063592
    84  H    0.080070
    85  H    0.073474
    86  H    0.087657
    87  H    0.094917
    88  H    0.113318
    89  H    0.136816
    90  H    0.085278
    91  H    0.120689
    92  H    0.121197
    93  H    0.061122
    94  H    0.062572
    95  H    0.080619
    96  H    0.061594
 Sum of Mulliken charges =  -0.00000

 Dipole moment (field-independent basis, Debye):
    X=              1.5557    Y=              0.1055    Z=             -0.2385  Tot=              1.5774
 Quadrupole moment (field-independent basis, Debye-Ang):
   XX=           -220.6438   YY=           -235.9515   ZZ=           -257.5852
   XY=              9.5224   XZ=              3.1873   YZ=              0.9012

 Normal termination of Gaussian 16 at Tue Jul 23 06:17:46 2019.
