 Gaussian 16, Revision A.03,
 Gaussian 16:  ES64L-G16RevA.03 25-Dec-2016

 ---------------------------------
 # td=(NStates=1) B3LYP/6-31G(d,p)
 ---------------------------------

 --
 TD
 --
 Symbolic Z-matrix:
 Charge =  0 Multiplicity = 1

                         Standard orientation:
 ---------------------------------------------------------------------
 Center     Atomic      Atomic             Coordinates (Angstroms)
 Number     Number       Type             X           Y           Z
 ---------------------------------------------------------------------
      1          6           0      -12.190778   -0.599359   -0.661570
      2          6           0       12.110114   -0.053965    0.816626
      3          6           0      -13.505974    0.125341   -0.721884
      4          6           0       12.953261   -1.272882    1.292561
      5          6           0      -13.238913    1.685243   -0.653477
      6          6           0       13.339302   -2.170853    0.071820
      7          6           0      -10.978274   -0.061166    0.282373
      8          6           0       11.088980   -0.460204   -0.190917
      9          6           0      -12.551129    2.098654    0.535504
     10          6           0       12.174976   -2.603850   -0.734565
     11          6           0      -11.264085    1.197727    0.814728
     12          6           0       11.153929   -1.576915   -0.910038
     13          6           0      -11.471145   -0.635276   -2.154201
     14          6           0      -12.508857   -2.068614   -0.320727
     15          6           0       12.987204    1.070259    0.168529
     16          6           0       11.524630    0.433741    2.140870
     17          6           0       -9.816884   -0.946833    0.418798
     18          6           0        9.924340    0.495544   -0.286056
     19          6           0      -10.351102    1.877138    1.791663
     20          6           0       10.042594   -1.949130   -1.812786
     21          6           0       -8.550615   -0.551399    0.295224
     22          6           0        8.579038    0.311510   -0.325325
     23          6           0       -7.368248   -1.276073    0.459798
     24          6           0        7.598238    1.369053   -0.298099
     25          6           0       -7.633884   -2.721470    0.833255
     26          6           0        8.052574    2.836247   -0.655652
     27          6           0       -6.178978   -0.704335    0.292236
     28          6           0        6.291802    0.998656   -0.183146
     29          6           0       -4.847247   -1.343083    0.222754
     30          6           0        5.059337    1.739863   -0.195848
     31          6           0       -3.744523   -0.650496    0.089438
     32          6           0        3.794519    1.166252   -0.187582
     33          6           0       -2.381246   -1.218768    0.240633
     34          6           0        2.551171    1.930235   -0.355409
     35          6           0       -2.257133   -2.698818    0.668129
     36          6           0        2.518623    3.373033   -0.459472
     37          6           0       -1.224373   -0.488711    0.157766
     38          6           0        1.339815    1.208845   -0.254050
     39          6           0       -1.115774    0.949542   -0.125580
     40          6           0        0.024229    1.590427   -0.375969
     41          1           0      -14.109223   -0.168065    0.279716
     42          1           0      -14.197740   -0.066930   -1.650974
     43          1           0       12.441935   -1.924309    2.149498
     44          1           0       13.769657   -0.856875    2.035118
     45          1           0      -14.206869    2.253905   -0.822415
     46          1           0      -12.783992    2.043078   -1.685025
     47          1           0       14.014574   -2.991091    0.531257
     48          1           0       13.959549   -1.596224   -0.695618
     49          1           0      -13.311518    1.942053    1.364367
     50          1           0      -12.335932    3.088247    0.439445
     51          1           0       11.716152   -3.421322   -0.138436
     52          1           0       12.549170   -3.045184   -1.701414
     53          1           0      -10.909158    0.460550   -2.485869
     54          1           0      -12.092228   -1.091074   -3.078253
     55          1           0      -10.322163   -0.978692   -2.202247
     56          1           0      -13.128526   -2.245683    0.780583
     57          1           0      -11.826018   -2.882390   -0.185586
     58          1           0      -13.390297   -2.473987   -0.826364
     59          1           0       13.740119    0.465973   -0.541323
     60          1           0       13.706321    1.472689    0.746702
     61          1           0       12.698857    1.794478   -0.505827
     62          1           0       10.717679   -0.068568    2.740257
     63          1           0       11.105338    1.448122    2.277538
     64          1           0       12.386939    0.334498    2.889090
     65          1           0      -10.233212   -1.897246    0.759265
     66          1           0       10.141793    1.635423   -0.316371
     67          1           0       -9.604641    1.159900    2.290609
     68          1           0      -10.893502    2.211551    2.585433
     69          1           0       -9.678464    2.634251    1.460681
     70          1           0        9.763551   -0.791539   -2.181274
     71          1           0        9.082577   -2.574480   -1.255841
     72          1           0       10.453611   -2.685155   -2.691751
     73          1           0       -8.297837    0.585429    0.299140
     74          1           0        8.122522   -0.756657   -0.083229
     75          1           0       -8.401078   -2.750075    1.621052
     76          1           0       -6.861650   -3.485700    1.083780
     77          1           0       -8.177979   -3.066770   -0.049948
     78          1           0        8.712410    2.768291   -1.579063
     79          1           0        8.584214    3.366102    0.196368
     80          1           0        7.098635    3.398582   -0.794340
     81          1           0       -6.156275    0.291836    0.100591
     82          1           0        6.023825   -0.065086    0.126287
     83          1           0       -4.729957   -2.404143    0.605909
     84          1           0        5.309138    2.834869   -0.436134
     85          1           0       -3.577262    0.452136    0.057473
     86          1           0        3.891159    0.064476   -0.133622
     87          1           0       -3.023474   -2.961313    1.396717
     88          1           0       -1.194742   -3.051827    1.089168
     89          1           0       -2.594718   -3.482339   -0.170149
     90          1           0        2.838360    3.928522   -1.400142
     91          1           0        3.114646    3.691761    0.423371
     92          1           0        1.533669    3.863690   -0.158161
     93          1           0       -0.271019   -0.873438    0.290030
     94          1           0        1.582143    0.104474   -0.016268
     95          1           0       -2.144511    1.425499   -0.356863
     96          1           0       -0.181636    2.505109   -0.859052
 ---------------------------------------------------------------------

 SCF Done:  E(RB3LYP) =  -1557.56659355     A.U. after   14 cycles

 Excitation energies and oscillator strengths:

 Excited State   1:      Singlet-A      2.3259 eV  533.07 nm  f=2.9811  <S**2>=0.000
     148 ->149         0.69980
 This state for optimization and/or second-order correction.
 Total Energy, E(TD-HF/TD-DFT) =  -1557.48111958
 Copying the excited state density for this state as the 1-particle RhoCI density.

 The electronic state is 1-A.
 Alpha  occ. eigenvalues --  -10.21817 -10.21092 -10.20647 -10.20609 -10.20447
 Alpha  occ. eigenvalues --  -10.20436 -10.20341 -10.20227 -10.20103 -10.20039
 Alpha  occ. eigenvalues --  -10.19894 -10.19830 -10.19773 -10.19760 -10.19636
 Alpha  occ. eigenvalues --  -10.19614 -10.19510 -10.19468 -10.19429 -10.19331
 Alpha  occ. eigenvalues --  -10.19322 -10.19249 -10.19205 -10.19169 -10.19107
 Alpha  occ. eigenvalues --  -10.19002 -10.18790 -10.18498 -10.18367 -10.18284
 Alpha  occ. eigenvalues --  -10.18227 -10.18215 -10.18168 -10.18163 -10.18160
 Alpha  occ. eigenvalues --  -10.18098 -10.18009 -10.17403 -10.16762 -10.16434
 Alpha  occ. eigenvalues --   -0.85681  -0.84570  -0.83763  -0.83227  -0.82451
 Alpha  occ. eigenvalues --   -0.81683  -0.79544  -0.78968  -0.77798  -0.77325
 Alpha  occ. eigenvalues --   -0.76976  -0.75509  -0.74603  -0.72425  -0.71314
 Alpha  occ. eigenvalues --   -0.69971  -0.69101  -0.68912  -0.68322  -0.67466
 Alpha  occ. eigenvalues --   -0.67313  -0.66788  -0.66341  -0.65696  -0.64715
 Alpha  occ. eigenvalues --   -0.62923  -0.62135  -0.59488  -0.58869  -0.57167
 Alpha  occ. eigenvalues --   -0.56880  -0.56218  -0.54873  -0.53568  -0.53085
 Alpha  occ. eigenvalues --   -0.52717  -0.51692  -0.50129  -0.49396  -0.48948
 Alpha  occ. eigenvalues --   -0.48291  -0.47647  -0.47458  -0.46848  -0.46651
 Alpha  occ. eigenvalues --   -0.45300  -0.45225  -0.44658  -0.44172  -0.44041
 Alpha  occ. eigenvalues --   -0.43906  -0.43051  -0.42543  -0.42127  -0.41932
 Alpha  occ. eigenvalues --   -0.41715  -0.41468  -0.41295  -0.41196  -0.41062
 Alpha  occ. eigenvalues --   -0.40703  -0.40245  -0.39436  -0.39283  -0.39024
 Alpha  occ. eigenvalues --   -0.38844  -0.38719  -0.38610  -0.38334  -0.38197
 Alpha  occ. eigenvalues --   -0.37820  -0.37717  -0.37281  -0.37007  -0.36781
 Alpha  occ. eigenvalues --   -0.36669  -0.36266  -0.35597  -0.35207  -0.35069
 Alpha  occ. eigenvalues --   -0.34177  -0.34091  -0.33831  -0.33781  -0.33343
 Alpha  occ. eigenvalues --   -0.33010  -0.32765  -0.32608  -0.32361  -0.32253
 Alpha  occ. eigenvalues --   -0.31965  -0.31865  -0.31107  -0.31041  -0.30365
 Alpha  occ. eigenvalues --   -0.30166  -0.29767  -0.29141  -0.28744  -0.28292
 Alpha  occ. eigenvalues --   -0.28122  -0.27672  -0.26202  -0.24182  -0.23005
 Alpha  occ. eigenvalues --   -0.21454  -0.19588  -0.17151
 Alpha virt. eigenvalues --   -0.08288  -0.05278  -0.02148   0.00624   0.02372
 Alpha virt. eigenvalues --    0.03840   0.05750   0.06702   0.07189   0.07304
 Alpha virt. eigenvalues --    0.07447   0.07914   0.08512   0.09046   0.09271

 Mulliken charges:
               1
     1  C    0.062028
     2  C    0.014870
     3  C   -0.177973
     4  C   -0.181246
     5  C   -0.188637
     6  C   -0.197250
     7  C    0.040702
     8  C    0.106705
     9  C   -0.190166
    10  C   -0.208793
    11  C    0.036114
    12  C    0.080217
    13  C   -0.294771
    14  C   -0.313260
    15  C   -0.305974
    16  C   -0.305739
    17  C   -0.122513
    18  C   -0.175883
    19  C   -0.372944
    20  C   -0.324654
    21  C   -0.108394
    22  C   -0.060409
    23  C    0.172008
    24  C    0.106811
    25  C   -0.383520
    26  C   -0.373012
    27  C   -0.144110
    28  C   -0.125004
    29  C   -0.098894
    30  C   -0.072281
    31  C   -0.061378
    32  C   -0.128524
    33  C    0.106592
    34  C    0.130075
    35  C   -0.374719
    36  C   -0.390267
    37  C   -0.115792
    38  C   -0.106333
    39  C   -0.093315
    40  C   -0.089776
    41  H    0.076247
    42  H    0.093371
    43  H    0.084829
    44  H    0.082344
    45  H    0.072648
    46  H    0.083902
    47  H    0.079570
    48  H    0.094232
    49  H    0.102664
    50  H    0.114276
    51  H    0.108744
    52  H    0.096389
    53  H    0.060977
    54  H    0.086620
    55  H    0.096466
    56  H    0.040836
    57  H    0.111876
    58  H    0.107318
    59  H    0.069422
    60  H    0.111079
    61  H    0.119920
    62  H    0.100611
    63  H    0.091611
    64  H    0.078590
    65  H    0.106687
    66  H    0.075402
    67  H    0.094703
    68  H    0.116001
    69  H    0.115570
    70  H    0.105500
    71  H    0.082299
    72  H    0.071661
    73  H    0.083132
    74  H    0.073025
    75  H    0.120662
    76  H    0.103332
    77  H    0.127786
    78  H    0.125402
    79  H    0.122117
    80  H    0.107274
    81  H    0.069559
    82  H    0.064134
    83  H    0.081048
    84  H    0.068530
    85  H    0.080226
    86  H    0.091169
    87  H    0.121581
    88  H    0.098833
    89  H    0.097790
    90  H    0.118703
    91  H    0.124996
    92  H    0.109977
    93  H    0.080455
    94  H    0.068854
    95  H    0.073179
    96  H    0.085280
 Sum of Mulliken charges =  -0.00000

 Dipole moment (field-independent basis, Debye):
    X=              0.3011    Y=              0.5844    Z=              0.8553  Tot=              1.0788
 Quadrupole moment (field-independent basis, Debye-Ang):
   XX=           -231.7958   YY=           -234.5391   ZZ=           -256.6301
   XY=             -0.5347   XZ=             -2.0419   YZ=             -4.3331

 Normal termination of Gaussian 16 at Tue Jul 30 14:09:35 2019.
