 Gaussian 16, Revision A.03,
 Gaussian 16:  ES64L-G16RevA.03 25-Dec-2016

 ---------------------------------
 # td=(NStates=1) B3LYP/6-31G(d,p)
 ---------------------------------

 --
 TD
 --
 Symbolic Z-matrix:
 Charge =  0 Multiplicity = 1

                         Standard orientation:
 ---------------------------------------------------------------------
 Center     Atomic      Atomic             Coordinates (Angstroms)
 Number     Number       Type             X           Y           Z
 ---------------------------------------------------------------------
      1          6           0      -12.177665   -0.646277   -0.663051
      2          6           0       12.166236   -0.072249    0.822808
      3          6           0      -13.522612    0.201858   -0.341585
      4          6           0       12.936943   -1.276164    1.427134
      5          6           0      -13.286586    1.748415   -0.473197
      6          6           0       13.327535   -2.183217    0.236990
      7          6           0      -11.036634   -0.033888    0.117856
      8          6           0       11.044864   -0.340094   -0.202072
      9          6           0      -12.348441    2.075161    0.613724
     10          6           0       12.068803   -2.789681   -0.483259
     11          6           0      -11.130346    1.139544    0.773756
     12          6           0       11.046671   -1.588997   -0.757874
     13          6           0      -11.814766   -0.685394   -2.126977
     14          6           0      -12.524397   -2.030290   -0.134027
     15          6           0       13.066299    0.988435    0.150701
     16          6           0       11.550818    0.733610    2.045370
     17          6           0       -9.854135   -0.900075    0.453095
     18          6           0        9.902060    0.597030   -0.478548
     19          6           0      -10.191527    1.741134    1.778511
     20          6           0        9.979959   -1.933865   -1.835146
     21          6           0       -8.636118   -0.398058    0.284864
     22          6           0        8.598095    0.319658   -0.155926
     23          6           0       -7.463483   -1.146450    0.398616
     24          6           0        7.517357    1.336388   -0.366384
     25          6           0       -7.573245   -2.719613    0.594393
     26          6           0        7.881840    2.704720   -0.630368
     27          6           0       -6.185657   -0.651938    0.265006
     28          6           0        6.218740    0.905063   -0.180570
     29          6           0       -4.836545   -1.298020    0.182307
     30          6           0        4.998184    1.656888   -0.309391
     31          6           0       -3.665165   -0.672421   -0.035805
     32          6           0        3.788382    1.045556   -0.193249
     33          6           0       -2.330991   -1.185471    0.253676
     34          6           0        2.544242    1.792493   -0.322936
     35          6           0       -2.202337   -2.564761    0.644272
     36          6           0        2.660818    3.342359   -0.636520
     37          6           0       -1.211197   -0.485655    0.095937
     38          6           0        1.396026    1.121671   -0.237826
     39          6           0       -1.052494    0.964581   -0.244304
     40          6           0        0.064355    1.612459   -0.323794
     41          1           0      -13.853115   -0.154267    0.567476
     42          1           0      -14.233399   -0.151893   -1.028490
     43          1           0       12.376526   -1.690797    2.114533
     44          1           0       13.850339   -0.966303    1.958132
     45          1           0      -14.389634    2.238527   -0.561684
     46          1           0      -12.817686    2.031066   -1.282379
     47          1           0       13.975118   -3.048883    0.599706
     48          1           0       13.889775   -1.743097   -0.574300
     49          1           0      -12.985230    1.999699    1.528158
     50          1           0      -11.755099    3.061382    0.438039
     51          1           0       11.532807   -3.543020    0.065634
     52          1           0       12.343730   -3.165130   -1.256688
     53          1           0      -11.640577    0.403321   -2.443754
     54          1           0      -12.550349   -1.110368   -2.718874
     55          1           0      -10.856239   -1.162277   -2.581453
     56          1           0      -12.851328   -2.083756    0.906328
     57          1           0      -11.654067   -2.787814   -0.269568
     58          1           0      -13.319052   -2.470062   -0.902200
     59          1           0       13.649198    0.703414   -0.749029
     60          1           0       13.880870    1.257581    1.022764
     61          1           0       12.543780    1.750033   -0.128272
     62          1           0       10.675956    0.247673    2.540478
     63          1           0       11.078612    1.726223    1.896908
     64          1           0       12.376374    0.861438    2.849259
     65          1           0       -9.966976   -1.954554    0.666761
     66          1           0       10.245845    1.779040   -0.764260
     67          1           0       -9.708835    0.855798    2.336924
     68          1           0      -10.680421    2.254232    2.600791
     69          1           0       -9.154635    2.341435    1.444695
     70          1           0        9.312145   -0.975614   -2.128666
     71          1           0        9.369101   -2.694724   -1.653705
     72          1           0       10.350351   -2.253448   -3.001802
     73          1           0       -8.220510    0.489016   -0.040178
     74          1           0        8.221217   -0.675728    0.089454
     75          1           0       -8.409605   -2.830899    1.296288
     76          1           0       -6.616084   -3.205382    1.071736
     77          1           0       -7.934594   -3.257265   -0.505682
     78          1           0        8.763532    2.553433   -1.548933
     79          1           0        8.576590    3.215049    0.162576
     80          1           0        7.111646    3.429606   -0.711642
     81          1           0       -6.118123    0.273219   -0.087154
     82          1           0        6.295521   -0.242681   -0.073172
     83          1           0       -5.029592   -2.294538    0.379302
     84          1           0        5.188725    2.626410   -0.681770
     85          1           0       -3.712782    0.400690   -0.207677
     86          1           0        3.647815   -0.059154    0.130493
     87          1           0       -2.631846   -2.943555    1.616592
     88          1           0       -1.101079   -2.722313    0.901736
     89          1           0       -2.475323   -3.283436   -0.103008
     90          1           0        2.764317    3.421371   -1.817787
     91          1           0        3.456107    3.776970   -0.093005
     92          1           0        1.581680    4.106867   -0.478709
     93          1           0       -0.241400   -0.968217    0.150506
     94          1           0        1.485180    0.048918    0.109483
     95          1           0       -2.015551    1.389003   -0.616565
     96          1           0        0.096960    2.651081   -0.471569
 ---------------------------------------------------------------------

 SCF Done:  E(RB3LYP) =  -1557.52616093     A.U. after   14 cycles

 Excitation energies and oscillator strengths:

 Excited State   1:      Singlet-A      2.5234 eV  491.34 nm  f=2.8010  <S**2>=0.000
     148 ->149         0.70581
 This state for optimization and/or second-order correction.
 Total Energy, E(TD-HF/TD-DFT) =  -1557.43342865
 Copying the excited state density for this state as the 1-particle RhoCI density.

 The electronic state is 1-A.
 Alpha  occ. eigenvalues --  -10.21732 -10.20923 -10.20390 -10.20383 -10.20234
 Alpha  occ. eigenvalues --  -10.20185 -10.20182 -10.19929 -10.19789 -10.19598
 Alpha  occ. eigenvalues --  -10.19577 -10.19262 -10.19260 -10.19207 -10.19167
 Alpha  occ. eigenvalues --  -10.19128 -10.19033 -10.18932 -10.18928 -10.18817
 Alpha  occ. eigenvalues --  -10.18735 -10.18706 -10.18690 -10.18579 -10.18541
 Alpha  occ. eigenvalues --  -10.18307 -10.18299 -10.18274 -10.17893 -10.17708
 Alpha  occ. eigenvalues --  -10.17678 -10.17659 -10.17594 -10.17550 -10.17527
 Alpha  occ. eigenvalues --  -10.17468 -10.17280 -10.17249 -10.16788 -10.16668
 Alpha  occ. eigenvalues --   -0.85391  -0.84172  -0.83958  -0.83292  -0.82611
 Alpha  occ. eigenvalues --   -0.81964  -0.79337  -0.78666  -0.77859  -0.77163
 Alpha  occ. eigenvalues --   -0.76866  -0.75539  -0.74456  -0.71759  -0.71364
 Alpha  occ. eigenvalues --   -0.69421  -0.68565  -0.68447  -0.67828  -0.67676
 Alpha  occ. eigenvalues --   -0.67436  -0.67123  -0.66709  -0.66366  -0.66273
 Alpha  occ. eigenvalues --   -0.63249  -0.62078  -0.59936  -0.59590  -0.57555
 Alpha  occ. eigenvalues --   -0.56780  -0.56331  -0.55677  -0.54663  -0.53439
 Alpha  occ. eigenvalues --   -0.52169  -0.51868  -0.50491  -0.50219  -0.49869
 Alpha  occ. eigenvalues --   -0.48767  -0.47879  -0.47435  -0.46738  -0.46382
 Alpha  occ. eigenvalues --   -0.45603  -0.45218  -0.45104  -0.44208  -0.43937
 Alpha  occ. eigenvalues --   -0.43375  -0.43103  -0.42731  -0.42571  -0.42318
 Alpha  occ. eigenvalues --   -0.41970  -0.41843  -0.41604  -0.40998  -0.40500
 Alpha  occ. eigenvalues --   -0.40287  -0.40171  -0.39735  -0.39509  -0.39395
 Alpha  occ. eigenvalues --   -0.39075  -0.38828  -0.38613  -0.38179  -0.37930
 Alpha  occ. eigenvalues --   -0.37339  -0.37099  -0.36924  -0.36334  -0.36308
 Alpha  occ. eigenvalues --   -0.36154  -0.35948  -0.35781  -0.35468  -0.35346
 Alpha  occ. eigenvalues --   -0.35029  -0.34492  -0.34308  -0.33999  -0.33767
 Alpha  occ. eigenvalues --   -0.33615  -0.33428  -0.33349  -0.33193  -0.32422
 Alpha  occ. eigenvalues --   -0.32188  -0.32127  -0.31836  -0.31769  -0.31250
 Alpha  occ. eigenvalues --   -0.30641  -0.29616  -0.29378  -0.29256  -0.28768
 Alpha  occ. eigenvalues --   -0.27378  -0.27125  -0.26161  -0.24157  -0.22696
 Alpha  occ. eigenvalues --   -0.21593  -0.19279  -0.17420
 Alpha virt. eigenvalues --   -0.07435  -0.05261  -0.01382   0.00975   0.02320
 Alpha virt. eigenvalues --    0.03664   0.05182   0.06255   0.06468   0.06940
 Alpha virt. eigenvalues --    0.07349   0.07842   0.08119   0.08320   0.08974

 Mulliken charges:
               1
     1  C   -0.017910
     2  C   -0.009883
     3  C   -0.180333
     4  C   -0.151952
     5  C   -0.172307
     6  C   -0.213870
     7  C    0.086738
     8  C    0.080540
     9  C   -0.212521
    10  C   -0.180295
    11  C    0.060472
    12  C    0.029183
    13  C   -0.297919
    14  C   -0.303439
    15  C   -0.267870
    16  C   -0.314350
    17  C   -0.182681
    18  C   -0.171615
    19  C   -0.359141
    20  C   -0.355910
    21  C    0.008741
    22  C   -0.058243
    23  C    0.095058
    24  C    0.147424
    25  C   -0.361285
    26  C   -0.374195
    27  C   -0.151534
    28  C   -0.124624
    29  C   -0.044417
    30  C   -0.100018
    31  C   -0.125685
    32  C   -0.099129
    33  C    0.164068
    34  C    0.125313
    35  C   -0.391920
    36  C   -0.350544
    37  C   -0.144254
    38  C   -0.122964
    39  C   -0.086309
    40  C   -0.071315
    41  H    0.102912
    42  H    0.088496
    43  H    0.109862
    44  H    0.090857
    45  H    0.067157
    46  H    0.112223
    47  H    0.070772
    48  H    0.110059
    49  H    0.103623
    50  H    0.090578
    51  H    0.103996
    52  H    0.107013
    53  H    0.093175
    54  H    0.105282
    55  H    0.096638
    56  H    0.109228
    57  H    0.086698
    58  H    0.081882
    59  H    0.091770
    60  H    0.062479
    61  H    0.113080
    62  H    0.094823
    63  H    0.097431
    64  H    0.079698
    65  H    0.095438
    66  H    0.070116
    67  H    0.109214
    68  H    0.114046
    69  H    0.091003
    70  H    0.100005
    71  H    0.121820
    72  H    0.051892
    73  H    0.074110
    74  H    0.096020
    75  H    0.113653
    76  H    0.102329
    77  H    0.088796
    78  H    0.089878
    79  H    0.111234
    80  H    0.111260
    81  H    0.054924
    82  H    0.061725
    83  H    0.064639
    84  H    0.092934
    85  H    0.076325
    86  H    0.089218
    87  H    0.111044
    88  H    0.094147
    89  H    0.125430
    90  H    0.119766
    91  H    0.131669
    92  H    0.070568
    93  H    0.078683
    94  H    0.067353
    95  H    0.081785
    96  H    0.070135
 Sum of Mulliken charges =  -0.00000

 Dipole moment (field-independent basis, Debye):
    X=             -1.2125    Y=             -0.1971    Z=              0.1003  Tot=              1.2325
 Quadrupole moment (field-independent basis, Debye-Ang):
   XX=           -225.3258   YY=           -237.4012   ZZ=           -254.4172
   XY=              1.8983   XZ=              2.8932   YZ=             -4.1481

 Normal termination of Gaussian 16 at Sat Jul 27 14:38:00 2019.
