 Gaussian 16, Revision A.03,
 Gaussian 16:  ES64L-G16RevA.03 25-Dec-2016

 ---------------------------------
 # td=(NStates=1) B3LYP/6-31G(d,p)
 ---------------------------------

 --
 TD
 --
 Symbolic Z-matrix:
 Charge =  0 Multiplicity = 1

                         Standard orientation:
 ---------------------------------------------------------------------
 Center     Atomic      Atomic             Coordinates (Angstroms)
 Number     Number       Type             X           Y           Z
 ---------------------------------------------------------------------
      1          6           0      -12.052089   -0.624897   -0.702918
      2          6           0       12.024995   -0.090001    0.901112
      3          6           0      -13.289817    0.120083   -0.670949
      4          6           0       12.815584   -1.357735    1.364303
      5          6           0      -13.208166    1.646779   -0.658292
      6          6           0       13.269232   -2.317667    0.203326
      7          6           0      -10.967655   -0.057468    0.261035
      8          6           0       10.909959   -0.465069   -0.166287
      9          6           0      -12.369979    2.024652    0.625445
     10          6           0       12.018025   -2.769087   -0.462781
     11          6           0      -11.268618    1.150394    0.858479
     12          6           0       10.988093   -1.569680   -0.849654
     13          6           0      -11.475934   -0.578008   -2.156208
     14          6           0      -12.440180   -2.121254   -0.422649
     15          6           0       12.983070    0.950409    0.152803
     16          6           0       11.540494    0.558893    2.175429
     17          6           0       -9.858617   -0.946187    0.409654
     18          6           0        9.975944    0.625213   -0.370837
     19          6           0      -10.229475    1.608391    1.856106
     20          6           0       10.047602   -2.016442   -2.055175
     21          6           0       -8.536540   -0.508631    0.232545
     22          6           0        8.583944    0.419121   -0.428615
     23          6           0       -7.396306   -1.382968    0.395573
     24          6           0        7.445871    1.353411   -0.456138
     25          6           0       -7.489421   -2.811983    0.952969
     26          6           0        7.872488    2.767411   -0.677768
     27          6           0       -6.178952   -0.709231    0.110575
     28          6           0        6.146061    0.970135   -0.258039
     29          6           0       -4.884243   -1.289032    0.385597
     30          6           0        5.017658    1.786128   -0.330645
     31          6           0       -3.666002   -0.621399    0.160045
     32          6           0        3.708271    1.281352   -0.331407
     33          6           0       -2.403278   -1.053466    0.314663
     34          6           0        2.548228    1.950017   -0.262149
     35          6           0       -2.226735   -2.581778    0.642454
     36          6           0        2.689413    3.490360   -0.330544
     37          6           0       -1.229092   -0.342773    0.220966
     38          6           0        1.378930    1.215112   -0.296288
     39          6           0       -1.117284    1.031858   -0.121268
     40          6           0        0.108460    1.840197   -0.325265
     41          1           0      -13.856874   -0.055031    0.292595
     42          1           0      -13.962995   -0.309345   -1.432273
     43          1           0       11.973057   -2.016570    1.865684
     44          1           0       13.673348   -1.309931    2.012245
     45          1           0      -14.088855    2.271269   -0.777719
     46          1           0      -12.802195    1.918367   -1.468740
     47          1           0       13.780761   -3.168629    0.549181
     48          1           0       13.945258   -1.952193   -0.633382
     49          1           0      -13.103942    1.908660    1.454305
     50          1           0      -12.060982    3.087222    0.494306
     51          1           0       11.490035   -3.397662    0.268663
     52          1           0       12.225159   -3.635527   -1.379315
     53          1           0      -11.627841    0.593736   -2.281277
     54          1           0      -12.002199   -1.305866   -2.732687
     55          1           0      -10.436126   -0.782428   -2.146222
     56          1           0      -12.769345   -2.134395    0.539046
     57          1           0      -11.619763   -2.831934   -0.800763
     58          1           0      -13.321891   -2.359403   -1.148737
     59          1           0       13.270000    0.509895   -0.894314
     60          1           0       13.853267    1.224273    0.726336
     61          1           0       12.641099    1.793046   -0.077094
     62          1           0       10.600855   -0.002021    2.635772
     63          1           0       10.892292    1.369089    2.003877
     64          1           0       12.194088    0.684980    3.087710
     65          1           0      -10.035399   -2.034600    0.854765
     66          1           0       10.259304    1.693710   -0.393963
     67          1           0       -9.568343    0.765080    2.117735
     68          1           0      -10.677709    2.121442    2.889301
     69          1           0       -9.312778    2.222414    1.431073
     70          1           0        9.699729   -1.085387   -2.580177
     71          1           0        9.490837   -2.650976   -1.647209
     72          1           0       10.704371   -2.511769   -2.901089
     73          1           0       -8.615010    0.538479   -0.209017
     74          1           0        8.371321   -0.661975   -0.440740
     75          1           0       -8.119496   -2.959245    1.932084
     76          1           0       -6.660164   -3.403250    0.817409
     77          1           0       -8.051532   -3.151782    0.052595
     78          1           0        8.710484    2.793822   -1.466351
     79          1           0        8.398423    3.089272    0.366115
     80          1           0        7.152117    3.474838   -0.870987
     81          1           0       -6.274769    0.227308   -0.358350
     82          1           0        6.124077   -0.202735   -0.275064
     83          1           0       -4.746208   -2.283540    0.836863
     84          1           0        5.144968    2.808453   -0.247627
     85          1           0       -3.912738    0.353131   -0.191771
     86          1           0        3.584918    0.050087   -0.303492
     87          1           0       -2.668799   -2.720331    1.533638
     88          1           0       -1.156252   -2.857419    0.674219
     89          1           0       -2.768091   -2.979208   -0.336162
     90          1           0        3.312098    3.734650   -1.270489
     91          1           0        3.166014    3.929022    0.640273
     92          1           0        1.678593    4.244352   -0.373753
     93          1           0       -0.288498   -0.707304    0.508991
     94          1           0        1.429011    0.160590    0.038706
     95          1           0       -2.005550    1.564771    0.047808
     96          1           0        0.045224    2.887539   -0.367743
 ---------------------------------------------------------------------

 SCF Done:  E(RB3LYP) =  -1557.53813969     A.U. after   17 cycles

 Excitation energies and oscillator strengths:

 Excited State   1:      Singlet-A      1.8335 eV  676.23 nm  f=3.2922  <S**2>=0.000
     148 ->149         0.71898
     148 <-149        -0.17369
 This state for optimization and/or second-order correction.
 Total Energy, E(TD-HF/TD-DFT) =  -1557.47076116
 Copying the excited state density for this state as the 1-particle RhoCI density.

 The electronic state is 1-A.
 Alpha  occ. eigenvalues --  -10.21601 -10.21567 -10.20805 -10.19971 -10.19941
 Alpha  occ. eigenvalues --  -10.19782 -10.19753 -10.19707 -10.19634 -10.19563
 Alpha  occ. eigenvalues --  -10.19490 -10.19418 -10.19376 -10.19321 -10.19204
 Alpha  occ. eigenvalues --  -10.19181 -10.19146 -10.19096 -10.19050 -10.19014
 Alpha  occ. eigenvalues --  -10.18866 -10.18803 -10.18773 -10.18761 -10.18546
 Alpha  occ. eigenvalues --  -10.18513 -10.18430 -10.18410 -10.18404 -10.18386
 Alpha  occ. eigenvalues --  -10.18315 -10.18007 -10.17615 -10.17363 -10.17279
 Alpha  occ. eigenvalues --  -10.17202 -10.17111 -10.16674 -10.16390 -10.15836
 Alpha  occ. eigenvalues --   -0.85804  -0.84217  -0.83997  -0.83580  -0.82186
 Alpha  occ. eigenvalues --   -0.81606  -0.79017  -0.78503  -0.77773  -0.77076
 Alpha  occ. eigenvalues --   -0.76966  -0.75275  -0.73833  -0.72246  -0.71594
 Alpha  occ. eigenvalues --   -0.70197  -0.69334  -0.68548  -0.67956  -0.67656
 Alpha  occ. eigenvalues --   -0.67375  -0.67139  -0.66669  -0.65896  -0.65706
 Alpha  occ. eigenvalues --   -0.63877  -0.62432  -0.60908  -0.59142  -0.57213
 Alpha  occ. eigenvalues --   -0.56785  -0.55611  -0.54590  -0.54041  -0.53101
 Alpha  occ. eigenvalues --   -0.52375  -0.51714  -0.51322  -0.49988  -0.49537
 Alpha  occ. eigenvalues --   -0.48291  -0.47839  -0.47192  -0.46258  -0.46092
 Alpha  occ. eigenvalues --   -0.45596  -0.44914  -0.44647  -0.44361  -0.44202
 Alpha  occ. eigenvalues --   -0.43869  -0.43445  -0.43325  -0.42888  -0.42761
 Alpha  occ. eigenvalues --   -0.42485  -0.42185  -0.42010  -0.41660  -0.41368
 Alpha  occ. eigenvalues --   -0.40721  -0.40162  -0.40049  -0.39789  -0.38979
 Alpha  occ. eigenvalues --   -0.38608  -0.38524  -0.38459  -0.38223  -0.38061
 Alpha  occ. eigenvalues --   -0.37809  -0.37787  -0.37109  -0.36874  -0.36599
 Alpha  occ. eigenvalues --   -0.36300  -0.36056  -0.35907  -0.35361  -0.35227
 Alpha  occ. eigenvalues --   -0.34785  -0.34592  -0.34212  -0.33944  -0.33803
 Alpha  occ. eigenvalues --   -0.33489  -0.33137  -0.32852  -0.32706  -0.32684
 Alpha  occ. eigenvalues --   -0.32331  -0.31929  -0.31486  -0.31113  -0.30721
 Alpha  occ. eigenvalues --   -0.29867  -0.29778  -0.29411  -0.28797  -0.28347
 Alpha  occ. eigenvalues --   -0.28049  -0.27061  -0.26095  -0.24319  -0.22681
 Alpha  occ. eigenvalues --   -0.21453  -0.19012  -0.15531
 Alpha virt. eigenvalues --   -0.09503  -0.05577  -0.01807   0.00419   0.02392
 Alpha virt. eigenvalues --    0.04106   0.05576   0.06869   0.07437   0.07822
 Alpha virt. eigenvalues --    0.07924   0.08043   0.08402   0.08620   0.08779

 Mulliken charges:
               1
     1  C   -0.004319
     2  C    0.019538
     3  C   -0.175848
     4  C   -0.180456
     5  C   -0.191729
     6  C   -0.174868
     7  C    0.046201
     8  C    0.074990
     9  C   -0.247333
    10  C   -0.208752
    11  C    0.115733
    12  C    0.021487
    13  C   -0.286640
    14  C   -0.300709
    15  C   -0.293651
    16  C   -0.308197
    17  C   -0.147363
    18  C   -0.139912
    19  C   -0.367279
    20  C   -0.338541
    21  C   -0.098474
    22  C   -0.112398
    23  C    0.080434
    24  C    0.127469
    25  C   -0.361588
    26  C   -0.370334
    27  C   -0.115100
    28  C   -0.109763
    29  C   -0.095463
    30  C   -0.099034
    31  C   -0.098961
    32  C   -0.112177
    33  C    0.087187
    34  C    0.159490
    35  C   -0.358986
    36  C   -0.371453
    37  C   -0.110349
    38  C   -0.117503
    39  C   -0.105153
    40  C   -0.100780
    41  H    0.075739
    42  H    0.079710
    43  H    0.082675
    44  H    0.093175
    45  H    0.082886
    46  H    0.110370
    47  H    0.093366
    48  H    0.090827
    49  H    0.114855
    50  H    0.106328
    51  H    0.105279
    52  H    0.046833
    53  H    0.080209
    54  H    0.097833
    55  H    0.106915
    56  H    0.113311
    57  H    0.091533
    58  H    0.080964
    59  H    0.084402
    60  H    0.093252
    61  H    0.112950
    62  H    0.075099
    63  H    0.104623
    64  H    0.105501
    65  H    0.088100
    66  H    0.087365
    67  H    0.122559
    68  H    0.073796
    69  H    0.090375
    70  H    0.117585
    71  H    0.134584
    72  H    0.088005
    73  H    0.099885
    74  H    0.072302
    75  H    0.123987
    76  H    0.126941
    77  H    0.132131
    78  H    0.113171
    79  H    0.096939
    80  H    0.113447
    81  H    0.086723
    82  H    0.069845
    83  H    0.078914
    84  H    0.086478
    85  H    0.071304
    86  H    0.057348
    87  H    0.134859
    88  H    0.105586
    89  H    0.111435
    90  H    0.122845
    91  H    0.120626
    92  H    0.079772
    93  H    0.077226
    94  H    0.088645
    95  H    0.082786
    96  H    0.086387
 Sum of Mulliken charges =  -0.00000

 Dipole moment (field-independent basis, Debye):
    X=             -1.3694    Y=              0.0094    Z=              0.6813  Tot=              1.5295
 Quadrupole moment (field-independent basis, Debye-Ang):
   XX=           -236.4830   YY=           -233.7290   ZZ=           -255.5426
   XY=              3.6051   XZ=              2.2863   YZ=             -2.9004

 Normal termination of Gaussian 16 at Wed Jul 31 10:53:54 2019.
