 Gaussian 16, Revision A.03,
 Gaussian 16:  ES64L-G16RevA.03 25-Dec-2016

 ---------------------------------
 # td=(NStates=1) B3LYP/6-31G(d,p)
 ---------------------------------

 --
 TD
 --
 Symbolic Z-matrix:
 Charge =  0 Multiplicity = 1

                         Standard orientation:
 ---------------------------------------------------------------------
 Center     Atomic      Atomic             Coordinates (Angstroms)
 Number     Number       Type             X           Y           Z
 ---------------------------------------------------------------------
      1          6           0       12.170468    0.531329   -0.646125
      2          6           0      -12.178478    0.045948    0.991264
      3          6           0       13.544296   -0.259190   -0.377960
      4          6           0      -12.955164    1.291027    1.345504
      5          6           0       13.190372   -1.860504   -0.314832
      6          6           0      -13.409095    2.197875    0.169734
      7          6           0       11.100274    0.103685    0.266543
      8          6           0      -10.990825    0.432374   -0.004662
      9          6           0       12.326948   -2.142781    0.888712
     10          6           0      -12.047032    2.534947   -0.624892
     11          6           0       11.203045   -1.156932    0.943835
     12          6           0      -11.074816    1.482361   -0.722535
     13          6           0       11.786307    0.380849   -2.068818
     14          6           0       12.570138    1.934827   -0.392871
     15          6           0      -13.038743   -1.064652    0.337979
     16          6           0      -11.476610   -0.524713    2.293731
     17          6           0        9.855022    0.888398    0.428303
     18          6           0       -9.976541   -0.692655   -0.127122
     19          6           0       10.158759   -1.656266    2.065352
     20          6           0      -10.059217    1.775422   -1.872249
     21          6           0        8.533124    0.482926    0.315465
     22          6           0       -8.667822   -0.349184   -0.147638
     23          6           0        7.350156    1.316156    0.335515
     24          6           0       -7.576369   -1.377721   -0.279370
     25          6           0        7.563193    2.832319    0.614707
     26          6           0       -7.895944   -2.753225   -0.457503
     27          6           0        6.081819    0.700093    0.268464
     28          6           0       -6.238323   -0.908748   -0.251816
     29          6           0        4.813411    1.377904    0.412325
     30          6           0       -5.083364   -1.645375   -0.483033
     31          6           0        3.689731    0.767849    0.209231
     32          6           0       -3.781862   -1.126741   -0.558684
     33          6           0        2.347848    1.336048    0.112726
     34          6           0       -2.539230   -1.775108   -0.755176
     35          6           0        2.229140    2.928287    0.481035
     36          6           0       -2.583832   -3.274316   -0.817391
     37          6           0        1.210683    0.537824   -0.133464
     38          6           0       -1.290958   -1.125123   -0.438869
     39          6           0        1.140469   -0.854014   -0.411259
     40          6           0       -0.037343   -1.557377   -0.654773
     41          1           0       13.982473   -0.047663    0.327466
     42          1           0       14.143476   -0.064977   -1.156221
     43          1           0      -12.563997    1.892760    2.093003
     44          1           0      -14.013636    1.040966    1.777574
     45          1           0       14.245501   -2.392814   -0.406487
     46          1           0       12.521619   -2.076929   -1.143045
     47          1           0      -14.177501    3.041057    0.508222
     48          1           0      -14.063870    1.517007   -0.392842
     49          1           0       13.055090   -2.226752    1.932037
     50          1           0       11.783856   -2.975469    0.598560
     51          1           0      -11.515651    3.321239   -0.012185
     52          1           0      -12.381133    2.960218   -1.756452
     53          1           0       11.577970   -0.727931   -2.161260
     54          1           0       12.535947    0.995347   -2.851319
     55          1           0       10.743441    0.919493   -2.197135
     56          1           0       12.878910    2.305511    0.633718
     57          1           0       11.971320    2.757253   -0.756929
     58          1           0       13.384160    2.161296   -1.100266
     59          1           0      -13.706181   -0.482015   -0.517841
     60          1           0      -13.659969   -1.604637    1.215998
     61          1           0      -12.302662   -1.926554    0.145164
     62          1           0      -10.438019   -0.021171    2.554693
     63          1           0      -11.026401   -1.684067    2.085319
     64          1           0      -12.345884   -0.702353    3.117701
     65          1           0       10.325228    1.853819    0.485151
     66          1           0      -10.359497   -1.784850    0.086378
     67          1           0        9.448177   -0.834141    2.448278
     68          1           0       10.851771   -2.300397    2.723768
     69          1           0        9.544117   -2.383568    1.658924
     70          1           0       -9.491966    0.836199   -1.955830
     71          1           0       -9.367472    2.648858   -1.642224
     72          1           0      -10.533053    2.010370   -2.800856
     73          1           0        8.528857   -0.659212    0.055338
     74          1           0       -8.513659    0.615633   -0.007556
     75          1           0        8.501537    2.924999    1.301667
     76          1           0        6.578653    3.169822    0.691540
     77          1           0        7.736663    3.223976   -0.500161
     78          1           0       -8.464415   -2.921893   -1.167789
     79          1           0       -8.427896   -3.172869    0.368442
     80          1           0       -6.959171   -3.291546   -0.573303
     81          1           0        6.223111   -0.331086   -0.280680
     82          1           0       -5.924291    0.220676   -0.100761
     83          1           0        4.972276    2.513774    0.853823
     84          1           0       -5.191305   -2.754336   -0.709767
     85          1           0        3.785844   -0.158852   -0.087301
     86          1           0       -3.841649    0.006542   -0.333533
     87          1           0        2.546201    3.023194    1.594022
     88          1           0        1.230744    3.410156    0.350124
     89          1           0        2.730780    3.640875   -0.296738
     90          1           0       -3.269620   -3.639627   -1.423694
     91          1           0       -2.793663   -3.856637    0.127661
     92          1           0       -1.477473   -3.759150   -1.120574
     93          1           0        0.213950    1.061781   -0.066441
     94          1           0       -1.274446    0.010328   -0.354314
     95          1           0        2.123949   -1.320516   -0.575457
     96          1           0        0.137043   -2.624067   -0.921888
 ---------------------------------------------------------------------

 SCF Done:  E(RB3LYP) =  -1557.43364815     A.U. after   16 cycles

 Excitation energies and oscillator strengths:

 Excited State   1:      Singlet-A      1.9397 eV  639.18 nm  f=3.2337  <S**2>=0.000
     147 ->149         0.11391
     148 ->149         0.70655
     148 <-149        -0.14933
 This state for optimization and/or second-order correction.
 Total Energy, E(TD-HF/TD-DFT) =  -1557.36236419
 Copying the excited state density for this state as the 1-particle RhoCI density.

 The electronic state is 1-A.
 Alpha  occ. eigenvalues --  -10.21385 -10.20873 -10.20785 -10.20706 -10.20667
 Alpha  occ. eigenvalues --  -10.20477 -10.20452 -10.20445 -10.20158 -10.20016
 Alpha  occ. eigenvalues --  -10.19888 -10.19884 -10.19784 -10.19774 -10.19757
 Alpha  occ. eigenvalues --  -10.19748 -10.19589 -10.19448 -10.19441 -10.19418
 Alpha  occ. eigenvalues --  -10.19357 -10.19355 -10.19331 -10.19201 -10.19075
 Alpha  occ. eigenvalues --  -10.18940 -10.18903 -10.18700 -10.18591 -10.18589
 Alpha  occ. eigenvalues --  -10.18129 -10.18058 -10.18053 -10.17945 -10.17618
 Alpha  occ. eigenvalues --  -10.17318 -10.17299 -10.17114 -10.16149 -10.14803
 Alpha  occ. eigenvalues --   -0.85441  -0.85345  -0.83537  -0.83113  -0.82363
 Alpha  occ. eigenvalues --   -0.80787  -0.79339  -0.79140  -0.78398  -0.77345
 Alpha  occ. eigenvalues --   -0.76565  -0.75398  -0.73925  -0.72818  -0.71604
 Alpha  occ. eigenvalues --   -0.69788  -0.68640  -0.68561  -0.68045  -0.67847
 Alpha  occ. eigenvalues --   -0.67507  -0.67064  -0.66564  -0.65557  -0.65369
 Alpha  occ. eigenvalues --   -0.62919  -0.61716  -0.59855  -0.59037  -0.57232
 Alpha  occ. eigenvalues --   -0.56565  -0.55907  -0.55092  -0.53995  -0.53549
 Alpha  occ. eigenvalues --   -0.52747  -0.51862  -0.50681  -0.50292  -0.48733
 Alpha  occ. eigenvalues --   -0.48244  -0.47534  -0.46754  -0.46252  -0.45878
 Alpha  occ. eigenvalues --   -0.45385  -0.45198  -0.44710  -0.44175  -0.43951
 Alpha  occ. eigenvalues --   -0.43587  -0.42959  -0.42851  -0.42783  -0.42420
 Alpha  occ. eigenvalues --   -0.41982  -0.41548  -0.41286  -0.41141  -0.40785
 Alpha  occ. eigenvalues --   -0.40586  -0.40132  -0.39813  -0.39515  -0.39394
 Alpha  occ. eigenvalues --   -0.39302  -0.38347  -0.38271  -0.38043  -0.37743
 Alpha  occ. eigenvalues --   -0.37690  -0.37567  -0.36960  -0.36906  -0.36672
 Alpha  occ. eigenvalues --   -0.35692  -0.35612  -0.35545  -0.35392  -0.34937
 Alpha  occ. eigenvalues --   -0.34907  -0.34491  -0.34260  -0.34132  -0.33766
 Alpha  occ. eigenvalues --   -0.33510  -0.33327  -0.33024  -0.32777  -0.32557
 Alpha  occ. eigenvalues --   -0.32495  -0.32236  -0.31943  -0.31562  -0.30925
 Alpha  occ. eigenvalues --   -0.30643  -0.30426  -0.29766  -0.29157  -0.28614
 Alpha  occ. eigenvalues --   -0.27188  -0.26931  -0.26356  -0.24493  -0.23020
 Alpha  occ. eigenvalues --   -0.21354  -0.18877  -0.15804
 Alpha virt. eigenvalues --   -0.09149  -0.05332  -0.02112   0.00585   0.02335
 Alpha virt. eigenvalues --    0.03763   0.05565   0.06338   0.06705   0.06917
 Alpha virt. eigenvalues --    0.07269   0.07401   0.07727   0.08462   0.08627

 Mulliken charges:
               1
     1  C   -0.017985
     2  C    0.019110
     3  C   -0.109477
     4  C   -0.183498
     5  C   -0.219745
     6  C   -0.195452
     7  C    0.046958
     8  C    0.069191
     9  C   -0.189832
    10  C   -0.212024
    11  C    0.021620
    12  C    0.070877
    13  C   -0.271837
    14  C   -0.325104
    15  C   -0.273840
    16  C   -0.289198
    17  C   -0.114811
    18  C   -0.139008
    19  C   -0.361695
    20  C   -0.362296
    21  C   -0.100482
    22  C   -0.074732
    23  C    0.076099
    24  C    0.078459
    25  C   -0.341863
    26  C   -0.360818
    27  C   -0.123297
    28  C   -0.111548
    29  C   -0.071726
    30  C   -0.065250
    31  C   -0.079578
    32  C   -0.116829
    33  C    0.068908
    34  C    0.089130
    35  C   -0.364174
    36  C   -0.360329
    37  C   -0.118337
    38  C   -0.095576
    39  C   -0.084313
    40  C   -0.075467
    41  H    0.083666
    42  H    0.087635
    43  H    0.107004
    44  H    0.066439
    45  H    0.070858
    46  H    0.096387
    47  H    0.081930
    48  H    0.096345
    49  H    0.077469
    50  H    0.123241
    51  H    0.112149
    52  H    0.068520
    53  H    0.099683
    54  H    0.077004
    55  H    0.093252
    56  H    0.098588
    57  H    0.096735
    58  H    0.089968
    59  H    0.094971
    60  H    0.081823
    61  H    0.098023
    62  H    0.109574
    63  H    0.052249
    64  H    0.086889
    65  H    0.083912
    66  H    0.081243
    67  H    0.118557
    68  H    0.097302
    69  H    0.123427
    70  H    0.119900
    71  H    0.098745
    72  H    0.109195
    73  H    0.082939
    74  H    0.092446
    75  H    0.127068
    76  H    0.113356
    77  H    0.109874
    78  H    0.135996
    79  H    0.120723
    80  H    0.105355
    81  H    0.076855
    82  H    0.070037
    83  H    0.080111
    84  H    0.068105
    85  H    0.070310
    86  H    0.064360
    87  H    0.120736
    88  H    0.106346
    89  H    0.107519
    90  H    0.128453
    91  H    0.120584
    92  H    0.075449
    93  H    0.078287
    94  H    0.072943
    95  H    0.085085
    96  H    0.074155
 Sum of Mulliken charges =  -0.00000

 Dipole moment (field-independent basis, Debye):
    X=             -0.1324    Y=              0.1226    Z=             -0.2826  Tot=              0.3353
 Quadrupole moment (field-independent basis, Debye-Ang):
   XX=           -218.4508   YY=           -234.7788   ZZ=           -258.9748
   XY=              3.2777   XZ=             -3.9107   YZ=              1.8168

 Normal termination of Gaussian 16 at Wed Jul 31 06:24:39 2019.
