 Gaussian 16, Revision A.03,
 Gaussian 16:  ES64L-G16RevA.03 25-Dec-2016

 ---------------------------------
 # td=(NStates=1) B3LYP/6-31G(d,p)
 ---------------------------------

 --
 TD
 --
 Symbolic Z-matrix:
 Charge =  0 Multiplicity = 1

                         Standard orientation:
 ---------------------------------------------------------------------
 Center     Atomic      Atomic             Coordinates (Angstroms)
 Number     Number       Type             X           Y           Z
 ---------------------------------------------------------------------
      1          6           0      -12.122434   -0.578417   -0.640823
      2          6           0       12.139590    0.017083    0.771093
      3          6           0      -13.468204    0.180398   -0.634113
      4          6           0       12.987852   -1.210915    1.346913
      5          6           0      -13.172239    1.716296   -0.552656
      6          6           0       13.354508   -2.072297    0.245991
      7          6           0      -11.048204   -0.028455    0.288041
      8          6           0       10.987224   -0.423764   -0.153414
      9          6           0      -12.296917    2.169107    0.641524
     10          6           0       12.149196   -2.666549   -0.471784
     11          6           0      -11.120821    1.185067    0.710254
     12          6           0       11.058189   -1.695106   -0.672373
     13          6           0      -11.588481   -0.631621   -2.202765
     14          6           0      -12.514657   -2.013402   -0.257423
     15          6           0       13.027917    1.002465    0.150549
     16          6           0       11.540352    0.767417    2.071075
     17          6           0       -9.846983   -0.936532    0.471677
     18          6           0        9.850612    0.579081   -0.328243
     19          6           0      -10.135584    1.718684    1.778427
     20          6           0       10.064523   -2.069791   -1.760906
     21          6           0       -8.608554   -0.437139    0.340349
     22          6           0        8.543782    0.239254   -0.330325
     23          6           0       -7.354475   -1.237283    0.424590
     24          6           0        7.463297    1.315278   -0.496326
     25          6           0       -7.580820   -2.767050    0.753354
     26          6           0        7.953273    2.660769   -0.816268
     27          6           0       -6.121831   -0.757506    0.173003
     28          6           0        6.222594    0.934950   -0.290563
     29          6           0       -4.877402   -1.426057    0.270772
     30          6           0        5.007198    1.650043   -0.404647
     31          6           0       -3.717836   -0.700014    0.254677
     32          6           0        3.676300    1.070585   -0.284323
     33          6           0       -2.324405   -1.145659    0.336618
     34          6           0        2.452316    1.805512   -0.253052
     35          6           0       -2.197979   -2.622975    0.497103
     36          6           0        2.512300    3.345006   -0.450132
     37          6           0       -1.261301   -0.421419    0.169860
     38          6           0        1.310433    1.210782   -0.119026
     39          6           0       -1.152441    0.918707   -0.194537
     40          6           0       -0.030559    1.694133   -0.272720
     41          1           0      -14.069188   -0.336936    0.151580
     42          1           0      -14.123020    0.065644   -1.419481
     43          1           0       12.408017   -1.739228    2.169493
     44          1           0       13.843446   -0.754980    1.867709
     45          1           0      -14.081344    2.416137   -0.676268
     46          1           0      -12.463865    1.772880   -1.351595
     47          1           0       13.933458   -3.076205    0.572150
     48          1           0       13.851887   -1.554049   -0.628745
     49          1           0      -12.861770    2.139790    1.629200
     50          1           0      -11.919525    3.146366    0.312017
     51          1           0       11.518493   -3.446286    0.043393
     52          1           0       12.333120   -3.120663   -1.496224
     53          1           0      -11.289094    0.299711   -2.800516
     54          1           0      -12.112348   -1.072199   -2.947158
     55          1           0      -10.823200   -1.231885   -2.211317
     56          1           0      -12.827165   -2.057193    0.589451
     57          1           0      -11.445604   -2.555048   -0.375296
     58          1           0      -13.462925   -2.353607   -0.676511
     59          1           0       13.422028    0.861210   -0.825596
     60          1           0       13.944945    1.226620    0.770927
     61          1           0       12.603299    2.148385   -0.198975
     62          1           0       11.071627    0.156069    2.765331
     63          1           0       11.062749    1.756021    1.877264
     64          1           0       12.595600    0.996871    2.663223
     65          1           0      -10.062550   -2.025519    0.810306
     66          1           0       10.028614    1.518679   -0.388037
     67          1           0       -9.449239    1.025501    2.432623
     68          1           0      -10.459910    2.108813    2.734945
     69          1           0       -9.575493    2.672946    1.480556
     70          1           0        9.415517   -1.175997   -2.135758
     71          1           0        9.239433   -2.866519   -1.385045
     72          1           0       10.669760   -2.394452   -2.747897
     73          1           0       -8.467138    0.635042    0.204320
     74          1           0        8.266031   -0.756389    0.012498
     75          1           0       -7.995731   -3.083440    1.766366
     76          1           0       -6.484617   -3.322802    0.827831
     77          1           0       -8.433445   -3.176299    0.084902
     78          1           0        8.629540    2.573317   -1.801747
     79          1           0        8.533029    3.066904    0.154270
     80          1           0        7.095977    3.323973   -0.958836
     81          1           0       -6.022207    0.211559   -0.263441
     82          1           0        5.983365   -0.076206   -0.446405
     83          1           0       -5.005892   -2.390152    0.495325
     84          1           0        4.893607    2.746425   -0.606925
     85          1           0       -3.796078    0.445174    0.187001
     86          1           0        3.639681   -0.018091   -0.262618
     87          1           0       -2.683361   -3.256460    1.610515
     88          1           0       -1.251113   -3.136628    0.338428
     89          1           0       -2.856142   -2.964048   -0.381791
     90          1           0        2.827358    3.556802   -1.402812
     91          1           0        3.161547    3.849143    0.200032
     92          1           0        1.454144    3.845112   -0.275094
     93          1           0       -0.293085   -0.983202    0.233531
     94          1           0        1.316827    0.118928    0.019127
     95          1           0       -2.088828    1.533946   -0.432548
     96          1           0        0.104817    2.674516   -0.564395
 ---------------------------------------------------------------------

 SCF Done:  E(RB3LYP) =  -1557.51186317     A.U. after   14 cycles

 Excitation energies and oscillator strengths:

 Excited State   1:      Singlet-A      2.3683 eV  523.52 nm  f=2.8865  <S**2>=0.000
     148 ->149         0.70298
 This state for optimization and/or second-order correction.
 Total Energy, E(TD-HF/TD-DFT) =  -1557.42483013
 Copying the excited state density for this state as the 1-particle RhoCI density.

 The electronic state is 1-A.
 Alpha  occ. eigenvalues --  -10.20661 -10.20398 -10.20360 -10.20327 -10.20264
 Alpha  occ. eigenvalues --  -10.20261 -10.19779 -10.19726 -10.19712 -10.19687
 Alpha  occ. eigenvalues --  -10.19557 -10.19552 -10.19532 -10.19494 -10.19434
 Alpha  occ. eigenvalues --  -10.19427 -10.18866 -10.18771 -10.18765 -10.18755
 Alpha  occ. eigenvalues --  -10.18743 -10.18735 -10.18679 -10.18504 -10.18481
 Alpha  occ. eigenvalues --  -10.18476 -10.18408 -10.18382 -10.18297 -10.18257
 Alpha  occ. eigenvalues --  -10.18112 -10.17955 -10.17914 -10.17743 -10.17614
 Alpha  occ. eigenvalues --  -10.17479 -10.17453 -10.16890 -10.16160 -10.15145
 Alpha  occ. eigenvalues --   -0.85126  -0.85069  -0.84558  -0.83580  -0.82768
 Alpha  occ. eigenvalues --   -0.81847  -0.78941  -0.78382  -0.78281  -0.77900
 Alpha  occ. eigenvalues --   -0.77065  -0.75115  -0.74425  -0.72248  -0.71329
 Alpha  occ. eigenvalues --   -0.70185  -0.69736  -0.69016  -0.68128  -0.67414
 Alpha  occ. eigenvalues --   -0.67197  -0.67045  -0.66891  -0.66731  -0.65970
 Alpha  occ. eigenvalues --   -0.62959  -0.61919  -0.59529  -0.58919  -0.58042
 Alpha  occ. eigenvalues --   -0.57638  -0.56201  -0.55595  -0.54827  -0.53810
 Alpha  occ. eigenvalues --   -0.53039  -0.52528  -0.50452  -0.50388  -0.48959
 Alpha  occ. eigenvalues --   -0.48571  -0.47706  -0.47422  -0.46753  -0.46344
 Alpha  occ. eigenvalues --   -0.45664  -0.45434  -0.44928  -0.44529  -0.44346
 Alpha  occ. eigenvalues --   -0.43633  -0.42835  -0.42709  -0.42402  -0.41923
 Alpha  occ. eigenvalues --   -0.41781  -0.41577  -0.41301  -0.41131  -0.40739
 Alpha  occ. eigenvalues --   -0.40284  -0.39977  -0.39605  -0.39443  -0.39301
 Alpha  occ. eigenvalues --   -0.39024  -0.38451  -0.38425  -0.38225  -0.37967
 Alpha  occ. eigenvalues --   -0.37723  -0.37439  -0.37248  -0.37044  -0.36809
 Alpha  occ. eigenvalues --   -0.36261  -0.36178  -0.35596  -0.35550  -0.35211
 Alpha  occ. eigenvalues --   -0.34876  -0.34504  -0.34326  -0.34170  -0.33971
 Alpha  occ. eigenvalues --   -0.33824  -0.33754  -0.33270  -0.32341  -0.32164
 Alpha  occ. eigenvalues --   -0.32049  -0.31895  -0.31603  -0.30917  -0.30483
 Alpha  occ. eigenvalues --   -0.30292  -0.29559  -0.29260  -0.28574  -0.28324
 Alpha  occ. eigenvalues --   -0.27966  -0.27737  -0.26524  -0.24752  -0.23258
 Alpha  occ. eigenvalues --   -0.21442  -0.19547  -0.17086
 Alpha virt. eigenvalues --   -0.08002  -0.05016  -0.01547   0.00879   0.02675
 Alpha virt. eigenvalues --    0.04529   0.05592   0.06297   0.06639   0.07190
 Alpha virt. eigenvalues --    0.07592   0.08020   0.08111   0.08667   0.08889

 Mulliken charges:
               1
     1  C   -0.032752
     2  C   -0.022924
     3  C   -0.159513
     4  C   -0.162108
     5  C   -0.211346
     6  C   -0.178370
     7  C    0.123045
     8  C    0.079404
     9  C   -0.192939
    10  C   -0.209714
    11  C    0.029313
    12  C    0.048292
    13  C   -0.313787
    14  C   -0.289685
    15  C   -0.279478
    16  C   -0.285876
    17  C   -0.149224
    18  C   -0.101615
    19  C   -0.376105
    20  C   -0.348841
    21  C   -0.071354
    22  C   -0.092207
    23  C    0.107617
    24  C    0.125124
    25  C   -0.373405
    26  C   -0.370111
    27  C   -0.121279
    28  C   -0.122703
    29  C   -0.036864
    30  C   -0.100215
    31  C   -0.125598
    32  C   -0.133193
    33  C    0.152346
    34  C    0.143826
    35  C   -0.350829
    36  C   -0.391073
    37  C   -0.126965
    38  C   -0.115380
    39  C   -0.098659
    40  C   -0.071952
    41  H    0.063874
    42  H    0.103960
    43  H    0.094057
    44  H    0.095414
    45  H    0.069333
    46  H    0.113655
    47  H    0.073776
    48  H    0.107143
    49  H    0.107858
    50  H    0.106096
    51  H    0.105707
    52  H    0.097479
    53  H    0.080958
    54  H    0.104364
    55  H    0.108957
    56  H    0.113322
    57  H    0.075317
    58  H    0.093805
    59  H    0.109152
    60  H    0.096168
    61  H    0.055750
    62  H    0.110640
    63  H    0.101365
    64  H    0.052672
    65  H    0.097760
    66  H    0.072420
    67  H    0.098869
    68  H    0.103520
    69  H    0.092353
    70  H    0.113784
    71  H    0.085456
    72  H    0.080874
    73  H    0.098064
    74  H    0.086213
    75  H    0.113029
    76  H    0.084654
    77  H    0.115717
    78  H    0.116883
    79  H    0.108989
    80  H    0.112461
    81  H    0.075563
    82  H    0.085651
    83  H    0.070946
    84  H    0.067716
    85  H    0.075596
    86  H    0.074266
    87  H    0.054678
    88  H    0.110935
    89  H    0.114629
    90  H    0.136578
    91  H    0.129985
    92  H    0.093685
    93  H    0.085359
    94  H    0.061713
    95  H    0.079283
    96  H    0.068645
 Sum of Mulliken charges =  -0.00000

 Dipole moment (field-independent basis, Debye):
    X=              0.5159    Y=              0.1808    Z=             -0.2292  Tot=              0.5928
 Quadrupole moment (field-independent basis, Debye-Ang):
   XX=           -221.8085   YY=           -237.5721   ZZ=           -253.8265
   XY=              0.4265   XZ=             -5.5458   YZ=             -4.2833

 Normal termination of Gaussian 16 at Tue Jul 30 04:08:52 2019.
