 Gaussian 16, Revision A.03,
 Gaussian 16:  ES64L-G16RevA.03 25-Dec-2016

 ---------------------------------
 # td=(NStates=1) B3LYP/6-31G(d,p)
 ---------------------------------

 --
 TD
 --
 Symbolic Z-matrix:
 Charge =  0 Multiplicity = 1

                         Standard orientation:
 ---------------------------------------------------------------------
 Center     Atomic      Atomic             Coordinates (Angstroms)
 Number     Number       Type             X           Y           Z
 ---------------------------------------------------------------------
      1          6           0       12.204486    0.473653   -0.644187
      2          6           0      -12.218118   -0.027708    0.886664
      3          6           0       13.470508   -0.425970   -0.606445
      4          6           0      -12.938406    1.185718    1.258547
      5          6           0       13.056999   -1.887074   -0.631596
      6          6           0      -13.261760    2.181215    0.075360
      7          6           0       11.071310   -0.043613    0.227105
      8          6           0      -11.001383    0.303967   -0.082579
      9          6           0       12.197597   -2.250777    0.570458
     10          6           0      -11.992102    2.626579   -0.558444
     11          6           0       11.150228   -1.223476    0.889067
     12          6           0      -11.051702    1.446678   -0.838732
     13          6           0       11.619804    0.623825   -2.146069
     14          6           0       12.608534    1.954508   -0.162013
     15          6           0      -13.094598   -1.098812    0.266035
     16          6           0      -11.561443   -0.612436    2.215706
     17          6           0        9.862166    0.822236    0.362063
     18          6           0       -9.898547   -0.546234   -0.246853
     19          6           0       10.058851   -1.724036    1.909042
     20          6           0      -10.015457    1.906780   -1.849658
     21          6           0        8.622664    0.552199    0.288922
     22          6           0       -8.612462   -0.384902   -0.049076
     23          6           0        7.460330    1.377461    0.398018
     24          6           0       -7.522022   -1.322376   -0.248653
     25          6           0        7.677886    2.870567    0.759236
     26          6           0       -7.881301   -2.829767   -0.620531
     27          6           0        6.170146    0.748663    0.303386
     28          6           0       -6.219912   -0.920309   -0.337043
     29          6           0        4.897194    1.354033    0.328033
     30          6           0       -5.011265   -1.675075   -0.456452
     31          6           0        3.676835    0.759390    0.117621
     32          6           0       -3.868018   -1.078325   -0.399642
     33          6           0        2.398952    1.371307    0.208194
     34          6           0       -2.552656   -1.739589   -0.458662
     35          6           0        2.160076    2.865488    0.500438
     36          6           0       -2.588902   -3.306551   -0.667161
     37          6           0        1.323465    0.656532    0.050323
     38          6           0       -1.390768   -1.049061   -0.279877
     39          6           0        1.210684   -0.848642   -0.175530
     40          6           0       -0.024533   -1.451413   -0.314819
     41          1           0       14.003682   -0.128671    0.360604
     42          1           0       14.054833   -0.131751   -1.330441
     43          1           0      -12.315343    1.707804    1.971652
     44          1           0      -13.897312    0.760532    1.640542
     45          1           0       13.996986   -2.550812   -0.597218
     46          1           0       12.571472   -2.126644   -1.539247
     47          1           0      -13.916354    2.958253    0.281428
     48          1           0      -13.831314    1.632920   -0.516378
     49          1           0       12.950795   -2.299644    1.430348
     50          1           0       11.872321   -3.445388    0.443816
     51          1           0      -11.513436    3.499455   -0.132458
     52          1           0      -12.308250    2.979528   -1.538333
     53          1           0       10.810652   -0.330920   -2.471340
     54          1           0       12.454553    0.936612   -2.729972
     55          1           0       10.902801    1.468378   -2.197502
     56          1           0       13.015975    1.916127    0.885440
     57          1           0       11.649330    2.708022   -0.266128
     58          1           0       13.576884    2.429976   -0.895933
     59          1           0      -13.354240   -0.664901   -0.830304
     60          1           0      -13.841016   -1.337004    0.979523
     61          1           0      -12.657619   -2.148614   -0.068222
     62          1           0      -10.971364    0.241264    2.562911
     63          1           0      -11.042691   -1.481187    1.900798
     64          1           0      -12.348064   -0.965736    2.996806
     65          1           0       10.197531    1.944868    0.385308
     66          1           0      -10.132542   -1.598994   -0.469439
     67          1           0        9.381230   -0.952502    2.084384
     68          1           0       10.494508   -2.152288    2.908840
     69          1           0        9.589921   -2.621816    1.424055
     70          1           0       -9.240283    1.138896   -2.219596
     71          1           0       -9.245508    2.679293   -1.609807
     72          1           0      -10.616330    2.342331   -2.768847
     73          1           0        8.356168   -0.471407    0.399542
     74          1           0       -8.333387    0.612110    0.165113
     75          1           0        8.349078    3.170257    1.564596
     76          1           0        6.652222    3.225445    1.050561
     77          1           0        7.983711    3.302492   -0.181022
     78          1           0       -8.497057   -2.905593   -1.605686
     79          1           0       -8.457535   -3.057105    0.312164
     80          1           0       -6.975277   -3.392825   -0.699710
     81          1           0        6.263841   -0.290624    0.075537
     82          1           0       -6.256891    0.119995   -0.043170
     83          1           0        4.991227    2.408596    0.645091
     84          1           0       -5.038354   -2.882188   -0.347983
     85          1           0        3.864007   -0.375706    0.081838
     86          1           0       -4.030943    0.131615   -0.152928
     87          1           0        2.410041    3.012725    1.670430
     88          1           0        1.099279    3.176405    0.602330
     89          1           0        2.608594    3.657886   -0.029117
     90          1           0       -2.943984   -3.510851   -1.561341
     91          1           0       -3.157021   -3.754751    0.285509
     92          1           0       -1.538455   -3.588090   -0.728343
     93          1           0        0.236402    1.064351   -0.044850
     94          1           0       -1.450649    0.064828   -0.276197
     95          1           0        2.205403   -1.226757   -0.202973
     96          1           0        0.207635   -2.706127   -0.095861
 ---------------------------------------------------------------------

 SCF Done:  E(RB3LYP) =  -1557.58190249     A.U. after   14 cycles

 Excitation energies and oscillator strengths:

 Excited State   1:      Singlet-A      2.4008 eV  516.44 nm  f=2.7955  <S**2>=0.000
     148 ->149         0.70482
 This state for optimization and/or second-order correction.
 Total Energy, E(TD-HF/TD-DFT) =  -1557.49367635
 Copying the excited state density for this state as the 1-particle RhoCI density.

 The electronic state is 1-A.
 Alpha  occ. eigenvalues --  -10.21270 -10.21202 -10.21158 -10.20825 -10.20806
 Alpha  occ. eigenvalues --  -10.19978 -10.19944 -10.19823 -10.19776 -10.19776
 Alpha  occ. eigenvalues --  -10.19752 -10.19704 -10.19696 -10.19623 -10.19237
 Alpha  occ. eigenvalues --  -10.19232 -10.19230 -10.19104 -10.19054 -10.18985
 Alpha  occ. eigenvalues --  -10.18857 -10.18813 -10.18731 -10.18696 -10.18668
 Alpha  occ. eigenvalues --  -10.18635 -10.18605 -10.18456 -10.18430 -10.18325
 Alpha  occ. eigenvalues --  -10.18157 -10.17893 -10.17829 -10.17666 -10.17499
 Alpha  occ. eigenvalues --  -10.17414 -10.17282 -10.17243 -10.17076 -10.15778
 Alpha  occ. eigenvalues --   -0.85409  -0.84832  -0.83721  -0.83387  -0.82136
 Alpha  occ. eigenvalues --   -0.81672  -0.79409  -0.78581  -0.78250  -0.77041
 Alpha  occ. eigenvalues --   -0.76894  -0.75515  -0.74434  -0.72278  -0.71996
 Alpha  occ. eigenvalues --   -0.69944  -0.68695  -0.68082  -0.67886  -0.67698
 Alpha  occ. eigenvalues --   -0.67542  -0.66949  -0.66831  -0.66473  -0.65560
 Alpha  occ. eigenvalues --   -0.62983  -0.62283  -0.60884  -0.59202  -0.57745
 Alpha  occ. eigenvalues --   -0.55599  -0.55373  -0.55091  -0.53863  -0.52759
 Alpha  occ. eigenvalues --   -0.52160  -0.51657  -0.50886  -0.49997  -0.49533
 Alpha  occ. eigenvalues --   -0.48682  -0.47927  -0.46928  -0.46496  -0.45959
 Alpha  occ. eigenvalues --   -0.45427  -0.44808  -0.44329  -0.44028  -0.43903
 Alpha  occ. eigenvalues --   -0.43617  -0.42813  -0.42765  -0.42654  -0.42309
 Alpha  occ. eigenvalues --   -0.41927  -0.41709  -0.41664  -0.41063  -0.40865
 Alpha  occ. eigenvalues --   -0.40600  -0.40221  -0.40078  -0.39866  -0.39484
 Alpha  occ. eigenvalues --   -0.38991  -0.38851  -0.38655  -0.38084  -0.37751
 Alpha  occ. eigenvalues --   -0.37659  -0.37598  -0.37411  -0.37224  -0.36673
 Alpha  occ. eigenvalues --   -0.36073  -0.35964  -0.35714  -0.35602  -0.35388
 Alpha  occ. eigenvalues --   -0.35108  -0.34845  -0.34442  -0.34023  -0.33828
 Alpha  occ. eigenvalues --   -0.33668  -0.33634  -0.33033  -0.32610  -0.32602
 Alpha  occ. eigenvalues --   -0.32261  -0.32031  -0.31467  -0.31125  -0.30827
 Alpha  occ. eigenvalues --   -0.30444  -0.29863  -0.29482  -0.28884  -0.28483
 Alpha  occ. eigenvalues --   -0.28228  -0.27759  -0.26921  -0.24061  -0.22768
 Alpha  occ. eigenvalues --   -0.21688  -0.19416  -0.17224
 Alpha virt. eigenvalues --   -0.07843  -0.05323  -0.01859   0.00875   0.02183
 Alpha virt. eigenvalues --    0.04217   0.05871   0.06256   0.06503   0.07435
 Alpha virt. eigenvalues --    0.07586   0.07934   0.08380   0.08738   0.09304

 Mulliken charges:
               1
     1  C   -0.020134
     2  C   -0.006818
     3  C   -0.148666
     4  C   -0.165618
     5  C   -0.191398
     6  C   -0.186020
     7  C    0.095578
     8  C    0.062321
     9  C   -0.211616
    10  C   -0.213443
    11  C    0.058896
    12  C    0.057835
    13  C   -0.290681
    14  C   -0.285047
    15  C   -0.289917
    16  C   -0.291138
    17  C   -0.143116
    18  C   -0.145379
    19  C   -0.354700
    20  C   -0.360389
    21  C   -0.064432
    22  C   -0.065337
    23  C    0.086444
    24  C    0.077068
    25  C   -0.369259
    26  C   -0.358091
    27  C   -0.126785
    28  C   -0.126239
    29  C   -0.074443
    30  C   -0.060196
    31  C   -0.140138
    32  C   -0.084036
    33  C    0.157931
    34  C    0.066719
    35  C   -0.376139
    36  C   -0.356375
    37  C   -0.144574
    38  C   -0.100937
    39  C   -0.063483
    40  C   -0.100430
    41  H    0.080066
    42  H    0.096303
    43  H    0.091992
    44  H    0.077158
    45  H    0.075136
    46  H    0.111584
    47  H    0.086350
    48  H    0.108479
    49  H    0.096347
    50  H    0.072756
    51  H    0.111412
    52  H    0.093369
    53  H    0.076252
    54  H    0.105880
    55  H    0.105587
    56  H    0.111908
    57  H    0.089632
    58  H    0.054839
    59  H    0.087473
    60  H    0.108155
    61  H    0.087024
    62  H    0.104509
    63  H    0.108612
    64  H    0.079476
    65  H    0.053451
    66  H    0.069282
    67  H    0.123943
    68  H    0.093147
    69  H    0.108646
    70  H    0.103508
    71  H    0.111686
    72  H    0.087093
    73  H    0.076495
    74  H    0.066810
    75  H    0.125924
    76  H    0.102342
    77  H    0.130878
    78  H    0.113618
    79  H    0.117075
    80  H    0.108402
    81  H    0.071480
    82  H    0.071052
    83  H    0.074958
    84  H    0.083088
    85  H    0.087590
    86  H    0.068342
    87  H    0.094410
    88  H    0.115541
    89  H    0.127297
    90  H    0.141609
    91  H    0.108554
    92  H    0.113516
    93  H    0.069204
    94  H    0.080886
    95  H    0.087473
    96  H    0.044586
 Sum of Mulliken charges =  -0.00000

 Dipole moment (field-independent basis, Debye):
    X=              0.0112    Y=              0.3942    Z=              0.3520  Tot=              0.5286
 Quadrupole moment (field-independent basis, Debye-Ang):
   XX=           -220.1117   YY=           -236.0183   ZZ=           -256.7287
   XY=              0.0908   XZ=             -0.4373   YZ=              1.2060

 Normal termination of Gaussian 16 at Mon Jul 29 15:13:41 2019.
