 Gaussian 16, Revision A.03,
 Gaussian 16:  ES64L-G16RevA.03 25-Dec-2016

 ---------------------------------
 # td=(NStates=1) B3LYP/6-31G(d,p)
 ---------------------------------

 --
 TD
 --
 Symbolic Z-matrix:
 Charge =  0 Multiplicity = 1

                         Standard orientation:
 ---------------------------------------------------------------------
 Center     Atomic      Atomic             Coordinates (Angstroms)
 Number     Number       Type             X           Y           Z
 ---------------------------------------------------------------------
      1          6           0       12.179069    0.468289   -0.542565
      2          6           0      -12.069554   -0.104303    0.940390
      3          6           0       13.348755   -0.381254   -0.325342
      4          6           0      -13.147922    1.076104    1.166926
      5          6           0       13.168897   -1.824545   -0.458647
      6          6           0      -13.474228    2.006353   -0.113306
      7          6           0       10.918991   -0.110384    0.328143
      8          6           0      -10.948854    0.351354    0.034421
      9          6           0       12.183327   -2.170286    0.671350
     10          6           0      -12.192478    2.550271   -0.573275
     11          6           0       10.969330   -1.308896    0.872432
     12          6           0      -11.034751    1.476651   -0.722023
     13          6           0       11.785769    0.479624   -2.145546
     14          6           0       12.484404    1.935756   -0.197886
     15          6           0      -12.909790   -1.302153    0.206703
     16          6           0      -11.537683   -0.574008    2.253067
     17          6           0        9.844344    0.824995    0.473319
     18          6           0       -9.874449   -0.679630   -0.120575
     19          6           0        9.928480   -1.953156    1.696086
     20          6           0       -9.913023    1.916707   -1.673904
     21          6           0        8.479743    0.532242    0.251451
     22          6           0       -8.550688   -0.271251   -0.140650
     23          6           0        7.404073    1.451848    0.334436
     24          6           0       -7.468908   -1.236402   -0.295365
     25          6           0        7.676184    2.897781    0.721714
     26          6           0       -7.829084   -2.655396   -0.476698
     27          6           0        6.183121    0.954748    0.234453
     28          6           0       -6.175244   -0.808922   -0.217064
     29          6           0        4.866409    1.573057    0.236734
     30          6           0       -4.993007   -1.569992   -0.452191
     31          6           0        3.711805    0.796012    0.139552
     32          6           0       -3.744155   -1.085400   -0.257870
     33          6           0        2.422785    1.382075    0.149188
     34          6           0       -2.492825   -1.840093   -0.461503
     35          6           0        2.187187    2.791569    0.371612
     36          6           0       -2.465729   -3.186457   -0.968809
     37          6           0        1.291028    0.668326    0.023920
     38          6           0       -1.368943   -1.003373   -0.349518
     39          6           0        1.153121   -0.737683   -0.254892
     40          6           0        0.009731   -1.456167   -0.379658
     41          1           0       13.675236    0.150331    0.650410
     42          1           0       14.167773   -0.016856   -1.114419
     43          1           0      -12.661955    1.911298    1.857216
     44          1           0      -14.022007    0.677480    1.601313
     45          1           0       14.067787   -2.458650   -0.395392
     46          1           0       12.756323   -2.016193   -1.485935
     47          1           0      -14.098395    2.811062    0.344050
     48          1           0      -14.134513    1.496785   -0.866146
     49          1           0       12.704780   -2.282592    1.717554
     50          1           0       11.855816   -3.299635    0.501145
     51          1           0      -11.772615    3.304638   -0.009690
     52          1           0      -12.426311    3.042927   -1.631837
     53          1           0       11.429862   -0.480888   -2.553639
     54          1           0       12.675009    0.758775   -2.679574
     55          1           0       10.830039    1.226690   -2.206597
     56          1           0       12.814274    1.792204    0.818815
     57          1           0       11.642486    2.549465   -0.510292
     58          1           0       13.408763    2.144520   -0.740292
     59          1           0      -13.178461   -0.983000   -0.814255
     60          1           0      -13.756113   -1.800375    0.921105
     61          1           0      -12.319049   -2.008499   -0.029386
     62          1           0      -10.951273    0.230265    2.677757
     63          1           0      -10.974360   -1.461711    2.251217
     64          1           0      -12.414306   -0.759656    2.913362
     65          1           0       10.345265    1.858886    0.746416
     66          1           0      -10.396574   -1.722874   -0.177101
     67          1           0        9.381230   -1.238308    2.299402
     68          1           0       10.426451   -2.517740    2.479891
     69          1           0        9.473710   -2.827987    0.872968
     70          1           0       -9.392153    1.039162   -1.978259
     71          1           0       -8.957068    2.513587   -1.157358
     72          1           0      -10.115417    2.575255   -2.456058
     73          1           0        8.277460   -0.507048    0.033967
     74          1           0       -8.188038    0.770317   -0.137864
     75          1           0        8.196388    2.702518    1.897416
     76          1           0        6.622616    3.321862    0.608857
     77          1           0        8.481707    3.192624   -0.042204
     78          1           0       -8.388808   -3.064307   -1.424035
     79          1           0       -8.521628   -3.149937    0.291767
     80          1           0       -6.923025   -3.350910   -0.408596
     81          1           0        6.158463   -0.076905    0.032066
     82          1           0       -6.210628    0.278153    0.035416
     83          1           0        4.768516    2.585549    0.450950
     84          1           0       -4.921428   -2.618935   -0.703504
     85          1           0        3.687134   -0.354695   -0.016385
     86          1           0       -3.716974   -0.050227    0.059987
     87          1           0        2.489762    3.369892    1.440653
     88          1           0        1.159510    3.133418    0.439818
     89          1           0        2.804067    3.242069   -0.372509
     90          1           0       -2.631258   -3.256693   -2.179376
     91          1           0       -3.196362   -3.513004   -0.189583
     92          1           0       -1.409615   -3.657438   -0.865180
     93          1           0        0.327581    1.211163    0.604166
     94          1           0       -1.470903   -0.009652   -0.023079
     95          1           0        2.208064   -1.178176   -0.432718
     96          1           0        0.281750   -2.472068   -0.818065
 ---------------------------------------------------------------------

 SCF Done:  E(RB3LYP) =  -1557.57791533     A.U. after   15 cycles

 Excitation energies and oscillator strengths:

 Excited State   1:      Singlet-A      2.2009 eV  563.33 nm  f=3.0098  <S**2>=0.000
     148 ->149         0.70846
 This state for optimization and/or second-order correction.
 Total Energy, E(TD-HF/TD-DFT) =  -1557.49703367
 Copying the excited state density for this state as the 1-particle RhoCI density.

 The electronic state is 1-A.
 Alpha  occ. eigenvalues --  -10.20924 -10.20437 -10.20350 -10.19943 -10.19914
 Alpha  occ. eigenvalues --  -10.19868 -10.19846 -10.19568 -10.19439 -10.19416
 Alpha  occ. eigenvalues --  -10.19404 -10.19397 -10.19324 -10.19287 -10.19275
 Alpha  occ. eigenvalues --  -10.19205 -10.19189 -10.19140 -10.19090 -10.19031
 Alpha  occ. eigenvalues --  -10.18784 -10.18749 -10.18688 -10.18618 -10.18615
 Alpha  occ. eigenvalues --  -10.18615 -10.18510 -10.18382 -10.18299 -10.18299
 Alpha  occ. eigenvalues --  -10.18281 -10.18264 -10.18074 -10.18002 -10.17733
 Alpha  occ. eigenvalues --  -10.17678 -10.17590 -10.17374 -10.17235 -10.16182
 Alpha  occ. eigenvalues --   -0.85536  -0.84393  -0.84147  -0.83538  -0.82793
 Alpha  occ. eigenvalues --   -0.81825  -0.79428  -0.78591  -0.77746  -0.77501
 Alpha  occ. eigenvalues --   -0.76771  -0.75341  -0.74627  -0.72164  -0.71171
 Alpha  occ. eigenvalues --   -0.70267  -0.68781  -0.68177  -0.68043  -0.67811
 Alpha  occ. eigenvalues --   -0.67451  -0.67267  -0.66326  -0.66273  -0.66143
 Alpha  occ. eigenvalues --   -0.63096  -0.61826  -0.59917  -0.58800  -0.56985
 Alpha  occ. eigenvalues --   -0.56723  -0.55688  -0.54159  -0.53699  -0.53056
 Alpha  occ. eigenvalues --   -0.52255  -0.51731  -0.50053  -0.49663  -0.48211
 Alpha  occ. eigenvalues --   -0.48145  -0.47597  -0.47103  -0.46842  -0.46102
 Alpha  occ. eigenvalues --   -0.45971  -0.45410  -0.44726  -0.44514  -0.44049
 Alpha  occ. eigenvalues --   -0.43447  -0.43175  -0.42919  -0.42569  -0.42389
 Alpha  occ. eigenvalues --   -0.41812  -0.41647  -0.41225  -0.40864  -0.40756
 Alpha  occ. eigenvalues --   -0.40538  -0.40293  -0.39902  -0.39393  -0.39320
 Alpha  occ. eigenvalues --   -0.39058  -0.38811  -0.38617  -0.38517  -0.37857
 Alpha  occ. eigenvalues --   -0.37795  -0.37578  -0.37490  -0.37212  -0.36581
 Alpha  occ. eigenvalues --   -0.36300  -0.35916  -0.35787  -0.35571  -0.35407
 Alpha  occ. eigenvalues --   -0.34726  -0.34688  -0.34322  -0.33719  -0.33626
 Alpha  occ. eigenvalues --   -0.33582  -0.33361  -0.33312  -0.32953  -0.32901
 Alpha  occ. eigenvalues --   -0.32388  -0.31959  -0.31736  -0.30876  -0.30857
 Alpha  occ. eigenvalues --   -0.29901  -0.29377  -0.29285  -0.28737  -0.28237
 Alpha  occ. eigenvalues --   -0.27731  -0.27563  -0.26053  -0.24288  -0.22842
 Alpha  occ. eigenvalues --   -0.21107  -0.18836  -0.16554
 Alpha virt. eigenvalues --   -0.08120  -0.05227  -0.01913   0.00543   0.02552
 Alpha virt. eigenvalues --    0.03976   0.05628   0.06189   0.06275   0.06655
 Alpha virt. eigenvalues --    0.06788   0.07030   0.07917   0.08232   0.08576

 Mulliken charges:
               1
     1  C   -0.013236
     2  C   -0.014094
     3  C   -0.145055
     4  C   -0.172549
     5  C   -0.175897
     6  C   -0.188926
     7  C    0.071339
     8  C    0.071116
     9  C   -0.223357
    10  C   -0.201691
    11  C    0.086637
    12  C    0.050743
    13  C   -0.297959
    14  C   -0.308331
    15  C   -0.305287
    16  C   -0.290266
    17  C   -0.170355
    18  C   -0.138815
    19  C   -0.346191
    20  C   -0.361842
    21  C   -0.107153
    22  C   -0.114867
    23  C    0.119590
    24  C    0.169443
    25  C   -0.334175
    26  C   -0.387914
    27  C   -0.110378
    28  C   -0.139853
    29  C   -0.110995
    30  C   -0.089756
    31  C   -0.091017
    32  C   -0.086764
    33  C    0.148909
    34  C    0.094753
    35  C   -0.363397
    36  C   -0.355435
    37  C   -0.140455
    38  C   -0.099574
    39  C   -0.091603
    40  C   -0.104092
    41  H    0.070052
    42  H    0.053086
    43  H    0.065061
    44  H    0.088892
    45  H    0.098003
    46  H    0.102159
    47  H    0.089745
    48  H    0.097074
    49  H    0.092861
    50  H    0.068344
    51  H    0.123767
    52  H    0.073088
    53  H    0.099583
    54  H    0.103209
    55  H    0.077803
    56  H    0.105464
    57  H    0.113845
    58  H    0.104013
    59  H    0.103373
    60  H    0.078573
    61  H    0.108121
    62  H    0.105863
    63  H    0.105508
    64  H    0.087884
    65  H    0.087490
    66  H    0.099949
    67  H    0.124398
    68  H    0.107812
    69  H    0.089558
    70  H    0.132590
    71  H    0.066444
    72  H    0.108822
    73  H    0.089396
    74  H    0.094859
    75  H    0.098735
    76  H    0.104998
    77  H    0.119181
    78  H    0.103920
    79  H    0.109025
    80  H    0.097254
    81  H    0.067783
    82  H    0.072990
    83  H    0.090569
    84  H    0.080277
    85  H    0.081616
    86  H    0.075202
    87  H    0.070235
    88  H    0.116109
    89  H    0.123862
    90  H    0.118892
    91  H    0.125268
    92  H    0.110831
    93  H    0.060846
    94  H    0.081207
    95  H    0.071347
    96  H    0.071915
 Sum of Mulliken charges =  -0.00000

 Dipole moment (field-independent basis, Debye):
    X=              0.8422    Y=             -0.6172    Z=              0.0124  Tot=              1.0442
 Quadrupole moment (field-independent basis, Debye-Ang):
   XX=           -226.3258   YY=           -238.2390   ZZ=           -255.2392
   XY=             -3.5040   XZ=              1.1041   YZ=              2.9245

 Normal termination of Gaussian 16 at Thu Aug  1 18:17:44 2019.
