 Gaussian 16, Revision A.03,
 Gaussian 16:  ES64L-G16RevA.03 25-Dec-2016

 ---------------------------------
 # td=(NStates=1) B3LYP/6-31G(d,p)
 ---------------------------------

 --
 TD
 --
 Symbolic Z-matrix:
 Charge =  0 Multiplicity = 1

                         Standard orientation:
 ---------------------------------------------------------------------
 Center     Atomic      Atomic             Coordinates (Angstroms)
 Number     Number       Type             X           Y           Z
 ---------------------------------------------------------------------
      1          6           0      -12.158059   -0.569747   -0.731081
      2          6           0       12.167847    0.002647    0.861692
      3          6           0      -13.476890    0.167934   -0.622093
      4          6           0       12.930674   -1.225520    1.269639
      5          6           0      -13.240389    1.631123   -0.629014
      6          6           0       13.320677   -2.123642    0.150904
      7          6           0      -11.168525   -0.032018    0.187646
      8          6           0       11.018357   -0.510079   -0.002795
      9          6           0      -12.380542    2.086946    0.563097
     10          6           0       12.106931   -2.745393   -0.585805
     11          6           0      -11.181981    1.191447    0.909938
     12          6           0       11.022452   -1.676096   -0.801392
     13          6           0      -11.519308   -0.619184   -2.167751
     14          6           0      -12.475799   -2.096060   -0.528534
     15          6           0       12.969916    1.007761    0.203293
     16          6           0       11.554335    0.644454    2.046648
     17          6           0       -9.916664   -0.941456    0.418729
     18          6           0        9.988306    0.505335   -0.265475
     19          6           0      -10.221060    1.766201    1.880264
     20          6           0        9.954845   -2.057155   -1.901830
     21          6           0       -8.630466   -0.467548    0.408324
     22          6           0        8.637242    0.261949   -0.257774
     23          6           0       -7.436480   -1.307030    0.555168
     24          6           0        7.624724    1.247711   -0.253956
     25          6           0       -7.635714   -2.774655    0.732817
     26          6           0        7.960491    2.715591   -0.451671
     27          6           0       -6.214904   -0.712469    0.495749
     28          6           0        6.260940    0.940543   -0.332481
     29          6           0       -4.810517   -1.231665    0.514314
     30          6           0        5.077372    1.719895   -0.447622
     31          6           0       -3.684948   -0.547533    0.263501
     32          6           0        3.763534    1.199135   -0.341343
     33          6           0       -2.385517   -1.189277    0.385877
     34          6           0        2.568940    1.901616   -0.437733
     35          6           0       -2.344837   -2.691509    0.473349
     36          6           0        2.631035    3.393422   -0.776692
     37          6           0       -1.193434   -0.311034    0.134175
     38          6           0        1.408705    1.194156   -0.420090
     39          6           0       -1.114270    0.981462   -0.183579
     40          6           0        0.082980    1.685399   -0.357688
     41          1           0      -13.984635    0.014202    0.368655
     42          1           0      -14.316261   -0.320641   -1.240558
     43          1           0       12.368958   -2.004643    2.029722
     44          1           0       13.744905   -0.970900    1.940589
     45          1           0      -14.186248    2.334800   -0.612276
     46          1           0      -12.551614    1.710658   -1.643076
     47          1           0       13.865215   -2.963930    0.538757
     48          1           0       13.990192   -1.604346   -0.553169
     49          1           0      -12.849925    2.077773    1.474679
     50          1           0      -12.035829    3.125239    0.352704
     51          1           0       11.635042   -3.609859   -0.200329
     52          1           0       12.455777   -3.029755   -1.606895
     53          1           0      -11.494981    0.475399   -2.631893
     54          1           0      -12.076123   -1.362286   -2.735861
     55          1           0      -10.349018   -1.035189   -2.023436
     56          1           0      -12.669489   -2.131076    0.640351
     57          1           0      -11.720765   -2.879142   -0.746748
     58          1           0      -13.436978   -2.252525   -0.918931
     59          1           0       13.755617    0.561467   -0.735462
     60          1           0       13.672155    1.392410    0.989793
     61          1           0       12.358323    1.862580   -0.174901
     62          1           0       10.691395    0.236595    2.555097
     63          1           0       11.217192    1.729989    1.942961
     64          1           0       12.386560    0.599088    2.759062
     65          1           0       -9.982277   -2.126635    0.375275
     66          1           0       10.228039    1.567183   -0.395503
     67          1           0       -9.507238    0.878699    2.355208
     68          1           0      -10.593471    2.160486    2.670956
     69          1           0       -9.403946    2.410393    1.328323
     70          1           0        9.301829   -1.238262   -2.105960
     71          1           0        9.131119   -2.942980   -1.400116
     72          1           0       10.375614   -2.460962   -2.664386
     73          1           0       -8.536457    0.796581    0.360283
     74          1           0        8.254821   -0.719238   -0.074447
     75          1           0       -8.526711   -2.677156    1.577760
     76          1           0       -6.711145   -3.396336    1.278042
     77          1           0       -7.893953   -3.264149   -0.183290
     78          1           0        8.405721    2.876014   -1.445351
     79          1           0        8.679047    3.005700    0.349228
     80          1           0        7.323535    3.492719   -0.502582
     81          1           0       -6.458730    0.403783    0.432966
     82          1           0        5.817958   -0.220933   -0.010450
     83          1           0       -4.832073   -2.459860    0.718108
     84          1           0        4.998276    2.789434   -0.263596
     85          1           0       -3.786903    0.346888    0.055775
     86          1           0        3.714042    0.194353   -0.384879
     87          1           0       -2.811598   -2.928231    1.527255
     88          1           0       -1.334430   -3.165979    0.575534
     89          1           0       -2.978215   -3.222305   -0.189600
     90          1           0        3.196124    3.739706   -1.852559
     91          1           0        3.282683    3.803893    0.047483
     92          1           0        1.755682    4.062577   -0.782205
     93          1           0       -0.253078   -0.817920    0.430856
     94          1           0        1.565473    0.130620   -0.389654
     95          1           0       -1.984662    1.666970   -0.219246
     96          1           0       -0.064539    2.865098   -0.740405
 ---------------------------------------------------------------------

 SCF Done:  E(RB3LYP) =  -1557.50332942     A.U. after   17 cycles

 Excitation energies and oscillator strengths:

 Excited State   1:      Singlet-A      1.9291 eV  642.69 nm  f=3.2023  <S**2>=0.000
     148 ->149         0.71264
     148 <-149        -0.15726
 This state for optimization and/or second-order correction.
 Total Energy, E(TD-HF/TD-DFT) =  -1557.43243452
 Copying the excited state density for this state as the 1-particle RhoCI density.

 The electronic state is 1-A.
 Alpha  occ. eigenvalues --  -10.21411 -10.20465 -10.20350 -10.20309 -10.20293
 Alpha  occ. eigenvalues --  -10.20183 -10.20050 -10.20041 -10.19980 -10.19954
 Alpha  occ. eigenvalues --  -10.19862 -10.19839 -10.19828 -10.19714 -10.19577
 Alpha  occ. eigenvalues --  -10.19507 -10.19414 -10.19335 -10.19282 -10.19243
 Alpha  occ. eigenvalues --  -10.19240 -10.19059 -10.18872 -10.18801 -10.18734
 Alpha  occ. eigenvalues --  -10.18692 -10.18556 -10.18456 -10.18442 -10.18418
 Alpha  occ. eigenvalues --  -10.18253 -10.18174 -10.17945 -10.17929 -10.17737
 Alpha  occ. eigenvalues --  -10.17723 -10.17664 -10.17352 -10.17253 -10.17088
 Alpha  occ. eigenvalues --   -0.86196  -0.85338  -0.83750  -0.82785  -0.81991
 Alpha  occ. eigenvalues --   -0.81449  -0.79177  -0.79014  -0.78678  -0.77202
 Alpha  occ. eigenvalues --   -0.76372  -0.74982  -0.73675  -0.72163  -0.71603
 Alpha  occ. eigenvalues --   -0.70037  -0.68655  -0.68341  -0.68074  -0.67864
 Alpha  occ. eigenvalues --   -0.67732  -0.67603  -0.67140  -0.66196  -0.65703
 Alpha  occ. eigenvalues --   -0.62999  -0.61212  -0.59669  -0.58422  -0.56956
 Alpha  occ. eigenvalues --   -0.56730  -0.56279  -0.54979  -0.53858  -0.53303
 Alpha  occ. eigenvalues --   -0.52728  -0.51000  -0.50404  -0.49473  -0.48783
 Alpha  occ. eigenvalues --   -0.48444  -0.47351  -0.47341  -0.46624  -0.46085
 Alpha  occ. eigenvalues --   -0.45433  -0.45378  -0.44545  -0.44135  -0.43736
 Alpha  occ. eigenvalues --   -0.43609  -0.43102  -0.42846  -0.42575  -0.42359
 Alpha  occ. eigenvalues --   -0.41915  -0.41674  -0.41547  -0.41348  -0.41172
 Alpha  occ. eigenvalues --   -0.40855  -0.40786  -0.40195  -0.39831  -0.39501
 Alpha  occ. eigenvalues --   -0.39234  -0.38853  -0.38201  -0.38150  -0.38006
 Alpha  occ. eigenvalues --   -0.37726  -0.37615  -0.37380  -0.37174  -0.36236
 Alpha  occ. eigenvalues --   -0.36193  -0.35830  -0.35611  -0.35063  -0.34888
 Alpha  occ. eigenvalues --   -0.34774  -0.34157  -0.33792  -0.33686  -0.33589
 Alpha  occ. eigenvalues --   -0.33496  -0.33251  -0.33076  -0.32543  -0.32276
 Alpha  occ. eigenvalues --   -0.31800  -0.31529  -0.31512  -0.31340  -0.30943
 Alpha  occ. eigenvalues --   -0.30399  -0.30234  -0.29303  -0.28997  -0.28373
 Alpha  occ. eigenvalues --   -0.28014  -0.27839  -0.26059  -0.23730  -0.22442
 Alpha  occ. eigenvalues --   -0.20489  -0.18842  -0.15593
 Alpha virt. eigenvalues --   -0.09060  -0.04860  -0.02127   0.00459   0.02070
 Alpha virt. eigenvalues --    0.03284   0.05776   0.06403   0.06892   0.06943
 Alpha virt. eigenvalues --    0.07066   0.07120   0.07216   0.07746   0.08557

 Mulliken charges:
               1
     1  C   -0.010557
     2  C    0.023122
     3  C   -0.166284
     4  C   -0.169912
     5  C   -0.184304
     6  C   -0.189054
     7  C    0.087599
     8  C    0.071741
     9  C   -0.209328
    10  C   -0.215677
    11  C    0.054007
    12  C    0.037954
    13  C   -0.276654
    14  C   -0.309251
    15  C   -0.268656
    16  C   -0.303112
    17  C   -0.166142
    18  C   -0.153847
    19  C   -0.357927
    20  C   -0.321558
    21  C   -0.072905
    22  C   -0.079761
    23  C    0.123039
    24  C    0.100578
    25  C   -0.364847
    26  C   -0.377258
    27  C   -0.130780
    28  C   -0.131378
    29  C   -0.095855
    30  C   -0.064658
    31  C   -0.021702
    32  C   -0.125912
    33  C    0.073032
    34  C    0.153792
    35  C   -0.373191
    36  C   -0.365043
    37  C   -0.129082
    38  C   -0.115778
    39  C   -0.048890
    40  C   -0.118703
    41  H    0.088116
    42  H    0.080501
    43  H    0.067158
    44  H    0.083263
    45  H    0.080608
    46  H    0.071268
    47  H    0.093342
    48  H    0.097762
    49  H    0.115095
    50  H    0.098414
    51  H    0.116292
    52  H    0.093162
    53  H    0.084130
    54  H    0.104739
    55  H    0.090527
    56  H    0.079566
    57  H    0.106903
    58  H    0.110737
    59  H    0.060174
    60  H    0.098546
    61  H    0.109567
    62  H    0.116407
    63  H    0.088406
    64  H    0.090303
    65  H    0.079841
    66  H    0.084876
    67  H    0.099895
    68  H    0.118650
    69  H    0.108856
    70  H    0.130538
    71  H    0.054904
    72  H    0.119049
    73  H    0.069338
    74  H    0.087680
    75  H    0.103148
    76  H    0.089109
    77  H    0.135031
    78  H    0.116422
    79  H    0.106425
    80  H    0.120671
    81  H    0.058653
    82  H    0.042338
    83  H    0.057446
    84  H    0.073396
    85  H    0.054957
    86  H    0.070314
    87  H    0.106718
    88  H    0.108167
    89  H    0.141096
    90  H    0.093191
    91  H    0.114330
    92  H    0.113682
    93  H    0.079304
    94  H    0.081196
    95  H    0.087597
    96  H    0.061334
 Sum of Mulliken charges =  -0.00000

 Dipole moment (field-independent basis, Debye):
    X=              0.3812    Y=             -0.0477    Z=              0.4246  Tot=              0.5726
 Quadrupole moment (field-independent basis, Debye-Ang):
   XX=           -208.8129   YY=           -233.2215   ZZ=           -256.3579
   XY=             -1.0287   XZ=             -2.0127   YZ=              1.0375

 Normal termination of Gaussian 16 at Sat Jul 27 21:30:59 2019.
