 Gaussian 16, Revision A.03,
 Gaussian 16:  ES64L-G16RevA.03 25-Dec-2016

 ---------------------------------
 # td=(NStates=1) B3LYP/6-31G(d,p)
 ---------------------------------

 --
 TD
 --
 Symbolic Z-matrix:
 Charge =  0 Multiplicity = 1

                         Standard orientation:
 ---------------------------------------------------------------------
 Center     Atomic      Atomic             Coordinates (Angstroms)
 Number     Number       Type             X           Y           Z
 ---------------------------------------------------------------------
      1          6           0      -12.013828   -0.571002   -0.826729
      2          6           0       12.132305   -0.078792    0.820744
      3          6           0      -13.416265    0.253655   -0.651732
      4          6           0       12.859433   -1.362298    1.208666
      5          6           0      -13.199753    1.762581   -0.537256
      6          6           0       13.290613   -2.239355   -0.016956
      7          6           0      -11.050801    0.010935    0.226936
      8          6           0       10.964042   -0.383230   -0.147293
      9          6           0      -12.242394    2.130699    0.522790
     10          6           0       12.109164   -2.552393   -0.784463
     11          6           0      -11.183353    1.181283    0.902341
     12          6           0       10.972112   -1.553707   -0.875115
     13          6           0      -11.507666   -0.394642   -2.238083
     14          6           0      -12.394657   -2.044687   -0.557472
     15          6           0       12.989286    0.920802    0.283534
     16          6           0       11.564761    0.477207    2.173110
     17          6           0       -9.884389   -0.937317    0.460554
     18          6           0        9.873843    0.645317   -0.173192
     19          6           0      -10.298062    1.736159    2.023508
     20          6           0        9.889800   -1.859613   -1.807621
     21          6           0       -8.650388   -0.513385    0.287726
     22          6           0        8.572766    0.464189   -0.116285
     23          6           0       -7.406724   -1.384095    0.462843
     24          6           0        7.517480    1.373357   -0.477882
     25          6           0       -7.690884   -2.820459    0.688800
     26          6           0        7.931340    2.768364   -0.622626
     27          6           0       -6.119105   -0.828373    0.387442
     28          6           0        6.278295    0.984489   -0.376419
     29          6           0       -4.860697   -1.504028    0.331954
     30          6           0        5.092508    1.811559   -0.452474
     31          6           0       -3.708562   -0.735155    0.284393
     32          6           0        3.792969    1.184129   -0.278304
     33          6           0       -2.420656   -1.348963    0.392909
     34          6           0        2.504104    1.828479   -0.337568
     35          6           0       -2.231247   -2.762905    0.650398
     36          6           0        2.531503    3.387987   -0.606994
     37          6           0       -1.247834   -0.517193    0.249082
     38          6           0        1.340551    1.116861   -0.290373
     39          6           0       -1.111381    0.876820   -0.075344
     40          6           0        0.043958    1.675699   -0.272110
     41          1           0      -13.831841   -0.099486    0.315281
     42          1           0      -14.202241   -0.017562   -1.397706
     43          1           0       12.213056   -1.922463    2.036606
     44          1           0       13.945312   -1.106262    1.666166
     45          1           0      -14.198283    2.177412   -0.208669
     46          1           0      -12.824769    2.262519   -1.545450
     47          1           0       13.730269   -3.179521    0.344370
     48          1           0       13.751536   -1.689515   -0.579165
     49          1           0      -12.723530    2.250011    1.492691
     50          1           0      -11.689945    3.154572    0.406009
     51          1           0       11.653925   -3.405372   -0.236474
     52          1           0       12.471036   -2.958759   -1.770999
     53          1           0      -11.482876    0.790738   -2.501282
     54          1           0      -11.987632   -0.853170   -3.066003
     55          1           0      -10.311214   -0.838137   -2.348584
     56          1           0      -12.407109   -2.241948    0.551317
     57          1           0      -11.511587   -2.447707   -0.884428
     58          1           0      -13.146597   -2.357825   -1.220309
     59          1           0       13.549437    0.783111   -0.677207
     60          1           0       13.943980    1.379602    0.881598
     61          1           0       12.328678    1.896910    0.202776
     62          1           0       10.920361   -0.025050    2.783556
     63          1           0       11.468097    1.662753    2.215439
     64          1           0       12.627301    0.484691    2.775321
     65          1           0       -9.901523   -2.091679    0.566147
     66          1           0       10.314761    1.776694   -0.311487
     67          1           0       -9.568290    0.992102    2.426594
     68          1           0      -10.998264    2.278304    2.781182
     69          1           0       -9.581380    2.474840    1.566184
     70          1           0        9.340769   -0.907891   -2.069325
     71          1           0        9.155622   -2.459821   -1.293658
     72          1           0       10.266121   -2.247144   -2.695426
     73          1           0       -8.285208    0.679770    0.098183
     74          1           0        8.179816   -0.592593    0.132885
     75          1           0       -7.982868   -3.046150    1.824459
     76          1           0       -6.829857   -3.468569    0.662025
     77          1           0       -8.627691   -3.197709    0.074567
     78          1           0        8.732143    2.931962   -1.368216
     79          1           0        8.458860    3.206093    0.384452
     80          1           0        7.122329    3.185353   -0.672021
     81          1           0       -6.253624    0.229516    0.101604
     82          1           0        6.169961   -0.058162    0.041625
     83          1           0       -4.663857   -2.578686    0.507124
     84          1           0        5.061878    2.978863   -0.637497
     85          1           0       -3.609447    0.365065    0.167983
     86          1           0        3.746824    0.043116   -0.061370
     87          1           0       -2.687672   -3.140993    1.659801
     88          1           0       -1.349127   -3.299882    0.328650
     89          1           0       -2.829599   -3.291284   -0.070853
     90          1           0        2.972977    3.574287   -1.527888
     91          1           0        2.976733    3.775772    0.229302
     92          1           0        1.596425    3.996532   -0.579785
     93          1           0       -0.412624   -1.118426    0.232903
     94          1           0        1.436594   -0.118913   -0.133580
     95          1           0       -2.013857    1.337545   -0.227588
     96          1           0        0.104588    2.898657   -0.384468
 ---------------------------------------------------------------------

 SCF Done:  E(RB3LYP) =  -1557.53588890     A.U. after   16 cycles

 Excitation energies and oscillator strengths:

 Excited State   1:      Singlet-A      2.0897 eV  593.31 nm  f=3.1244  <S**2>=0.000
     148 ->149         0.71149
     148 <-149        -0.13351
 This state for optimization and/or second-order correction.
 Total Energy, E(TD-HF/TD-DFT) =  -1557.45909311
 Copying the excited state density for this state as the 1-particle RhoCI density.

 The electronic state is 1-A.
 Alpha  occ. eigenvalues --  -10.21002 -10.20663 -10.20454 -10.20401 -10.20301
 Alpha  occ. eigenvalues --  -10.20279 -10.20072 -10.19897 -10.19841 -10.19777
 Alpha  occ. eigenvalues --  -10.19640 -10.19537 -10.19180 -10.19166 -10.19132
 Alpha  occ. eigenvalues --  -10.19123 -10.19104 -10.19087 -10.19081 -10.18971
 Alpha  occ. eigenvalues --  -10.18810 -10.18766 -10.18760 -10.18736 -10.18715
 Alpha  occ. eigenvalues --  -10.18626 -10.18573 -10.18548 -10.18387 -10.18169
 Alpha  occ. eigenvalues --  -10.18057 -10.18007 -10.18005 -10.17933 -10.17907
 Alpha  occ. eigenvalues --  -10.17717 -10.16796 -10.16322 -10.16250 -10.15613
 Alpha  occ. eigenvalues --   -0.85551  -0.84676  -0.84017  -0.83409  -0.82022
 Alpha  occ. eigenvalues --   -0.81146  -0.79554  -0.78919  -0.78427  -0.77843
 Alpha  occ. eigenvalues --   -0.76799  -0.75061  -0.74501  -0.72672  -0.72112
 Alpha  occ. eigenvalues --   -0.70812  -0.69290  -0.68307  -0.67917  -0.67681
 Alpha  occ. eigenvalues --   -0.67132  -0.66953  -0.66535  -0.66198  -0.66035
 Alpha  occ. eigenvalues --   -0.62996  -0.61467  -0.60024  -0.58752  -0.56685
 Alpha  occ. eigenvalues --   -0.56088  -0.55491  -0.54678  -0.53411  -0.52239
 Alpha  occ. eigenvalues --   -0.51428  -0.50650  -0.49869  -0.49501  -0.49250
 Alpha  occ. eigenvalues --   -0.48273  -0.47605  -0.47024  -0.46927  -0.46040
 Alpha  occ. eigenvalues --   -0.45876  -0.45290  -0.45079  -0.44743  -0.44505
 Alpha  occ. eigenvalues --   -0.44354  -0.43365  -0.43013  -0.42703  -0.42350
 Alpha  occ. eigenvalues --   -0.42087  -0.41866  -0.41754  -0.41486  -0.41118
 Alpha  occ. eigenvalues --   -0.40919  -0.40483  -0.39907  -0.39448  -0.39302
 Alpha  occ. eigenvalues --   -0.39196  -0.38774  -0.38236  -0.38030  -0.37940
 Alpha  occ. eigenvalues --   -0.37671  -0.37405  -0.37203  -0.36645  -0.36138
 Alpha  occ. eigenvalues --   -0.36067  -0.35891  -0.35682  -0.35663  -0.35232
 Alpha  occ. eigenvalues --   -0.35018  -0.34128  -0.33944  -0.33706  -0.33644
 Alpha  occ. eigenvalues --   -0.33528  -0.33074  -0.33030  -0.32830  -0.32395
 Alpha  occ. eigenvalues --   -0.31983  -0.31775  -0.31463  -0.31298  -0.31175
 Alpha  occ. eigenvalues --   -0.30502  -0.30470  -0.29265  -0.28695  -0.28368
 Alpha  occ. eigenvalues --   -0.27639  -0.26587  -0.26161  -0.23843  -0.22415
 Alpha  occ. eigenvalues --   -0.21329  -0.19311  -0.16112
 Alpha virt. eigenvalues --   -0.08695  -0.04728  -0.01353   0.00920   0.02647
 Alpha virt. eigenvalues --    0.04248   0.05938   0.06478   0.06665   0.06793
 Alpha virt. eigenvalues --    0.06920   0.07649   0.07817   0.08235   0.08743

 Mulliken charges:
               1
     1  C   -0.008723
     2  C    0.025437
     3  C   -0.177126
     4  C   -0.179416
     5  C   -0.182492
     6  C   -0.153049
     7  C    0.046183
     8  C    0.060815
     9  C   -0.207039
    10  C   -0.224690
    11  C    0.087222
    12  C    0.064398
    13  C   -0.277759
    14  C   -0.302531
    15  C   -0.285062
    16  C   -0.295328
    17  C   -0.161494
    18  C   -0.137325
    19  C   -0.357870
    20  C   -0.366257
    21  C   -0.059395
    22  C   -0.090627
    23  C    0.127539
    24  C    0.142947
    25  C   -0.386891
    26  C   -0.327831
    27  C   -0.125956
    28  C   -0.123651
    29  C   -0.106529
    30  C   -0.118158
    31  C   -0.068751
    32  C   -0.121458
    33  C    0.108752
    34  C    0.097963
    35  C   -0.401801
    36  C   -0.380498
    37  C   -0.108870
    38  C   -0.089668
    39  C   -0.089159
    40  C   -0.101751
    41  H    0.089489
    42  H    0.080705
    43  H    0.074584
    44  H    0.066454
    45  H    0.090925
    46  H    0.083365
    47  H    0.095348
    48  H    0.104714
    49  H    0.101445
    50  H    0.091488
    51  H    0.099093
    52  H    0.084210
    53  H    0.079026
    54  H    0.110786
    55  H    0.063524
    56  H    0.102930
    57  H    0.108409
    58  H    0.107763
    59  H    0.100233
    60  H    0.073149
    61  H    0.084525
    62  H    0.116395
    63  H    0.081636
    64  H    0.068083
    65  H    0.082798
    66  H    0.066851
    67  H    0.122556
    68  H    0.096652
    69  H    0.114101
    70  H    0.118086
    71  H    0.119342
    72  H    0.107238
    73  H    0.054854
    74  H    0.062275
    75  H    0.103673
    76  H    0.111848
    77  H    0.109209
    78  H    0.116378
    79  H    0.092372
    80  H    0.095325
    81  H    0.077548
    82  H    0.080658
    83  H    0.089945
    84  H    0.097127
    85  H    0.083523
    86  H    0.077190
    87  H    0.115941
    88  H    0.116747
    89  H    0.125412
    90  H    0.137269
    91  H    0.138107
    92  H    0.098934
    93  H    0.064399
    94  H    0.064749
    95  H    0.075816
    96  H    0.080694
 Sum of Mulliken charges =  -0.00000

 Dipole moment (field-independent basis, Debye):
    X=             -0.4703    Y=             -0.5361    Z=             -0.1621  Tot=              0.7313
 Quadrupole moment (field-independent basis, Debye-Ang):
   XX=           -230.2427   YY=           -231.5045   ZZ=           -256.6876
   XY=             -1.8169   XZ=             -5.8680   YZ=             -1.5177

 Normal termination of Gaussian 16 at Tue Jul 30 21:41:15 2019.
