 Gaussian 16, Revision A.03,
 Gaussian 16:  ES64L-G16RevA.03 25-Dec-2016

 ---------------------------------
 # td=(NStates=1) B3LYP/6-31G(d,p)
 ---------------------------------

 --
 TD
 --
 Symbolic Z-matrix:
 Charge =  0 Multiplicity = 1

                         Standard orientation:
 ---------------------------------------------------------------------
 Center     Atomic      Atomic             Coordinates (Angstroms)
 Number     Number       Type             X           Y           Z
 ---------------------------------------------------------------------
      1          6           0      -12.256564   -0.760019   -0.508174
      2          6           0       12.218615   -0.026233    0.877523
      3          6           0      -13.569446    0.106910   -0.510874
      4          6           0       13.028522   -1.196353    1.355480
      5          6           0      -13.417570    1.688774   -0.616231
      6          6           0       13.300498   -2.225561    0.234854
      7          6           0      -11.168606   -0.083804    0.285062
      8          6           0       11.073847   -0.445118   -0.112770
      9          6           0      -12.352653    2.025669    0.552535
     10          6           0       12.132500   -2.671795   -0.466439
     11          6           0      -11.183277    1.162917    0.752413
     12          6           0       11.097507   -1.659922   -0.721179
     13          6           0      -11.929944   -0.848902   -2.047649
     14          6           0      -12.496357   -2.224293   -0.045133
     15          6           0       13.182552    1.085381    0.163771
     16          6           0       11.717770    0.689223    2.146867
     17          6           0       -9.891582   -0.895656    0.367491
     18          6           0        9.939023    0.533938   -0.278882
     19          6           0      -10.161084    1.748661    1.747540
     20          6           0       10.028923   -2.151804   -1.639174
     21          6           0       -8.591704   -0.405597    0.407211
     22          6           0        8.606041    0.262756   -0.391623
     23          6           0       -7.410939   -1.294261    0.565592
     24          6           0        7.552185    1.135969   -0.409618
     25          6           0       -7.481903   -2.713767    0.830583
     26          6           0        7.975148    2.664919   -0.628036
     27          6           0       -6.179007   -0.663851    0.216585
     28          6           0        6.219396    0.771347   -0.204266
     29          6           0       -4.847735   -1.145717    0.217356
     30          6           0        5.052752    1.496982   -0.398364
     31          6           0       -3.735081   -0.433748    0.063597
     32          6           0        3.793561    1.065681   -0.375464
     33          6           0       -2.408137   -1.004375    0.106614
     34          6           0        2.597218    1.929008   -0.338775
     35          6           0       -2.195903   -2.527672    0.238257
     36          6           0        2.621906    3.471598   -0.704252
     37          6           0       -1.202209   -0.257855   -0.086880
     38          6           0        1.379813    1.335679   -0.235938
     39          6           0       -1.168195    1.171711   -0.192914
     40          6           0        0.043577    1.864809   -0.361194
     41          1           0      -14.035889    0.052751    0.451700
     42          1           0      -14.259709   -0.083582   -1.298195
     43          1           0       12.459740   -1.792208    2.096579
     44          1           0       13.879364   -0.936996    1.885274
     45          1           0      -14.271272    2.153365   -0.390952
     46          1           0      -12.935214    1.830232   -1.520476
     47          1           0       13.938990   -2.987193    0.409906
     48          1           0       13.931499   -1.486031   -0.488468
     49          1           0      -12.999925    2.158240    1.609296
     50          1           0      -12.146925    3.065127    0.420076
     51          1           0       11.610674   -3.656897    0.064496
     52          1           0       12.418277   -3.130357   -1.529242
     53          1           0      -11.559159    0.156532   -2.521026
     54          1           0      -12.719747   -1.403834   -2.772489
     55          1           0      -11.139032   -1.442170   -2.022196
     56          1           0      -12.889978   -2.129105    1.065097
     57          1           0      -11.453601   -2.784888   -0.175774
     58          1           0      -13.345526   -2.629989   -0.686380
     59          1           0       13.566363    0.670033   -0.746863
     60          1           0       13.823066    1.238383    0.970913
     61          1           0       12.408102    1.820215   -0.170606
     62          1           0       11.080909   -0.101726    2.501399
     63          1           0       11.231978    1.580265    1.718960
     64          1           0       12.511875    1.064205    2.720155
     65          1           0       -9.921433   -1.896080    0.836227
     66          1           0       10.004700    1.645153   -0.216878
     67          1           0       -9.807085    0.740564    2.226833
     68          1           0      -10.833409    2.381646    2.406847
     69          1           0       -9.404412    2.461685    1.384679
     70          1           0        9.534789   -1.428022   -2.153549
     71          1           0        9.277518   -2.575121   -0.991623
     72          1           0       10.393070   -2.968165   -2.502326
     73          1           0       -8.581198    0.675623    0.112324
     74          1           0        8.189067   -0.867952   -0.271932
     75          1           0       -8.147883   -3.080668    1.638423
     76          1           0       -6.403542   -3.142327    1.216398
     77          1           0       -7.711405   -3.307952   -0.034251
     78          1           0        8.760610    2.789682   -1.624640
     79          1           0        8.404013    2.953156    0.531366
     80          1           0        7.135180    3.354401   -0.873308
     81          1           0       -6.159486    0.383208    0.076563
     82          1           0        6.107059   -0.280232   -0.241577
     83          1           0       -4.681466   -2.153904    0.378391
     84          1           0        5.295440    2.588964   -0.683501
     85          1           0       -3.786208    0.539684   -0.218293
     86          1           0        3.644708    0.007513   -0.332948
     87          1           0       -2.557758   -2.714310    1.308827
     88          1           0       -1.026150   -2.962611    0.247392
     89          1           0       -2.783580   -3.080102   -0.403685
     90          1           0        3.085442    3.738606   -1.540746
     91          1           0        3.287965    3.719333    0.132746
     92          1           0        1.678433    3.897091   -0.445580
     93          1           0       -0.401830   -0.839749    0.203007
     94          1           0        1.329739    0.250005    0.022992
     95          1           0       -2.160138    1.556885   -0.447651
     96          1           0       -0.346365    2.935849   -0.464733
 ---------------------------------------------------------------------

 SCF Done:  E(RB3LYP) =  -1557.56959411     A.U. after   15 cycles

 Excitation energies and oscillator strengths:

 Excited State   1:      Singlet-A      2.0605 eV  601.72 nm  f=3.1360  <S**2>=0.000
     148 ->149         0.71155
     148 <-149        -0.10883
 This state for optimization and/or second-order correction.
 Total Energy, E(TD-HF/TD-DFT) =  -1557.49387278
 Copying the excited state density for this state as the 1-particle RhoCI density.

 The electronic state is 1-A.
 Alpha  occ. eigenvalues --  -10.22157 -10.21320 -10.20594 -10.20535 -10.20419
 Alpha  occ. eigenvalues --  -10.19905 -10.19876 -10.19720 -10.19712 -10.19684
 Alpha  occ. eigenvalues --  -10.19666 -10.19642 -10.19571 -10.19470 -10.19440
 Alpha  occ. eigenvalues --  -10.19201 -10.19158 -10.19108 -10.19074 -10.18956
 Alpha  occ. eigenvalues --  -10.18910 -10.18868 -10.18856 -10.18748 -10.18685
 Alpha  occ. eigenvalues --  -10.18543 -10.18453 -10.18410 -10.18189 -10.18043
 Alpha  occ. eigenvalues --  -10.17945 -10.17714 -10.17380 -10.17365 -10.17301
 Alpha  occ. eigenvalues --  -10.17003 -10.16921 -10.16678 -10.16383 -10.16341
 Alpha  occ. eigenvalues --   -0.85376  -0.84560  -0.83613  -0.83383  -0.82032
 Alpha  occ. eigenvalues --   -0.81255  -0.79345  -0.79097  -0.78060  -0.77623
 Alpha  occ. eigenvalues --   -0.76477  -0.75813  -0.74453  -0.72057  -0.71808
 Alpha  occ. eigenvalues --   -0.69947  -0.68757  -0.68489  -0.68018  -0.67645
 Alpha  occ. eigenvalues --   -0.67608  -0.67121  -0.66419  -0.66195  -0.65945
 Alpha  occ. eigenvalues --   -0.63150  -0.62430  -0.59866  -0.59418  -0.57473
 Alpha  occ. eigenvalues --   -0.56411  -0.55533  -0.55410  -0.54318  -0.53633
 Alpha  occ. eigenvalues --   -0.52793  -0.51624  -0.50549  -0.49622  -0.48872
 Alpha  occ. eigenvalues --   -0.48300  -0.47513  -0.47263  -0.46896  -0.46252
 Alpha  occ. eigenvalues --   -0.45761  -0.45168  -0.44897  -0.44595  -0.44285
 Alpha  occ. eigenvalues --   -0.44088  -0.43850  -0.43155  -0.42586  -0.42432
 Alpha  occ. eigenvalues --   -0.42253  -0.41813  -0.41587  -0.41461  -0.41125
 Alpha  occ. eigenvalues --   -0.40871  -0.40715  -0.40150  -0.39961  -0.39629
 Alpha  occ. eigenvalues --   -0.39434  -0.38995  -0.38812  -0.38461  -0.38217
 Alpha  occ. eigenvalues --   -0.38014  -0.37747  -0.37228  -0.37068  -0.36361
 Alpha  occ. eigenvalues --   -0.36138  -0.35949  -0.35844  -0.35497  -0.35166
 Alpha  occ. eigenvalues --   -0.34853  -0.34808  -0.34659  -0.34239  -0.34143
 Alpha  occ. eigenvalues --   -0.33939  -0.33175  -0.33105  -0.32799  -0.32703
 Alpha  occ. eigenvalues --   -0.32427  -0.31778  -0.31129  -0.31075  -0.30485
 Alpha  occ. eigenvalues --   -0.29949  -0.29627  -0.29312  -0.29004  -0.28642
 Alpha  occ. eigenvalues --   -0.27717  -0.27461  -0.26319  -0.24119  -0.23134
 Alpha  occ. eigenvalues --   -0.21282  -0.18951  -0.16336
 Alpha virt. eigenvalues --   -0.08658  -0.06067  -0.02352   0.00536   0.02263
 Alpha virt. eigenvalues --    0.03924   0.05527   0.06042   0.07148   0.07277
 Alpha virt. eigenvalues --    0.07516   0.08154   0.08338   0.08749   0.09175

 Mulliken charges:
               1
     1  C   -0.022825
     2  C   -0.059372
     3  C   -0.174854
     4  C   -0.163437
     5  C   -0.188965
     6  C   -0.172928
     7  C    0.098441
     8  C    0.081962
     9  C   -0.243797
    10  C   -0.190074
    11  C    0.073425
    12  C    0.074849
    13  C   -0.281315
    14  C   -0.289001
    15  C   -0.294769
    16  C   -0.276323
    17  C   -0.165382
    18  C   -0.156293
    19  C   -0.361598
    20  C   -0.354769
    21  C   -0.098561
    22  C   -0.078310
    23  C    0.110522
    24  C    0.117832
    25  C   -0.391876
    26  C   -0.359694
    27  C   -0.111474
    28  C   -0.131721
    29  C   -0.067071
    30  C   -0.059194
    31  C   -0.070333
    32  C   -0.109531
    33  C    0.060177
    34  C    0.080159
    35  C   -0.364463
    36  C   -0.357203
    37  C   -0.096887
    38  C   -0.118029
    39  C   -0.112158
    40  C   -0.089753
    41  H    0.081141
    42  H    0.084530
    43  H    0.079647
    44  H    0.091033
    45  H    0.102637
    46  H    0.109067
    47  H    0.092769
    48  H    0.065676
    49  H    0.060465
    50  H    0.102129
    51  H    0.073266
    52  H    0.087021
    53  H    0.084652
    54  H    0.078022
    55  H    0.111711
    56  H    0.090410
    57  H    0.096633
    58  H    0.101246
    59  H    0.107751
    60  H    0.106658
    61  H    0.098609
    62  H    0.110038
    63  H    0.089804
    64  H    0.101425
    65  H    0.083377
    66  H    0.092091
    67  H    0.123364
    68  H    0.096461
    69  H    0.116649
    70  H    0.131966
    71  H    0.127155
    72  H    0.068845
    73  H    0.093724
    74  H    0.053941
    75  H    0.122346
    76  H    0.093499
    77  H    0.140753
    78  H    0.097278
    79  H    0.103486
    80  H    0.111082
    81  H    0.072326
    82  H    0.069889
    83  H    0.062451
    84  H    0.063657
    85  H    0.070540
    86  H    0.082032
    87  H    0.112652
    88  H    0.085791
    89  H    0.134621
    90  H    0.132864
    91  H    0.119264
    92  H    0.120816
    93  H    0.080093
    94  H    0.078215
    95  H    0.089807
    96  H    0.077217
 Sum of Mulliken charges =  -0.00000

 Dipole moment (field-independent basis, Debye):
    X=              0.4739    Y=             -0.2827    Z=              0.0975  Tot=              0.5603
 Quadrupole moment (field-independent basis, Debye-Ang):
   XX=           -233.0339   YY=           -235.3546   ZZ=           -256.2110
   XY=             -4.7310   XZ=              2.1474   YZ=             -2.8488

 Normal termination of Gaussian 16 at Thu Aug  1 07:15:58 2019.
