 Gaussian 16, Revision A.03,
 Gaussian 16:  ES64L-G16RevA.03 25-Dec-2016

 ---------------------------------
 # td=(NStates=1) B3LYP/6-31G(d,p)
 ---------------------------------

 --
 TD
 --
 Symbolic Z-matrix:
 Charge =  0 Multiplicity = 1

                         Standard orientation:
 ---------------------------------------------------------------------
 Center     Atomic      Atomic             Coordinates (Angstroms)
 Number     Number       Type             X           Y           Z
 ---------------------------------------------------------------------
      1          6           0      -12.233504   -0.534560   -0.650932
      2          6           0       12.139473    0.101231    0.772112
      3          6           0      -13.439863    0.419677   -0.554142
      4          6           0       13.157551   -0.984216    1.159687
      5          6           0      -13.101116    1.950717   -0.701264
      6          6           0       13.482877   -1.922572   -0.088916
      7          6           0      -10.997543    0.014322    0.276894
      8          6           0       10.950154   -0.397036   -0.023372
      9          6           0      -12.124385    2.272514    0.431402
     10          6           0       12.257253   -2.486406   -0.805012
     11          6           0      -11.093467    1.284439    0.760732
     12          6           0       11.030940   -1.678405   -0.745630
     13          6           0      -11.751364   -0.584700   -2.184139
     14          6           0      -12.566333   -1.934996   -0.110205
     15          6           0       12.971007    1.195335    0.036446
     16          6           0       11.610884    0.552143    2.185830
     17          6           0       -9.873494   -0.912429    0.486717
     18          6           0        9.862091    0.538213   -0.199696
     19          6           0       -9.976266    1.786306    1.625780
     20          6           0        9.902550   -1.933129   -1.694842
     21          6           0       -8.448835   -0.387295    0.354353
     22          6           0        8.519529    0.270840   -0.121332
     23          6           0       -7.410673   -1.227399    0.467888
     24          6           0        7.506601    1.255955   -0.305690
     25          6           0       -7.707973   -2.711765    0.821693
     26          6           0        7.903088    2.742267   -0.612292
     27          6           0       -6.136939   -0.819863    0.192924
     28          6           0        6.160406    0.856743   -0.179402
     29          6           0       -4.823331   -1.506511    0.250561
     30          6           0        4.989913    1.644582   -0.301150
     31          6           0       -3.662699   -0.888575   -0.008357
     32          6           0        3.739834    1.067839   -0.249778
     33          6           0       -2.358897   -1.492171    0.256649
     34          6           0        2.465932    1.744999   -0.355149
     35          6           0       -2.304119   -2.832127    0.587915
     36          6           0        2.458587    3.274642   -0.591122
     37          6           0       -1.203734   -0.689369    0.203284
     38          6           0        1.337482    1.023639   -0.171852
     39          6           0       -1.156153    0.680464   -0.141234
     40          6           0       -0.095035    1.472981   -0.186077
     41          1           0      -14.033260    0.382369    0.486259
     42          1           0      -14.264600    0.128235   -1.058968
     43          1           0       12.712999   -1.392951    1.926655
     44          1           0       14.159526   -0.614703    1.536999
     45          1           0      -14.092646    2.357414   -0.451608
     46          1           0      -12.730169    2.117546   -1.849114
     47          1           0       13.851116   -2.846094    0.398947
     48          1           0       14.020597   -1.384193   -0.726983
     49          1           0      -12.586702    2.458179    1.438108
     50          1           0      -11.657889    3.352004    0.375454
     51          1           0       11.843883   -3.368923   -0.416558
     52          1           0       12.678016   -2.624569   -1.895223
     53          1           0      -11.337817    0.407535   -2.651429
     54          1           0      -12.483591   -1.113860   -2.935649
     55          1           0      -10.991465   -1.256359   -2.227304
     56          1           0      -12.745262   -2.016192    0.944666
     57          1           0      -11.797495   -2.768535   -0.448363
     58          1           0      -13.543568   -2.388334   -0.422335
     59          1           0       13.291933    0.664475   -0.964224
     60          1           0       13.808449    1.473168    0.647145
     61          1           0       12.312077    2.016444   -0.101053
     62          1           0       11.081501    0.013294    2.930412
     63          1           0       10.915231    1.330498    2.048403
     64          1           0       12.246421    0.779243    2.993972
     65          1           0       -9.990759   -1.925390    0.583109
     66          1           0        9.805076    1.650563   -0.430220
     67          1           0       -9.561696    0.948258    2.101678
     68          1           0      -10.677495    2.362057    2.600687
     69          1           0       -9.216542    2.509314    1.176502
     70          1           0        9.371639   -0.931573   -1.844447
     71          1           0        9.175814   -2.640007   -1.269125
     72          1           0       10.220021   -2.368076   -2.604256
     73          1           0       -8.287660    0.642662   -0.017625
     74          1           0        8.161643   -0.774301    0.049437
     75          1           0       -8.549407   -2.832584    1.554350
     76          1           0       -6.905735   -3.317550    1.530963
     77          1           0       -7.963666   -3.433407   -0.052286
     78          1           0        8.187039    2.527700   -1.653666
     79          1           0        8.831299    3.083372    0.109138
     80          1           0        7.006748    3.488804   -0.316108
     81          1           0       -6.011008    0.186367   -0.256999
     82          1           0        6.199342   -0.136138    0.048029
     83          1           0       -4.761581   -2.529539    0.610451
     84          1           0        5.017039    2.729773   -0.358761
     85          1           0       -3.736482    0.101202   -0.286119
     86          1           0        3.504835   -0.013557    0.063240
     87          1           0       -3.056201   -3.222848    1.486848
     88          1           0       -1.278978   -3.158757    0.878952
     89          1           0       -2.459856   -3.420153   -0.338802
     90          1           0        2.929624    3.645686   -1.540713
     91          1           0        3.035883    3.871402    0.238446
     92          1           0        1.474511    3.544420   -0.638959
     93          1           0       -0.188310   -1.281340    0.148438
     94          1           0        1.399335   -0.230914    0.021703
     95          1           0       -2.050915    1.203587   -0.157257
     96          1           0       -0.163433    2.657328   -0.350529
 ---------------------------------------------------------------------

 SCF Done:  E(RB3LYP) =  -1557.54010672     A.U. after   16 cycles

 Excitation energies and oscillator strengths:

 Excited State   1:      Singlet-A      2.0194 eV  613.96 nm  f=2.4061  <S**2>=0.000
     147 ->149         0.10569
     148 ->149         0.70097
 This state for optimization and/or second-order correction.
 Total Energy, E(TD-HF/TD-DFT) =  -1557.46589481
 Copying the excited state density for this state as the 1-particle RhoCI density.

 The electronic state is 1-A.
 Alpha  occ. eigenvalues --  -10.21211 -10.21042 -10.20438 -10.20422 -10.20094
 Alpha  occ. eigenvalues --  -10.19985 -10.19970 -10.19801 -10.19768 -10.19749
 Alpha  occ. eigenvalues --  -10.19735 -10.19716 -10.19594 -10.19527 -10.19414
 Alpha  occ. eigenvalues --  -10.19413 -10.19317 -10.19184 -10.19160 -10.19051
 Alpha  occ. eigenvalues --  -10.18983 -10.18954 -10.18952 -10.18860 -10.18820
 Alpha  occ. eigenvalues --  -10.18715 -10.18479 -10.18473 -10.18232 -10.18224
 Alpha  occ. eigenvalues --  -10.18080 -10.18037 -10.18021 -10.17793 -10.17793
 Alpha  occ. eigenvalues --  -10.17342 -10.17098 -10.16722 -10.16163 -10.15065
 Alpha  occ. eigenvalues --   -0.84420  -0.84384  -0.84016  -0.82801  -0.82391
 Alpha  occ. eigenvalues --   -0.81554  -0.79207  -0.78507  -0.77911  -0.77241
 Alpha  occ. eigenvalues --   -0.76601  -0.75316  -0.74635  -0.71368  -0.70628
 Alpha  occ. eigenvalues --   -0.69526  -0.69001  -0.68303  -0.67857  -0.67758
 Alpha  occ. eigenvalues --   -0.67596  -0.67174  -0.66963  -0.66549  -0.65994
 Alpha  occ. eigenvalues --   -0.62776  -0.62276  -0.60487  -0.59034  -0.57153
 Alpha  occ. eigenvalues --   -0.56347  -0.55821  -0.55101  -0.53962  -0.53178
 Alpha  occ. eigenvalues --   -0.52115  -0.51042  -0.50404  -0.50113  -0.48530
 Alpha  occ. eigenvalues --   -0.48444  -0.47177  -0.46844  -0.46224  -0.45589
 Alpha  occ. eigenvalues --   -0.45315  -0.45141  -0.44807  -0.44504  -0.44271
 Alpha  occ. eigenvalues --   -0.43638  -0.43303  -0.42915  -0.42648  -0.42288
 Alpha  occ. eigenvalues --   -0.41866  -0.41215  -0.41164  -0.40656  -0.40624
 Alpha  occ. eigenvalues --   -0.40459  -0.40281  -0.40085  -0.39913  -0.39704
 Alpha  occ. eigenvalues --   -0.39604  -0.38720  -0.38620  -0.38254  -0.37936
 Alpha  occ. eigenvalues --   -0.37463  -0.37332  -0.37184  -0.37025  -0.36411
 Alpha  occ. eigenvalues --   -0.35878  -0.35767  -0.35290  -0.35244  -0.35023
 Alpha  occ. eigenvalues --   -0.34937  -0.34607  -0.34373  -0.34162  -0.34003
 Alpha  occ. eigenvalues --   -0.33836  -0.33603  -0.33317  -0.33036  -0.32305
 Alpha  occ. eigenvalues --   -0.31987  -0.31789  -0.31318  -0.31179  -0.30330
 Alpha  occ. eigenvalues --   -0.30242  -0.30143  -0.29717  -0.29364  -0.28516
 Alpha  occ. eigenvalues --   -0.27859  -0.26685  -0.25905  -0.24230  -0.22284
 Alpha  occ. eigenvalues --   -0.20573  -0.17800  -0.16171
 Alpha virt. eigenvalues --   -0.08355  -0.05989  -0.02544   0.00177   0.02436
 Alpha virt. eigenvalues --    0.03846   0.05458   0.06217   0.06779   0.07267
 Alpha virt. eigenvalues --    0.07384   0.07921   0.08162   0.08253   0.08606

 Mulliken charges:
               1
     1  C    0.026916
     2  C   -0.018147
     3  C   -0.171401
     4  C   -0.162516
     5  C   -0.185393
     6  C   -0.190521
     7  C    0.068221
     8  C    0.065715
     9  C   -0.214232
    10  C   -0.220818
    11  C    0.088121
    12  C    0.061554
    13  C   -0.302542
    14  C   -0.321554
    15  C   -0.284676
    16  C   -0.337392
    17  C   -0.157628
    18  C   -0.151069
    19  C   -0.338078
    20  C   -0.368075
    21  C   -0.122473
    22  C   -0.086267
    23  C    0.185531
    24  C    0.074315
    25  C   -0.379332
    26  C   -0.369014
    27  C   -0.165438
    28  C   -0.089368
    29  C   -0.066218
    30  C   -0.102406
    31  C   -0.081109
    32  C   -0.098107
    33  C    0.145564
    34  C    0.130266
    35  C   -0.397923
    36  C   -0.366196
    37  C   -0.132359
    38  C   -0.125455
    39  C   -0.054697
    40  C   -0.111375
    41  H    0.054079
    42  H    0.097839
    43  H    0.097175
    44  H    0.077800
    45  H    0.101024
    46  H    0.088312
    47  H    0.096797
    48  H    0.109884
    49  H    0.109004
    50  H    0.091368
    51  H    0.117260
    52  H    0.092861
    53  H    0.093318
    54  H    0.081374
    55  H    0.117444
    56  H    0.116874
    57  H    0.083489
    58  H    0.088879
    59  H    0.085383
    60  H    0.107670
    61  H    0.104628
    62  H    0.102174
    63  H    0.096813
    64  H    0.090132
    65  H    0.093722
    66  H    0.076379
    67  H    0.138285
    68  H    0.026128
    69  H    0.111203
    70  H    0.124840
    71  H    0.107096
    72  H    0.102924
    73  H    0.093675
    74  H    0.078582
    75  H    0.114706
    76  H    0.082650
    77  H    0.118792
    78  H    0.146262
    79  H    0.106839
    80  H    0.103586
    81  H    0.068545
    82  H    0.066829
    83  H    0.075742
    84  H    0.084153
    85  H    0.072471
    86  H    0.071483
    87  H    0.098719
    88  H    0.108898
    89  H    0.129628
    90  H    0.117965
    91  H    0.106518
    92  H    0.113185
    93  H    0.070566
    94  H    0.055721
    95  H    0.084525
    96  H    0.073378
 Sum of Mulliken charges =  -0.00000

 Dipole moment (field-independent basis, Debye):
    X=             -0.3149    Y=             -0.6068    Z=             -0.3302  Tot=              0.7592
 Quadrupole moment (field-independent basis, Debye-Ang):
   XX=           -222.5323   YY=           -234.6717   ZZ=           -255.2034
   XY=             -0.0317   XZ=              1.3885   YZ=             -3.1115

 Normal termination of Gaussian 16 at Wed Jul 24 01:59:28 2019.
