 Gaussian 16, Revision A.03,
 Gaussian 16:  ES64L-G16RevA.03 25-Dec-2016

 ---------------------------------
 # td=(NStates=1) B3LYP/6-31G(d,p)
 ---------------------------------

 --
 TD
 --
 Symbolic Z-matrix:
 Charge =  0 Multiplicity = 1

                         Standard orientation:
 ---------------------------------------------------------------------
 Center     Atomic      Atomic             Coordinates (Angstroms)
 Number     Number       Type             X           Y           Z
 ---------------------------------------------------------------------
      1          6           0      -11.978963   -0.526877   -0.911905
      2          6           0       12.111282   -0.024671    0.776916
      3          6           0      -13.278998    0.355677   -0.735161
      4          6           0       12.972033   -1.265654    1.239194
      5          6           0      -12.952514    1.865319   -0.664913
      6          6           0       13.239006   -2.183183    0.017023
      7          6           0      -10.928785   -0.058596    0.161770
      8          6           0       10.995106   -0.473093   -0.151816
      9          6           0      -12.240100    2.132315    0.663233
     10          6           0       11.932228   -2.777003   -0.607190
     11          6           0      -11.088521    1.174119    0.949479
     12          6           0       10.956912   -1.685366   -0.798228
     13          6           0      -11.509731   -0.575579   -2.294127
     14          6           0      -12.491465   -1.986541   -0.619650
     15          6           0       12.988681    0.976291    0.049248
     16          6           0       11.604774    0.668384    2.068133
     17          6           0       -9.866251   -0.972267    0.436600
     18          6           0        9.850040    0.585111   -0.204556
     19          6           0      -10.123373    1.598196    2.027521
     20          6           0        9.894547   -1.959289   -1.820572
     21          6           0       -8.594383   -0.548491    0.396247
     22          6           0        8.536609    0.353360   -0.239587
     23          6           0       -7.327578   -1.378858    0.515052
     24          6           0        7.584051    1.367238   -0.435617
     25          6           0       -7.507886   -2.820203    0.984824
     26          6           0        7.996668    2.828614   -0.502080
     27          6           0       -6.168409   -0.797328    0.315929
     28          6           0        6.167244    0.968608   -0.299808
     29          6           0       -4.884039   -1.457156    0.276783
     30          6           0        4.983959    1.773362   -0.329494
     31          6           0       -3.765857   -0.786029    0.264814
     32          6           0        3.743976    1.325564   -0.297149
     33          6           0       -2.324047   -1.362105    0.295351
     34          6           0        2.492000    1.994788   -0.318343
     35          6           0       -2.265465   -2.781513    0.562148
     36          6           0        2.434097    3.436071   -0.657500
     37          6           0       -1.347869   -0.547293    0.310519
     38          6           0        1.348683    1.206743   -0.280965
     39          6           0       -1.183030    0.917716   -0.026254
     40          6           0       -0.055076    1.638319   -0.189764
     41          1           0      -13.985340    0.063533    0.102607
     42          1           0      -13.981848    0.231599   -1.573310
     43          1           0       12.585937   -1.821731    1.964030
     44          1           0       13.923959   -1.063483    1.721795
     45          1           0      -13.868177    2.633433   -0.615353
     46          1           0      -12.363792    2.342868   -1.511250
     47          1           0       13.809208   -3.096276    0.504630
     48          1           0       13.965843   -1.793111   -0.787343
     49          1           0      -12.821110    2.137902    1.319000
     50          1           0      -11.794698    3.341888    0.742644
     51          1           0       11.435478   -3.453799    0.058341
     52          1           0       12.061721   -3.245742   -1.511265
     53          1           0      -11.214337    0.384915   -2.603491
     54          1           0      -12.328094   -0.857151   -3.038540
     55          1           0      -10.726818   -1.334448   -2.423331
     56          1           0      -12.976739   -2.042678    0.436647
     57          1           0      -11.655935   -2.675549   -0.507610
     58          1           0      -13.413335   -2.283709   -1.390308
     59          1           0       13.435981    0.469256   -0.795543
     60          1           0       13.759330    1.376133    0.612125
     61          1           0       12.529242    1.886302   -0.118657
     62          1           0       10.838487    0.199631    2.511428
     63          1           0       10.898291    1.582898    1.908711
     64          1           0       12.274916    1.019610    2.885262
     65          1           0      -10.068367   -1.918041    0.834964
     66          1           0       10.219534    1.610252   -0.279724
     67          1           0       -9.246210    0.797192    2.083111
     68          1           0      -10.689483    1.830179    3.004839
     69          1           0       -9.661498    2.593169    1.663404
     70          1           0        9.354507   -1.148896   -1.930506
     71          1           0        9.105597   -2.754617   -1.470379
     72          1           0       10.176693   -2.446415   -2.639621
     73          1           0       -8.456063    0.561247    0.044629
     74          1           0        8.247106   -0.616975   -0.085004
     75          1           0       -7.800919   -2.876387    2.112487
     76          1           0       -6.513018   -3.334109    1.162153
     77          1           0       -8.131356   -3.562199    0.421102
     78          1           0        8.445090    3.004565   -1.390872
     79          1           0        8.540243    3.324566    0.273709
     80          1           0        7.196105    3.530661   -0.749542
     81          1           0       -6.176981    0.389095    0.142175
     82          1           0        6.198542   -0.188466   -0.220685
     83          1           0       -5.029339   -2.642335    0.269076
     84          1           0        5.191841    2.864863   -0.407730
     85          1           0       -4.038263    0.300071    0.314515
     86          1           0        3.679883    0.195691   -0.103910
     87          1           0       -2.909149   -3.096355    1.353749
     88          1           0       -1.113926   -3.192659    0.736484
     89          1           0       -2.697218   -3.341142   -0.383233
     90          1           0        2.945092    3.722455   -1.715175
     91          1           0        2.959550    4.242758    0.127333
     92          1           0        1.489972    3.829181   -0.804461
     93          1           0       -0.402331   -1.207098    0.252934
     94          1           0        1.545959    0.154225   -0.053562
     95          1           0       -2.230822    1.491587    0.182160
     96          1           0       -0.216290    2.689447   -0.192262
 ---------------------------------------------------------------------

 SCF Done:  E(RB3LYP) =  -1557.55900155     A.U. after   14 cycles

 Excitation energies and oscillator strengths:

 Excited State   1:      Singlet-A      2.5396 eV  488.21 nm  f=2.5621  <S**2>=0.000
     147 ->149        -0.13652
     148 ->149         0.68034
     148 ->150        -0.10802
 This state for optimization and/or second-order correction.
 Total Energy, E(TD-HF/TD-DFT) =  -1557.46567434
 Copying the excited state density for this state as the 1-particle RhoCI density.

 The electronic state is 1-A.
 Alpha  occ. eigenvalues --  -10.20869 -10.20652 -10.20479 -10.20175 -10.20159
 Alpha  occ. eigenvalues --  -10.20156 -10.20088 -10.19997 -10.19963 -10.19937
 Alpha  occ. eigenvalues --  -10.19843 -10.19764 -10.19533 -10.19362 -10.19325
 Alpha  occ. eigenvalues --  -10.19324 -10.19224 -10.19216 -10.19143 -10.19117
 Alpha  occ. eigenvalues --  -10.19068 -10.18941 -10.18900 -10.18877 -10.18789
 Alpha  occ. eigenvalues --  -10.18719 -10.18621 -10.18608 -10.18454 -10.18363
 Alpha  occ. eigenvalues --  -10.17581 -10.17495 -10.17381 -10.17246 -10.17174
 Alpha  occ. eigenvalues --  -10.16805 -10.16542 -10.16362 -10.15680 -10.15141
 Alpha  occ. eigenvalues --   -0.84651  -0.84259  -0.83810  -0.83277  -0.82035
 Alpha  occ. eigenvalues --   -0.81701  -0.79001  -0.78843  -0.78430  -0.78097
 Alpha  occ. eigenvalues --   -0.76314  -0.75345  -0.74672  -0.72500  -0.72077
 Alpha  occ. eigenvalues --   -0.69801  -0.69242  -0.69070  -0.68516  -0.68167
 Alpha  occ. eigenvalues --   -0.67889  -0.67634  -0.66736  -0.66657  -0.65872
 Alpha  occ. eigenvalues --   -0.62467  -0.60675  -0.59424  -0.58359  -0.57638
 Alpha  occ. eigenvalues --   -0.57068  -0.55542  -0.54791  -0.54109  -0.53201
 Alpha  occ. eigenvalues --   -0.52569  -0.51979  -0.50911  -0.49912  -0.49285
 Alpha  occ. eigenvalues --   -0.48278  -0.47212  -0.46787  -0.46284  -0.45921
 Alpha  occ. eigenvalues --   -0.45346  -0.45115  -0.44485  -0.44213  -0.44045
 Alpha  occ. eigenvalues --   -0.43545  -0.43069  -0.42861  -0.42651  -0.42160
 Alpha  occ. eigenvalues --   -0.42012  -0.41553  -0.41437  -0.41254  -0.41009
 Alpha  occ. eigenvalues --   -0.40548  -0.40488  -0.40026  -0.39710  -0.39449
 Alpha  occ. eigenvalues --   -0.39114  -0.38671  -0.38028  -0.37824  -0.37758
 Alpha  occ. eigenvalues --   -0.37449  -0.37399  -0.36985  -0.36844  -0.36690
 Alpha  occ. eigenvalues --   -0.36524  -0.35778  -0.35767  -0.35545  -0.35218
 Alpha  occ. eigenvalues --   -0.34985  -0.34692  -0.34076  -0.33689  -0.33525
 Alpha  occ. eigenvalues --   -0.33294  -0.33224  -0.33130  -0.33024  -0.32857
 Alpha  occ. eigenvalues --   -0.32580  -0.32412  -0.31814  -0.31564  -0.31221
 Alpha  occ. eigenvalues --   -0.30822  -0.30362  -0.29909  -0.29356  -0.28566
 Alpha  occ. eigenvalues --   -0.28008  -0.27589  -0.26437  -0.23749  -0.22426
 Alpha  occ. eigenvalues --   -0.21244  -0.19233  -0.17141
 Alpha virt. eigenvalues --   -0.07616  -0.04405  -0.01911   0.00501   0.02210
 Alpha virt. eigenvalues --    0.03448   0.05453   0.06458   0.07415   0.07695
 Alpha virt. eigenvalues --    0.08158   0.08244   0.08673   0.08946   0.09072

 Mulliken charges:
               1
     1  C    0.007959
     2  C   -0.002589
     3  C   -0.175949
     4  C   -0.161300
     5  C   -0.197683
     6  C   -0.208853
     7  C    0.024717
     8  C    0.056520
     9  C   -0.152802
    10  C   -0.202812
    11  C    0.069489
    12  C    0.051400
    13  C   -0.279157
    14  C   -0.295977
    15  C   -0.286632
    16  C   -0.319998
    17  C   -0.115668
    18  C   -0.147291
    19  C   -0.356159
    20  C   -0.351624
    21  C   -0.124646
    22  C   -0.077243
    23  C    0.130147
    24  C    0.097796
    25  C   -0.385759
    26  C   -0.389513
    27  C   -0.127567
    28  C   -0.129456
    29  C   -0.058689
    30  C   -0.080684
    31  C   -0.127536
    32  C   -0.103964
    33  C    0.159474
    34  C    0.157345
    35  C   -0.364605
    36  C   -0.369004
    37  C   -0.133353
    38  C   -0.127075
    39  C   -0.097362
    40  C   -0.081961
    41  H    0.091370
    42  H    0.085008
    43  H    0.104587
    44  H    0.087491
    45  H    0.063958
    46  H    0.098727
    47  H    0.062167
    48  H    0.094720
    49  H    0.117337
    50  H    0.034961
    51  H    0.118018
    52  H    0.103183
    53  H    0.105216
    54  H    0.089503
    55  H    0.105670
    56  H    0.083608
    57  H    0.100230
    58  H    0.080686
    59  H    0.096914
    60  H    0.098959
    61  H    0.101906
    62  H    0.114288
    63  H    0.069358
    64  H    0.096340
    65  H    0.097284
    66  H    0.089289
    67  H    0.113082
    68  H    0.101478
    69  H    0.104801
    70  H    0.127584
    71  H    0.075550
    72  H    0.112902
    73  H    0.083332
    74  H    0.086064
    75  H    0.114400
    76  H    0.100058
    77  H    0.120496
    78  H    0.132964
    79  H    0.128647
    80  H    0.099487
    81  H    0.071329
    82  H    0.067419
    83  H    0.072818
    84  H    0.081833
    85  H    0.080356
    86  H    0.069898
    87  H    0.134333
    88  H    0.085984
    89  H    0.108129
    90  H    0.102097
    91  H    0.087924
    92  H    0.124812
    93  H    0.054958
    94  H    0.083527
    95  H    0.074608
    96  H    0.086415
 Sum of Mulliken charges =  -0.00000

 Dipole moment (field-independent basis, Debye):
    X=              0.4394    Y=             -0.4567    Z=              0.4163  Tot=              0.7582
 Quadrupole moment (field-independent basis, Debye-Ang):
   XX=           -228.3834   YY=           -231.2853   ZZ=           -253.7500
   XY=              1.9504   XZ=             -2.9506   YZ=             -1.9993

 Normal termination of Gaussian 16 at Thu Aug  1 17:11:29 2019.
