 Gaussian 16, Revision A.03,
 Gaussian 16:  ES64L-G16RevA.03 25-Dec-2016

 ---------------------------------
 # td=(NStates=1) B3LYP/6-31G(d,p)
 ---------------------------------

 --
 TD
 --
 Symbolic Z-matrix:
 Charge =  0 Multiplicity = 1

                         Standard orientation:
 ---------------------------------------------------------------------
 Center     Atomic      Atomic             Coordinates (Angstroms)
 Number     Number       Type             X           Y           Z
 ---------------------------------------------------------------------
      1          6           0      -12.258816    0.522094    0.750390
      2          6           0       12.134349   -0.145502   -0.712627
      3          6           0      -13.496760   -0.346564    0.523178
      4          6           0       13.105332    0.929718   -1.337905
      5          6           0      -13.231320   -1.858358    0.713561
      6          6           0       13.565236    1.833247   -0.197091
      7          6           0      -11.075488   -0.065114   -0.160689
      8          6           0       11.030233    0.463983    0.194493
      9          6           0      -12.291619   -2.231607   -0.596829
     10          6           0       12.396479    2.568408    0.479402
     11          6           0      -11.154642   -1.338098   -0.690888
     12          6           0       11.173059    1.619950    0.740013
     13          6           0      -11.612920    0.557686    2.205286
     14          6           0      -12.741357    1.938261    0.283556
     15          6           0       12.963555   -1.232160   -0.144710
     16          6           0       11.492607   -0.835791   -2.001498
     17          6           0       -9.926141    0.800182   -0.344592
     18          6           0        9.887230   -0.506173    0.449009
     19          6           0      -10.117158   -1.845744   -1.806223
     20          6           0       10.121918    2.213969    1.739448
     21          6           0       -8.643023    0.428199   -0.120039
     22          6           0        8.552685   -0.258065    0.299464
     23          6           0       -7.435066    1.348324   -0.348391
     24          6           0        7.444048   -1.285294    0.592743
     25          6           0       -7.672819    2.737559   -0.760624
     26          6           0        7.867377   -2.702820    0.728869
     27          6           0       -6.194752    0.823934   -0.241831
     28          6           0        6.193397   -0.773456    0.289837
     29          6           0       -4.832497    1.341419   -0.401560
     30          6           0        4.995504   -1.584129    0.525502
     31          6           0       -3.582475    0.762597   -0.246881
     32          6           0        3.769812   -1.016363    0.248213
     33          6           0       -2.404280    1.493102   -0.394211
     34          6           0        2.550642   -1.657696    0.345834
     35          6           0       -2.381480    2.954468   -0.648210
     36          6           0        2.569825   -3.203138    0.561277
     37          6           0       -1.138180    0.808923   -0.322410
     38          6           0        1.293804   -1.080259    0.079384
     39          6           0       -1.120555   -0.595804   -0.082241
     40          6           0       -0.008315   -1.578112    0.011787
     41          1           0      -13.999218   -0.048803   -0.488200
     42          1           0      -14.310930    0.047896    1.252206
     43          1           0       12.583351    1.569353   -2.094533
     44          1           0       13.969224    0.364830   -1.615521
     45          1           0      -14.028623   -2.435387    0.568147
     46          1           0      -12.679368   -2.346315    1.579328
     47          1           0       14.136712    2.598525   -0.582626
     48          1           0       14.160916    1.057200    0.513738
     49          1           0      -12.888974   -2.089749   -1.195387
     50          1           0      -12.086263   -3.312957   -0.622897
     51          1           0       11.926697    3.207753   -0.396494
     52          1           0       12.817644    3.057134    1.348057
     53          1           0      -11.344540   -0.481592    2.431150
     54          1           0      -12.344186    1.081013    2.751550
     55          1           0      -10.546178    1.084350    2.142885
     56          1           0      -13.091591    2.036243   -0.829402
     57          1           0      -11.766285    2.605008    0.336810
     58          1           0      -13.470763    2.402617    1.056963
     59          1           0       13.438311   -1.106428    0.953243
     60          1           0       13.605327   -1.553935   -1.021187
     61          1           0       12.362514   -2.112744   -0.020290
     62          1           0       10.821590   -0.047395   -2.540090
     63          1           0       10.736390   -1.594334   -1.624051
     64          1           0       12.412968   -1.348863   -2.448155
     65          1           0      -10.115443    1.881547   -0.534396
     66          1           0       10.273201   -1.608387    0.609020
     67          1           0       -9.375035   -1.077160   -2.206780
     68          1           0      -10.646908   -2.260208   -2.722470
     69          1           0       -9.674209   -2.903566   -1.337548
     70          1           0        9.678672    1.427268    2.352319
     71          1           0        9.542654    2.917641    1.360888
     72          1           0       10.834986    2.660667    2.574788
     73          1           0       -8.323094   -0.695156    0.235025
     74          1           0        8.292262    0.819936    0.262426
     75          1           0       -8.488498    2.795222   -1.457992
     76          1           0       -6.788764    3.296036   -1.164013
     77          1           0       -8.107043    3.075158    0.254069
     78          1           0        8.244650   -2.710507    1.719195
     79          1           0        8.657495   -2.990909   -0.202797
     80          1           0        7.033603   -3.529296    0.679141
     81          1           0       -6.292572   -0.143825    0.205168
     82          1           0        6.076696    0.198014   -0.280979
     83          1           0       -4.927693    2.441426   -0.533129
     84          1           0        5.142946   -2.527846    0.994485
     85          1           0       -3.505817   -0.281008   -0.180544
     86          1           0        3.710282   -0.058598   -0.168582
     87          1           0       -2.535531    3.504392   -1.799234
     88          1           0       -1.211810    3.290581   -0.477429
     89          1           0       -3.259537    3.338040   -0.082231
     90          1           0        3.066338   -3.427028    1.664658
     91          1           0        3.170004   -3.844586   -0.081420
     92          1           0        1.520234   -3.575023    0.315807
     93          1           0       -0.207535    1.192447   -0.424872
     94          1           0        1.358873   -0.016128   -0.244846
     95          1           0       -2.040399   -1.316156    0.071556
     96          1           0       -0.242321   -2.541057   -0.065311
 ---------------------------------------------------------------------

 SCF Done:  E(RB3LYP) =  -1557.50574936     A.U. after   17 cycles

 Excitation energies and oscillator strengths:

 Excited State   1:      Singlet-A      1.9387 eV  639.53 nm  f=2.8236  <S**2>=0.000
     148 ->149         0.71110
     148 <-149        -0.15818
 This state for optimization and/or second-order correction.
 Total Energy, E(TD-HF/TD-DFT) =  -1557.43450447
 Copying the excited state density for this state as the 1-particle RhoCI density.

 The electronic state is 1-A.
 Alpha  occ. eigenvalues --  -10.21187 -10.20730 -10.20710 -10.20576 -10.20430
 Alpha  occ. eigenvalues --  -10.20423 -10.20422 -10.20123 -10.20008 -10.19961
 Alpha  occ. eigenvalues --  -10.19927 -10.19703 -10.19696 -10.19298 -10.19259
 Alpha  occ. eigenvalues --  -10.19208 -10.19144 -10.19128 -10.19127 -10.19018
 Alpha  occ. eigenvalues --  -10.19010 -10.18988 -10.18929 -10.18754 -10.18753
 Alpha  occ. eigenvalues --  -10.18668 -10.18567 -10.18528 -10.18215 -10.18194
 Alpha  occ. eigenvalues --  -10.18183 -10.18134 -10.18082 -10.17976 -10.17674
 Alpha  occ. eigenvalues --  -10.17561 -10.17395 -10.17105 -10.17055 -10.15996
 Alpha  occ. eigenvalues --   -0.84500  -0.84377  -0.83595  -0.82642  -0.82037
 Alpha  occ. eigenvalues --   -0.80796  -0.78401  -0.78241  -0.77955  -0.77262
 Alpha  occ. eigenvalues --   -0.76421  -0.74719  -0.73228  -0.71694  -0.71336
 Alpha  occ. eigenvalues --   -0.69716  -0.68901  -0.68004  -0.67761  -0.67333
 Alpha  occ. eigenvalues --   -0.66938  -0.66733  -0.66071  -0.65621  -0.65247
 Alpha  occ. eigenvalues --   -0.63002  -0.61264  -0.60633  -0.58349  -0.57165
 Alpha  occ. eigenvalues --   -0.55959  -0.55257  -0.54300  -0.53602  -0.53019
 Alpha  occ. eigenvalues --   -0.51882  -0.51413  -0.50460  -0.50098  -0.48552
 Alpha  occ. eigenvalues --   -0.48240  -0.47626  -0.47459  -0.46533  -0.46316
 Alpha  occ. eigenvalues --   -0.45869  -0.45166  -0.44899  -0.44381  -0.43742
 Alpha  occ. eigenvalues --   -0.43545  -0.43321  -0.42966  -0.42642  -0.42441
 Alpha  occ. eigenvalues --   -0.42291  -0.41488  -0.41380  -0.40699  -0.40470
 Alpha  occ. eigenvalues --   -0.40091  -0.39732  -0.39484  -0.39248  -0.39156
 Alpha  occ. eigenvalues --   -0.38991  -0.38744  -0.38350  -0.38252  -0.37916
 Alpha  occ. eigenvalues --   -0.37671  -0.37344  -0.36919  -0.36480  -0.36367
 Alpha  occ. eigenvalues --   -0.36030  -0.35878  -0.35794  -0.35753  -0.35265
 Alpha  occ. eigenvalues --   -0.34903  -0.34794  -0.34371  -0.34114  -0.33633
 Alpha  occ. eigenvalues --   -0.33154  -0.33040  -0.32853  -0.32469  -0.32116
 Alpha  occ. eigenvalues --   -0.32044  -0.31843  -0.31435  -0.31188  -0.30694
 Alpha  occ. eigenvalues --   -0.30182  -0.29782  -0.28811  -0.28566  -0.27803
 Alpha  occ. eigenvalues --   -0.26938  -0.26795  -0.26040  -0.24249  -0.22878
 Alpha  occ. eigenvalues --   -0.21018  -0.19364  -0.15539
 Alpha virt. eigenvalues --   -0.08948  -0.04622  -0.01856   0.00653   0.02557
 Alpha virt. eigenvalues --    0.04059   0.05582   0.06066   0.06765   0.07255
 Alpha virt. eigenvalues --    0.07536   0.07808   0.08057   0.08461   0.08689

 Mulliken charges:
               1
     1  C    0.011320
     2  C   -0.035519
     3  C   -0.170808
     4  C   -0.155527
     5  C   -0.207952
     6  C   -0.174163
     7  C    0.049957
     8  C    0.115045
     9  C   -0.204085
    10  C   -0.207969
    11  C    0.066834
    12  C    0.013009
    13  C   -0.292546
    14  C   -0.306383
    15  C   -0.288740
    16  C   -0.284042
    17  C   -0.154949
    18  C   -0.158344
    19  C   -0.346009
    20  C   -0.354380
    21  C   -0.080858
    22  C   -0.094085
    23  C    0.111449
    24  C    0.073946
    25  C   -0.375092
    26  C   -0.352198
    27  C   -0.130653
    28  C   -0.104669
    29  C   -0.106104
    30  C   -0.079500
    31  C   -0.058276
    32  C   -0.102570
    33  C    0.119622
    34  C    0.116289
    35  C   -0.347193
    36  C   -0.362195
    37  C   -0.111741
    38  C   -0.111765
    39  C   -0.093730
    40  C   -0.104940
    41  H    0.092940
    42  H    0.069374
    43  H    0.083063
    44  H    0.088420
    45  H    0.098585
    46  H    0.099915
    47  H    0.092975
    48  H    0.071761
    49  H    0.120900
    50  H    0.083868
    51  H    0.093000
    52  H    0.105898
    53  H    0.115689
    54  H    0.105298
    55  H    0.097861
    56  H    0.100714
    57  H    0.077738
    58  H    0.097991
    59  H    0.087341
    60  H    0.092104
    61  H    0.101840
    62  H    0.094270
    63  H    0.090208
    64  H    0.085997
    65  H    0.087024
    66  H    0.077276
    67  H    0.119621
    68  H    0.101013
    69  H    0.077564
    70  H    0.124424
    71  H    0.127303
    72  H    0.075398
    73  H    0.084327
    74  H    0.084952
    75  H    0.126272
    76  H    0.114319
    77  H    0.121347
    78  H    0.138636
    79  H    0.109182
    80  H    0.098893
    81  H    0.061683
    82  H    0.088073
    83  H    0.063404
    84  H    0.082593
    85  H    0.084024
    86  H    0.070831
    87  H    0.082249
    88  H    0.095735
    89  H    0.120866
    90  H    0.087342
    91  H    0.121000
    92  H    0.095490
    93  H    0.085933
    94  H    0.064337
    95  H    0.075232
    96  H    0.085421
 Sum of Mulliken charges =  -0.00000

 Dipole moment (field-independent basis, Debye):
    X=             -2.1386    Y=              0.0915    Z=             -0.4797  Tot=              2.1937
 Quadrupole moment (field-independent basis, Debye-Ang):
   XX=           -209.2296   YY=           -235.8587   ZZ=           -256.9029
   XY=              0.2052   XZ=              5.2670   YZ=             -3.6855

 Normal termination of Gaussian 16 at Wed Jul 31 00:44:00 2019.
