 Gaussian 16, Revision A.03,
 Gaussian 16:  ES64L-G16RevA.03 25-Dec-2016

 ---------------------------------
 # td=(NStates=1) B3LYP/6-31G(d,p)
 ---------------------------------

 --
 TD
 --
 Symbolic Z-matrix:
 Charge =  0 Multiplicity = 1

                         Standard orientation:
 ---------------------------------------------------------------------
 Center     Atomic      Atomic             Coordinates (Angstroms)
 Number     Number       Type             X           Y           Z
 ---------------------------------------------------------------------
      1          6           0      -12.116563   -0.561137   -0.631632
      2          6           0       12.204897    0.072045    0.851439
      3          6           0      -13.389960    0.261484   -0.575422
      4          6           0       13.146424   -1.122805    1.212722
      5          6           0      -13.217264    1.727087   -0.779466
      6          6           0       13.550214   -2.035485    0.095736
      7          6           0      -10.966299    0.123381    0.293952
      8          6           0       11.003401   -0.391273   -0.034282
      9          6           0      -12.248314    2.239394    0.422095
     10          6           0       12.170243   -2.556875   -0.652050
     11          6           0      -11.126026    1.314434    0.766297
     12          6           0       11.021951   -1.560896   -0.706657
     13          6           0      -11.639732   -0.780397   -2.095393
     14          6           0      -12.389770   -2.055189   -0.157068
     15          6           0       13.108019    1.110687    0.032512
     16          6           0       11.744529    0.659225    2.190843
     17          6           0       -9.803571   -0.780916    0.521533
     18          6           0        9.877505    0.569567   -0.005278
     19          6           0      -10.131582    1.976984    1.753617
     20          6           0        9.867122   -2.060517   -1.656821
     21          6           0       -8.520093   -0.452020    0.338881
     22          6           0        8.546037    0.275529   -0.187747
     23          6           0       -7.391634   -1.319321    0.544892
     24          6           0        7.533164    1.361803   -0.372831
     25          6           0       -7.565885   -2.793134    1.022627
     26          6           0        7.901103    2.811971   -0.510997
     27          6           0       -6.205358   -0.771096    0.412039
     28          6           0        6.171581    0.806154   -0.451303
     29          6           0       -4.867778   -1.423346    0.438280
     30          6           0        4.913763    1.619627   -0.487626
     31          6           0       -3.740607   -0.724816    0.179251
     32          6           0        3.704453    1.103812   -0.573590
     33          6           0       -2.443711   -1.414632    0.162642
     34          6           0        2.438472    1.805195   -0.407680
     35          6           0       -2.321122   -2.853965    0.323314
     36          6           0        2.430289    3.299120   -0.623410
     37          6           0       -1.350972   -0.661866   -0.055120
     38          6           0        1.211271    1.116189   -0.256533
     39          6           0       -1.196039    0.861746   -0.181359
     40          6           0       -0.133491    1.576016   -0.264179
     41          1           0      -13.926631    0.113262    0.429099
     42          1           0      -14.024352   -0.528810   -1.178787
     43          1           0       12.391139   -1.755840    1.639287
     44          1           0       13.998168   -0.979610    1.684659
     45          1           0      -14.180372    2.385217   -0.726513
     46          1           0      -12.595814    1.842109   -1.776012
     47          1           0       13.997269   -2.928247    0.337696
     48          1           0       14.230499   -1.570802   -0.606115
     49          1           0      -12.855107    2.286405    1.178882
     50          1           0      -11.794206    3.308226    0.138954
     51          1           0       11.714688   -3.344077   -0.096370
     52          1           0       12.540999   -3.163169   -1.648880
     53          1           0      -11.359089    0.214956   -2.579670
     54          1           0      -12.221132   -1.307163   -2.718586
     55          1           0      -10.740206   -1.375653   -1.953919
     56          1           0      -12.632204   -2.119571    0.887635
     57          1           0      -11.500994   -2.591079   -0.450249
     58          1           0      -13.298525   -2.472930   -0.675651
     59          1           0       13.353338    0.758975   -0.906803
     60          1           0       13.774625    1.452942    0.773347
     61          1           0       12.334715    1.889705   -0.183299
     62          1           0       11.052828   -0.095112    2.649332
     63          1           0       11.148999    1.677604    2.169920
     64          1           0       12.516194    0.885451    2.871159
     65          1           0       -9.920126   -1.930162    0.719331
     66          1           0       10.193818    1.703149    0.223988
     67          1           0       -9.725368    1.226289    2.413222
     68          1           0      -10.584170    2.632201    2.441519
     69          1           0       -9.206978    2.857687    1.365514
     70          1           0        9.356074   -1.202251   -1.858873
     71          1           0        9.460780   -2.813725   -1.270106
     72          1           0       10.218900   -2.503376   -2.506955
     73          1           0       -8.339021    0.554304    0.298396
     74          1           0        8.218170   -0.792295   -0.090748
     75          1           0       -8.364354   -2.775928    1.840789
     76          1           0       -6.764920   -3.177872    1.266494
     77          1           0       -8.055875   -3.272365    0.290475
     78          1           0        8.328947    2.980214   -1.423270
     79          1           0        8.639627    3.137926    0.219884
     80          1           0        6.971092    3.538660   -0.435821
     81          1           0       -6.028046    0.322443    0.355081
     82          1           0        6.047000   -0.196262   -0.216642
     83          1           0       -4.821517   -2.517162    0.432381
     84          1           0        4.934784    2.720957   -0.392574
     85          1           0       -3.849547    0.430303    0.005208
     86          1           0        3.769918   -0.047218   -0.435968
     87          1           0       -2.994774   -3.276122    1.078201
     88          1           0       -1.398340   -3.240300    0.451572
     89          1           0       -2.809084   -3.455323   -0.510545
     90          1           0        2.944004    3.730778   -1.618306
     91          1           0        3.147888    3.834271    0.056210
     92          1           0        1.451696    3.807744   -0.403763
     93          1           0       -0.381532   -1.248604   -0.093254
     94          1           0        1.447962    0.082549   -0.262515
     95          1           0       -2.254668    1.326272   -0.011009
     96          1           0       -0.229149    2.749851   -0.564402
 ---------------------------------------------------------------------

 SCF Done:  E(RB3LYP) =  -1557.55926187     A.U. after   14 cycles

 Excitation energies and oscillator strengths:

 Excited State   1:      Singlet-A      2.4932 eV  497.29 nm  f=2.6990  <S**2>=0.000
     148 ->149         0.69768
 This state for optimization and/or second-order correction.
 Total Energy, E(TD-HF/TD-DFT) =  -1557.46763796
 Copying the excited state density for this state as the 1-particle RhoCI density.

 The electronic state is 1-A.
 Alpha  occ. eigenvalues --  -10.21620 -10.20619 -10.20113 -10.20095 -10.19880
 Alpha  occ. eigenvalues --  -10.19809 -10.19809 -10.19656 -10.19523 -10.19508
 Alpha  occ. eigenvalues --  -10.19458 -10.19456 -10.19440 -10.19376 -10.19345
 Alpha  occ. eigenvalues --  -10.19108 -10.19012 -10.18999 -10.18943 -10.18761
 Alpha  occ. eigenvalues --  -10.18714 -10.18712 -10.18657 -10.18613 -10.18587
 Alpha  occ. eigenvalues --  -10.18430 -10.18420 -10.18317 -10.18288 -10.18163
 Alpha  occ. eigenvalues --  -10.17846 -10.17810 -10.17264 -10.17245 -10.17009
 Alpha  occ. eigenvalues --  -10.16599 -10.16419 -10.16209 -10.15944 -10.14797
 Alpha  occ. eigenvalues --   -0.84625  -0.84375  -0.83602  -0.82630  -0.82072
 Alpha  occ. eigenvalues --   -0.80767  -0.79088  -0.78437  -0.78137  -0.77097
 Alpha  occ. eigenvalues --   -0.76521  -0.75072  -0.74377  -0.72528  -0.72432
 Alpha  occ. eigenvalues --   -0.70150  -0.69817  -0.69647  -0.68349  -0.67982
 Alpha  occ. eigenvalues --   -0.67785  -0.67421  -0.67040  -0.66852  -0.66435
 Alpha  occ. eigenvalues --   -0.62132  -0.61498  -0.59714  -0.58883  -0.57365
 Alpha  occ. eigenvalues --   -0.56540  -0.55797  -0.54089  -0.53649  -0.52980
 Alpha  occ. eigenvalues --   -0.52702  -0.51797  -0.51004  -0.49198  -0.48911
 Alpha  occ. eigenvalues --   -0.48222  -0.47827  -0.47240  -0.46508  -0.45973
 Alpha  occ. eigenvalues --   -0.45781  -0.45086  -0.44796  -0.44773  -0.44624
 Alpha  occ. eigenvalues --   -0.43888  -0.43133  -0.42697  -0.42444  -0.42363
 Alpha  occ. eigenvalues --   -0.41888  -0.41670  -0.41434  -0.41280  -0.40978
 Alpha  occ. eigenvalues --   -0.40834  -0.40407  -0.40105  -0.40091  -0.39804
 Alpha  occ. eigenvalues --   -0.39718  -0.39171  -0.38861  -0.38725  -0.38396
 Alpha  occ. eigenvalues --   -0.38158  -0.38006  -0.37575  -0.37001  -0.36862
 Alpha  occ. eigenvalues --   -0.36502  -0.36182  -0.35909  -0.35803  -0.35383
 Alpha  occ. eigenvalues --   -0.34956  -0.34827  -0.34500  -0.34327  -0.34108
 Alpha  occ. eigenvalues --   -0.34034  -0.33563  -0.33385  -0.33018  -0.32813
 Alpha  occ. eigenvalues --   -0.32624  -0.31945  -0.31530  -0.31209  -0.30825
 Alpha  occ. eigenvalues --   -0.29812  -0.29740  -0.29597  -0.28836  -0.28063
 Alpha  occ. eigenvalues --   -0.27266  -0.27059  -0.25816  -0.24524  -0.23405
 Alpha  occ. eigenvalues --   -0.21246  -0.18982  -0.16946
 Alpha virt. eigenvalues --   -0.07170  -0.04691  -0.01888   0.00984   0.02821
 Alpha virt. eigenvalues --    0.04209   0.06008   0.06795   0.07064   0.07404
 Alpha virt. eigenvalues --    0.07619   0.08142   0.08569   0.08648   0.08996

 Mulliken charges:
               1
     1  C   -0.034148
     2  C   -0.026476
     3  C   -0.140158
     4  C   -0.150909
     5  C   -0.197246
     6  C   -0.193890
     7  C    0.097913
     8  C    0.071324
     9  C   -0.217022
    10  C   -0.251938
    11  C    0.055005
    12  C    0.027847
    13  C   -0.287427
    14  C   -0.304698
    15  C   -0.291878
    16  C   -0.298475
    17  C   -0.174062
    18  C   -0.126470
    19  C   -0.348489
    20  C   -0.348531
    21  C   -0.059815
    22  C   -0.121582
    23  C    0.100542
    24  C    0.101720
    25  C   -0.342829
    26  C   -0.375536
    27  C   -0.134307
    28  C   -0.141506
    29  C   -0.090477
    30  C   -0.062037
    31  C   -0.107100
    32  C   -0.112558
    33  C    0.158679
    34  C    0.115596
    35  C   -0.388542
    36  C   -0.382922
    37  C   -0.153527
    38  C   -0.105410
    39  C   -0.064172
    40  C   -0.091316
    41  H    0.070993
    42  H    0.067677
    43  H    0.093653
    44  H    0.086788
    45  H    0.086572
    46  H    0.087707
    47  H    0.101209
    48  H    0.092801
    49  H    0.126307
    50  H    0.088942
    51  H    0.116856
    52  H    0.072225
    53  H    0.087799
    54  H    0.111851
    55  H    0.102408
    56  H    0.104723
    57  H    0.103684
    58  H    0.089493
    59  H    0.117537
    60  H    0.104717
    61  H    0.084049
    62  H    0.106184
    63  H    0.076540
    64  H    0.106178
    65  H    0.066261
    66  H    0.075922
    67  H    0.122356
    68  H    0.112345
    69  H    0.056787
    70  H    0.129990
    71  H    0.120526
    72  H    0.105920
    73  H    0.085043
    74  H    0.104152
    75  H    0.111060
    76  H    0.106245
    77  H    0.131677
    78  H    0.145762
    79  H    0.123524
    80  H    0.102461
    81  H    0.071240
    82  H    0.082934
    83  H    0.074404
    84  H    0.069042
    85  H    0.087460
    86  H    0.062358
    87  H    0.117465
    88  H    0.121059
    89  H    0.112407
    90  H    0.106121
    91  H    0.109150
    92  H    0.108967
    93  H    0.064926
    94  H    0.075691
    95  H    0.070275
    96  H    0.076403
 Sum of Mulliken charges =  -0.00000

 Dipole moment (field-independent basis, Debye):
    X=              1.2055    Y=             -0.9517    Z=              0.7817  Tot=              1.7234
 Quadrupole moment (field-independent basis, Debye-Ang):
   XX=           -215.2403   YY=           -228.8548   ZZ=           -256.4294
   XY=             -0.5624   XZ=             -2.7970   YZ=              0.7453

 Normal termination of Gaussian 16 at Tue Jul 23 06:16:03 2019.
