 Gaussian 16, Revision A.03,
 Gaussian 16:  ES64L-G16RevA.03 25-Dec-2016

 ---------------------------------
 # td=(NStates=1) B3LYP/6-31G(d,p)
 ---------------------------------

 --
 TD
 --
 Symbolic Z-matrix:
 Charge =  0 Multiplicity = 1

                         Standard orientation:
 ---------------------------------------------------------------------
 Center     Atomic      Atomic             Coordinates (Angstroms)
 Number     Number       Type             X           Y           Z
 ---------------------------------------------------------------------
      1          6           0       12.185049    0.421259   -0.631336
      2          6           0      -12.204221   -0.059472    0.915632
      3          6           0       13.342797   -0.386798   -0.476970
      4          6           0      -13.061149    1.110436    1.339999
      5          6           0       13.059982   -1.927054   -0.399838
      6          6           0      -13.368388    2.056276    0.300892
      7          6           0       11.022423    0.033552    0.382833
      8          6           0      -11.045752    0.311537   -0.037812
      9          6           0       12.250949   -2.123719    0.846300
     10          6           0      -12.040719    2.627749   -0.337931
     11          6           0       11.034305   -1.141517    0.995068
     12          6           0      -10.910283    1.621301   -0.574412
     13          6           0       11.538970    0.327119   -2.130605
     14          6           0       12.594486    1.901634   -0.385304
     15          6           0      -13.056066   -1.125344   -0.008175
     16          6           0      -11.577222   -0.948017    2.138117
     17          6           0        9.838541    0.833858    0.426835
     18          6           0       -9.998505   -0.670097   -0.301532
     19          6           0       10.052253   -1.554408    2.114075
     20          6           0       -9.928444    2.260792   -1.514884
     21          6           0        8.555371    0.523222    0.249784
     22          6           0       -8.655756   -0.455773   -0.248081
     23          6           0        7.366824    1.327597    0.396920
     24          6           0       -7.486151   -1.391736   -0.383776
     25          6           0        7.508053    2.797257    0.783310
     26          6           0       -7.743090   -2.790896   -0.825959
     27          6           0        6.183715    0.756526    0.106432
     28          6           0       -6.177987   -0.908790   -0.273521
     29          6           0        4.862973    1.524293    0.097554
     30          6           0       -4.926444   -1.519407   -0.388188
     31          6           0        3.755148    0.822602    0.007795
     32          6           0       -3.661616   -1.015389   -0.316430
     33          6           0        2.378025    1.350440    0.110106
     34          6           0       -2.478351   -1.714825   -0.480808
     35          6           0        2.241229    2.813274    0.282235
     36          6           0       -2.505304   -3.147958   -0.685737
     37          6           0        1.243693    0.686137   -0.031348
     38          6           0       -1.282341   -1.052415   -0.238005
     39          6           0        1.168916   -0.745865   -0.352270
     40          6           0        0.051973   -1.572717   -0.489417
     41          1           0       14.089380   -0.068675    0.238609
     42          1           0       14.075966   -0.215500   -1.452495
     43          1           0      -12.348214    1.535797    2.217146
     44          1           0      -13.937122    0.663263    2.051594
     45          1           0       14.039033   -2.570101   -0.262009
     46          1           0       12.574651   -2.235580   -1.176299
     47          1           0      -14.133175    2.858070    0.782388
     48          1           0      -14.020185    1.565393   -0.485763
     49          1           0       12.831004   -2.147123    1.783591
     50          1           0       11.875194   -3.153339    0.952994
     51          1           0      -11.526315    3.426020    0.052501
     52          1           0      -12.385023    3.134760   -1.291652
     53          1           0       11.267074   -0.790180   -2.052529
     54          1           0       12.224805    0.591400   -3.033519
     55          1           0       10.553843    1.025515   -2.287040
     56          1           0       12.853205    1.867583    0.530314
     57          1           0       11.862959    2.505926   -0.334256
     58          1           0       13.411926    2.177534   -1.034642
     59          1           0      -13.647123   -0.638856   -0.647701
     60          1           0      -13.834215   -1.253022    0.677306
     61          1           0      -12.379900   -1.945147   -0.281357
     62          1           0      -10.843148   -0.479554    2.811110
     63          1           0      -11.022324   -1.875396    1.741155
     64          1           0      -12.455927   -1.253433    2.810086
     65          1           0       10.062308    1.917820    0.461396
     66          1           0      -10.214638   -1.751822   -0.584259
     67          1           0        9.196187   -0.826255    2.276965
     68          1           0       10.589218   -1.639471    3.011845
     69          1           0        9.594728   -2.572149    1.701783
     70          1           0       -9.365286    1.369471   -2.256169
     71          1           0       -9.072113    2.735413   -1.056994
     72          1           0      -10.401514    2.981075   -2.204662
     73          1           0        8.297140   -0.661805    0.255192
     74          1           0       -8.404666    0.611733   -0.438523
     75          1           0        8.332228    2.840966    1.653846
     76          1           0        6.538684    3.421823    0.720214
     77          1           0        8.083906    3.515826   -0.061329
     78          1           0       -8.175919   -3.027556   -1.864492
     79          1           0       -8.358379   -3.311093   -0.096315
     80          1           0       -6.640378   -3.381167   -0.748014
     81          1           0        6.203208   -0.271567    0.012120
     82          1           0       -6.210353    0.256818   -0.207292
     83          1           0        4.817664    2.621722    0.342101
     84          1           0       -5.008937   -2.643262   -0.544908
     85          1           0        3.685431   -0.164148   -0.069803
     86          1           0       -3.745790    0.045910    0.015697
     87          1           0        2.897126    3.292656    1.103907
     88          1           0        1.101389    3.090458    0.514048
     89          1           0        2.611770    3.317919   -0.694363
     90          1           0       -2.824910   -3.506573   -1.711763
     91          1           0       -3.156116   -3.715322    0.132007
     92          1           0       -1.503387   -3.560639   -0.617130
     93          1           0        0.256240    1.010268    0.127967
     94          1           0       -1.494466   -0.040600    0.034137
     95          1           0        2.208489   -1.248964   -0.722164
     96          1           0        0.207465   -2.560831   -0.683844
 ---------------------------------------------------------------------

 SCF Done:  E(RB3LYP) =  -1557.55053974     A.U. after   15 cycles

 Excitation energies and oscillator strengths:

 Excited State   1:      Singlet-A      2.3060 eV  537.66 nm  f=2.7596  <S**2>=0.000
     148 ->149         0.69247
     148 ->150         0.11108
 This state for optimization and/or second-order correction.
 Total Energy, E(TD-HF/TD-DFT) =  -1557.46579586
 Copying the excited state density for this state as the 1-particle RhoCI density.

 The electronic state is 1-A.
 Alpha  occ. eigenvalues --  -10.21378 -10.20897 -10.20556 -10.20379 -10.20085
 Alpha  occ. eigenvalues --  -10.20054 -10.19987 -10.19964 -10.19838 -10.19721
 Alpha  occ. eigenvalues --  -10.19645 -10.19638 -10.19633 -10.19536 -10.19441
 Alpha  occ. eigenvalues --  -10.19303 -10.19284 -10.19243 -10.19225 -10.19149
 Alpha  occ. eigenvalues --  -10.19119 -10.19041 -10.18898 -10.18829 -10.18796
 Alpha  occ. eigenvalues --  -10.18638 -10.18600 -10.18577 -10.18564 -10.18474
 Alpha  occ. eigenvalues --  -10.18452 -10.18437 -10.18356 -10.18231 -10.18210
 Alpha  occ. eigenvalues --  -10.17971 -10.17879 -10.17770 -10.15963 -10.13825
 Alpha  occ. eigenvalues --   -0.85451  -0.84341  -0.84227  -0.83700  -0.82286
 Alpha  occ. eigenvalues --   -0.81204  -0.79098  -0.78421  -0.77899  -0.77643
 Alpha  occ. eigenvalues --   -0.77097  -0.75569  -0.74199  -0.72293  -0.72003
 Alpha  occ. eigenvalues --   -0.69505  -0.69245  -0.68258  -0.67989  -0.67740
 Alpha  occ. eigenvalues --   -0.67480  -0.67317  -0.66555  -0.65980  -0.65836
 Alpha  occ. eigenvalues --   -0.62825  -0.61888  -0.60650  -0.59538  -0.57654
 Alpha  occ. eigenvalues --   -0.56717  -0.55704  -0.54917  -0.54202  -0.52641
 Alpha  occ. eigenvalues --   -0.52369  -0.51478  -0.50463  -0.49472  -0.49117
 Alpha  occ. eigenvalues --   -0.48285  -0.47800  -0.47362  -0.46701  -0.46565
 Alpha  occ. eigenvalues --   -0.45957  -0.45323  -0.44527  -0.44098  -0.43405
 Alpha  occ. eigenvalues --   -0.43136  -0.43111  -0.43003  -0.42578  -0.42163
 Alpha  occ. eigenvalues --   -0.41866  -0.41686  -0.41381  -0.41076  -0.40739
 Alpha  occ. eigenvalues --   -0.40639  -0.40573  -0.40212  -0.40027  -0.39825
 Alpha  occ. eigenvalues --   -0.39568  -0.39427  -0.38764  -0.38191  -0.38016
 Alpha  occ. eigenvalues --   -0.37799  -0.37276  -0.37116  -0.36765  -0.36736
 Alpha  occ. eigenvalues --   -0.36525  -0.36005  -0.35931  -0.35364  -0.35231
 Alpha  occ. eigenvalues --   -0.35186  -0.34798  -0.34736  -0.34163  -0.34023
 Alpha  occ. eigenvalues --   -0.33602  -0.33311  -0.32989  -0.32840  -0.32727
 Alpha  occ. eigenvalues --   -0.31936  -0.31581  -0.31174  -0.30969  -0.30862
 Alpha  occ. eigenvalues --   -0.30221  -0.29711  -0.29243  -0.28925  -0.28593
 Alpha  occ. eigenvalues --   -0.28167  -0.27361  -0.25889  -0.24366  -0.22788
 Alpha  occ. eigenvalues --   -0.20708  -0.19402  -0.16652
 Alpha virt. eigenvalues --   -0.07983  -0.04946  -0.01836   0.00535   0.02334
 Alpha virt. eigenvalues --    0.03864   0.05390   0.06674   0.06810   0.06839
 Alpha virt. eigenvalues --    0.07277   0.07355   0.07404   0.08944   0.09187

 Mulliken charges:
               1
     1  C    0.001456
     2  C   -0.017434
     3  C   -0.168602
     4  C   -0.165418
     5  C   -0.177833
     6  C   -0.178834
     7  C    0.075325
     8  C    0.097874
     9  C   -0.220408
    10  C   -0.229986
    11  C    0.035162
    12  C    0.066685
    13  C   -0.282852
    14  C   -0.288859
    15  C   -0.296551
    16  C   -0.306644
    17  C   -0.147404
    18  C   -0.149609
    19  C   -0.348467
    20  C   -0.370585
    21  C   -0.091422
    22  C   -0.094199
    23  C    0.159231
    24  C    0.107959
    25  C   -0.363001
    26  C   -0.369616
    27  C   -0.125210
    28  C   -0.112426
    29  C   -0.100545
    30  C   -0.079801
    31  C   -0.035172
    32  C   -0.116263
    33  C    0.120803
    34  C    0.150833
    35  C   -0.376464
    36  C   -0.381574
    37  C   -0.108237
    38  C   -0.115620
    39  C   -0.105919
    40  C   -0.095408
    41  H    0.101672
    42  H    0.053723
    43  H    0.080438
    44  H    0.068889
    45  H    0.074813
    46  H    0.117343
    47  H    0.078055
    48  H    0.102298
    49  H    0.102242
    50  H    0.087411
    51  H    0.121475
    52  H    0.090994
    53  H    0.092007
    54  H    0.089611
    55  H    0.089729
    56  H    0.106018
    57  H    0.098510
    58  H    0.096395
    59  H    0.106603
    60  H    0.096248
    61  H    0.111361
    62  H    0.110101
    63  H    0.098092
    64  H    0.086954
    65  H    0.068332
    66  H    0.076941
    67  H    0.115203
    68  H    0.120355
    69  H    0.092694
    70  H    0.082457
    71  H    0.131438
    72  H    0.111252
    73  H    0.059062
    74  H    0.074900
    75  H    0.114272
    76  H    0.109349
    77  H    0.082461
    78  H    0.120674
    79  H    0.120439
    80  H    0.074771
    81  H    0.080703
    82  H    0.059824
    83  H    0.086778
    84  H    0.064661
    85  H    0.064964
    86  H    0.073596
    87  H    0.101529
    88  H    0.092661
    89  H    0.115159
    90  H    0.114811
    91  H    0.108193
    92  H    0.107648
    93  H    0.086413
    94  H    0.081661
    95  H    0.061657
    96  H    0.089196
 Sum of Mulliken charges =  -0.00000

 Dipole moment (field-independent basis, Debye):
    X=              0.5716    Y=              0.3594    Z=              0.3054  Tot=              0.7410
 Quadrupole moment (field-independent basis, Debye-Ang):
   XX=           -218.1640   YY=           -235.6182   ZZ=           -256.2213
   XY=             -7.2339   XZ=              8.2546   YZ=              1.0218

 Normal termination of Gaussian 16 at Sat Jul 27 03:04:10 2019.
