 Gaussian 16, Revision A.03,
 Gaussian 16:  ES64L-G16RevA.03 25-Dec-2016

 ---------------------------------
 # td=(NStates=1) B3LYP/6-31G(d,p)
 ---------------------------------

 --
 TD
 --
 Symbolic Z-matrix:
 Charge =  0 Multiplicity = 1

                         Standard orientation:
 ---------------------------------------------------------------------
 Center     Atomic      Atomic             Coordinates (Angstroms)
 Number     Number       Type             X           Y           Z
 ---------------------------------------------------------------------
      1          6           0       12.111033    0.603826   -0.700755
      2          6           0      -12.275769   -0.069346    0.710684
      3          6           0       13.364876   -0.395583   -0.685866
      4          6           0      -13.188719    1.100089    1.163866
      5          6           0       12.973328   -1.853101   -0.663109
      6          6           0      -13.552010    1.916435   -0.144264
      7          6           0       10.935408    0.013044    0.247405
      8          6           0      -11.013190    0.395564   -0.146071
      9          6           0       12.230629   -2.267309    0.575965
     10          6           0      -12.190345    2.591858   -0.444642
     11          6           0       11.041199   -1.230247    0.775639
     12          6           0      -10.959156    1.604752   -0.676514
     13          6           0       11.508328    0.603332   -2.132305
     14          6           0       12.658240    1.975197   -0.161176
     15          6           0      -13.011806   -1.209030   -0.166593
     16          6           0      -11.739702   -0.792890    2.036179
     17          6           0        9.811135    0.884675    0.421861
     18          6           0       -9.873826   -0.454093   -0.306002
     19          6           0       10.042461   -1.716425    1.875092
     20          6           0       -9.764569    2.234353   -1.459737
     21          6           0        8.551799    0.443454    0.174159
     22          6           0       -8.576122   -0.282744   -0.090567
     23          6           0        7.358201    1.265705    0.317745
     24          6           0       -7.485714   -1.295904   -0.279015
     25          6           0        7.618595    2.695953    0.597527
     26          6           0       -7.832853   -2.676612   -0.554175
     27          6           0        6.250508    0.741886    0.216999
     28          6           0       -6.158389   -0.821091   -0.119056
     29          6           0        4.962742    1.373837    0.331508
     30          6           0       -5.023645   -1.638649   -0.381918
     31          6           0        3.767638    0.652793    0.234350
     32          6           0       -3.779413   -1.122039   -0.222292
     33          6           0        2.477859    1.322950    0.258022
     34          6           0       -2.476175   -1.807686   -0.295447
     35          6           0        2.417413    2.758799    0.642770
     36          6           0       -2.459113   -3.197012   -0.690657
     37          6           0        1.305937    0.620626    0.243618
     38          6           0       -1.299050   -1.020799   -0.131268
     39          6           0        1.104769   -0.754277   -0.095190
     40          6           0        0.053854   -1.489482   -0.257045
     41          1           0       13.851629   -0.110849    0.458658
     42          1           0       14.088209   -0.158163   -1.412088
     43          1           0      -12.786885    1.597673    2.048213
     44          1           0      -14.200180    0.547263    1.402930
     45          1           0       14.003876   -2.419704   -0.731441
     46          1           0       12.255749   -1.939150   -1.525081
     47          1           0      -14.356351    2.634393    0.102425
     48          1           0      -13.803171    1.166480   -1.064554
     49          1           0       12.755920   -2.300444    1.573728
     50          1           0       11.709634   -3.157127    0.601693
     51          1           0      -12.002009    3.431743    0.296555
     52          1           0      -12.215899    3.278645   -1.471223
     53          1           0       11.320273   -0.326003   -2.564975
     54          1           0       12.197881    1.023282   -2.890401
     55          1           0       10.569694    1.131007   -2.229562
     56          1           0       12.870453    1.946664    0.752492
     57          1           0       11.937869    2.768562   -0.369082
     58          1           0       13.599110    2.426764   -0.681777
     59          1           0      -13.494055   -0.841848   -1.064618
     60          1           0      -13.822542   -1.699806    0.407453
     61          1           0      -12.153545   -1.888694   -0.469903
     62          1           0      -11.145943    0.023806    2.673210
     63          1           0      -11.226737   -1.735461    1.852488
     64          1           0      -12.580760   -0.910570    2.596636
     65          1           0       10.002183    1.920864    0.898964
     66          1           0      -10.106299   -1.581939   -0.566964
     67          1           0        9.515050   -0.766506    2.174132
     68          1           0       10.802715   -2.195340    2.492477
     69          1           0        9.332350   -2.465375    1.580915
     70          1           0       -9.107330    1.405896   -1.952728
     71          1           0       -8.966014    2.853628   -0.797015
     72          1           0      -10.148105    2.918544   -2.183948
     73          1           0        8.514376   -0.674823   -0.228533
     74          1           0       -8.217307    0.639057    0.135669
     75          1           0        8.384147    2.862201    1.574787
     76          1           0        6.781618    3.340453    0.733433
     77          1           0        8.313055    3.123248   -0.127499
     78          1           0       -8.213518   -2.862729   -1.578716
     79          1           0       -8.576332   -3.014925    0.145839
     80          1           0       -6.914614   -3.297995   -0.499909
     81          1           0        6.267727   -0.333329   -0.029627
     82          1           0       -6.142011    0.355462    0.126659
     83          1           0        5.170737    2.359851    0.858680
     84          1           0       -4.947651   -2.621082   -0.385464
     85          1           0        4.088265   -0.338120   -0.333863
     86          1           0       -3.601834   -0.034546   -0.023506
     87          1           0        2.988620    2.967140    1.628457
     88          1           0        1.325080    2.935349    0.600084
     89          1           0        2.945176    3.197738   -0.139547
     90          1           0       -2.861234   -3.189214   -1.828639
     91          1           0       -3.101177   -3.882609   -0.188872
     92          1           0       -1.394918   -3.743859   -0.550959
     93          1           0        0.374987    1.189468    0.469804
     94          1           0       -1.444888    0.120663    0.253484
     95          1           0        2.111111   -1.383894   -0.084197
     96          1           0        0.135493   -2.520605   -0.583524
 ---------------------------------------------------------------------

 SCF Done:  E(RB3LYP) =  -1557.60616957     A.U. after   14 cycles

 Excitation energies and oscillator strengths:

 Excited State   1:      Singlet-A      2.3818 eV  520.54 nm  f=2.7295  <S**2>=0.000
     148 ->149         0.70233
 This state for optimization and/or second-order correction.
 Total Energy, E(TD-HF/TD-DFT) =  -1557.51863915
 Copying the excited state density for this state as the 1-particle RhoCI density.

 The electronic state is 1-A.
 Alpha  occ. eigenvalues --  -10.20930 -10.20647 -10.20431 -10.20296 -10.20250
 Alpha  occ. eigenvalues --  -10.20115 -10.20069 -10.20052 -10.19851 -10.19845
 Alpha  occ. eigenvalues --  -10.19788 -10.19632 -10.19314 -10.19299 -10.19136
 Alpha  occ. eigenvalues --  -10.19123 -10.19064 -10.18964 -10.18936 -10.18930
 Alpha  occ. eigenvalues --  -10.18750 -10.18746 -10.18732 -10.18645 -10.18424
 Alpha  occ. eigenvalues --  -10.18393 -10.18368 -10.18315 -10.18232 -10.18018
 Alpha  occ. eigenvalues --  -10.17994 -10.17970 -10.17928 -10.17879 -10.17452
 Alpha  occ. eigenvalues --  -10.17303 -10.17249 -10.17074 -10.16508 -10.16228
 Alpha  occ. eigenvalues --   -0.85296  -0.84096  -0.83710  -0.83362  -0.82729
 Alpha  occ. eigenvalues --   -0.81430  -0.79439  -0.78153  -0.77555  -0.77321
 Alpha  occ. eigenvalues --   -0.75998  -0.75157  -0.74636  -0.71947  -0.71778
 Alpha  occ. eigenvalues --   -0.70070  -0.69359  -0.69269  -0.68346  -0.67620
 Alpha  occ. eigenvalues --   -0.67291  -0.67108  -0.66760  -0.66200  -0.65338
 Alpha  occ. eigenvalues --   -0.62422  -0.61383  -0.59074  -0.58653  -0.56906
 Alpha  occ. eigenvalues --   -0.56246  -0.55106  -0.54652  -0.53716  -0.52999
 Alpha  occ. eigenvalues --   -0.52604  -0.51977  -0.50561  -0.49928  -0.48410
 Alpha  occ. eigenvalues --   -0.48068  -0.47098  -0.46709  -0.45970  -0.45833
 Alpha  occ. eigenvalues --   -0.45449  -0.44978  -0.44548  -0.44156  -0.44010
 Alpha  occ. eigenvalues --   -0.43544  -0.42828  -0.42470  -0.42150  -0.42108
 Alpha  occ. eigenvalues --   -0.42054  -0.41812  -0.41104  -0.41012  -0.40512
 Alpha  occ. eigenvalues --   -0.40481  -0.40157  -0.39572  -0.39449  -0.39399
 Alpha  occ. eigenvalues --   -0.39261  -0.38855  -0.38553  -0.38408  -0.38147
 Alpha  occ. eigenvalues --   -0.37879  -0.37737  -0.37146  -0.36735  -0.36691
 Alpha  occ. eigenvalues --   -0.36475  -0.36206  -0.36130  -0.36045  -0.35691
 Alpha  occ. eigenvalues --   -0.35226  -0.35132  -0.34813  -0.34457  -0.33876
 Alpha  occ. eigenvalues --   -0.33493  -0.33295  -0.33141  -0.33078  -0.32672
 Alpha  occ. eigenvalues --   -0.32115  -0.32069  -0.32034  -0.31768  -0.30472
 Alpha  occ. eigenvalues --   -0.30102  -0.29440  -0.29287  -0.28793  -0.28597
 Alpha  occ. eigenvalues --   -0.27596  -0.27186  -0.26033  -0.24201  -0.22908
 Alpha  occ. eigenvalues --   -0.21556  -0.19550  -0.16878
 Alpha virt. eigenvalues --   -0.07711  -0.04731  -0.01239   0.00923   0.02919
 Alpha virt. eigenvalues --    0.04087   0.05636   0.06498   0.07134   0.07537
 Alpha virt. eigenvalues --    0.07762   0.08081   0.08567   0.08721   0.08897

 Mulliken charges:
               1
     1  C    0.007480
     2  C   -0.003231
     3  C   -0.147022
     4  C   -0.178391
     5  C   -0.183153
     6  C   -0.179335
     7  C    0.048004
     8  C    0.106818
     9  C   -0.197301
    10  C   -0.208864
    11  C    0.009944
    12  C    0.056988
    13  C   -0.315843
    14  C   -0.304024
    15  C   -0.307608
    16  C   -0.300145
    17  C   -0.143047
    18  C   -0.155514
    19  C   -0.352392
    20  C   -0.353513
    21  C   -0.112503
    22  C   -0.061619
    23  C    0.202670
    24  C    0.119597
    25  C   -0.388773
    26  C   -0.386324
    27  C   -0.132672
    28  C   -0.124071
    29  C   -0.096625
    30  C   -0.069669
    31  C   -0.116497
    32  C   -0.111897
    33  C    0.087667
    34  C    0.127952
    35  C   -0.350670
    36  C   -0.385639
    37  C   -0.112273
    38  C   -0.121542
    39  C   -0.074406
    40  C   -0.080437
    41  H    0.040631
    42  H    0.098143
    43  H    0.105545
    44  H    0.075180
    45  H    0.074185
    46  H    0.102159
    47  H    0.095766
    48  H    0.092422
    49  H    0.102665
    50  H    0.113893
    51  H    0.099635
    52  H    0.048923
    53  H    0.108346
    54  H    0.086674
    55  H    0.106066
    56  H    0.120383
    57  H    0.093153
    58  H    0.081729
    59  H    0.104823
    60  H    0.097123
    61  H    0.100702
    62  H    0.080715
    63  H    0.103982
    64  H    0.111188
    65  H    0.086175
    66  H    0.052324
    67  H    0.118357
    68  H    0.099305
    69  H    0.111060
    70  H    0.114554
    71  H    0.091518
    72  H    0.110401
    73  H    0.086729
    74  H    0.065045
    75  H    0.084511
    76  H    0.110056
    77  H    0.132267
    78  H    0.122586
    79  H    0.125727
    80  H    0.104473
    81  H    0.064064
    82  H    0.078513
    83  H    0.077095
    84  H    0.077970
    85  H    0.089608
    86  H    0.065829
    87  H    0.115893
    88  H    0.104826
    89  H    0.131958
    90  H    0.111602
    91  H    0.129801
    92  H    0.094092
    93  H    0.070731
    94  H    0.070029
    95  H    0.064559
    96  H    0.082192
 Sum of Mulliken charges =  -0.00000

 Dipole moment (field-independent basis, Debye):
    X=              0.0612    Y=             -0.1998    Z=              0.2004  Tot=              0.2895
 Quadrupole moment (field-independent basis, Debye-Ang):
   XX=           -228.6359   YY=           -235.0583   ZZ=           -255.8810
   XY=              3.3145   XZ=             -4.0139   YZ=              4.6844

 Normal termination of Gaussian 16 at Fri Aug  2 01:22:50 2019.
