 Gaussian 16, Revision A.03,
 Gaussian 16:  ES64L-G16RevA.03 25-Dec-2016

 ---------------------------------
 # td=(NStates=1) B3LYP/6-31G(d,p)
 ---------------------------------

 --
 TD
 --
 Symbolic Z-matrix:
 Charge =  0 Multiplicity = 1

                         Standard orientation:
 ---------------------------------------------------------------------
 Center     Atomic      Atomic             Coordinates (Angstroms)
 Number     Number       Type             X           Y           Z
 ---------------------------------------------------------------------
      1          6           0      -12.088454   -0.554778   -0.679183
      2          6           0       12.031547   -0.006905    0.874866
      3          6           0      -13.293236    0.294487   -0.547420
      4          6           0       12.957796   -1.092076    1.292914
      5          6           0      -13.099931    1.734271   -0.723380
      6          6           0       13.391267   -1.974317    0.120350
      7          6           0      -11.025436    0.036957    0.363996
      8          6           0       11.000531   -0.359962   -0.153263
      9          6           0      -12.159567    2.290444    0.491955
     10          6           0       12.115580   -2.552501   -0.635719
     11          6           0      -11.020449    1.398902    0.681377
     12          6           0       10.990585   -1.569167   -0.795238
     13          6           0      -11.608378   -0.667772   -2.085359
     14          6           0      -12.361274   -1.979992   -0.191864
     15          6           0       12.941922    1.145296    0.156231
     16          6           0       11.433492    0.518089    2.147911
     17          6           0       -9.814880   -0.800780    0.494682
     18          6           0        9.871347    0.541867   -0.321221
     19          6           0      -10.091041    1.995017    1.700196
     20          6           0       10.004758   -2.077691   -1.884701
     21          6           0       -8.498737   -0.484396    0.378989
     22          6           0        8.566245    0.369004   -0.354216
     23          6           0       -7.432136   -1.437832    0.443138
     24          6           0        7.498531    1.347327   -0.427673
     25          6           0       -7.570897   -2.874371    0.806161
     26          6           0        7.867922    2.822919   -0.427354
     27          6           0       -6.166511   -0.938799    0.384286
     28          6           0        6.236885    0.951703   -0.257685
     29          6           0       -4.902450   -1.456439    0.353154
     30          6           0        4.974125    1.669550   -0.329333
     31          6           0       -3.746186   -0.749858    0.229142
     32          6           0        3.728425    0.962298   -0.516534
     33          6           0       -2.403221   -1.322435    0.365286
     34          6           0        2.517541    1.753564   -0.400401
     35          6           0       -2.245727   -2.644579    0.787523
     36          6           0        2.544913    3.305947   -0.374672
     37          6           0       -1.285188   -0.641420    0.094831
     38          6           0        1.325737    1.010429   -0.479402
     39          6           0       -1.167778    0.762303   -0.255551
     40          6           0       -0.014871    1.474629   -0.420571
     41          1           0      -13.836597    0.097370    0.301151
     42          1           0      -14.008213   -0.074483   -1.381819
     43          1           0       12.713352   -1.772084    2.083123
     44          1           0       13.713122   -0.629763    1.897548
     45          1           0      -14.096735    2.189359   -0.915045
     46          1           0      -12.644783    1.910362   -1.627754
     47          1           0       14.046292   -2.687567    0.480737
     48          1           0       13.736777   -1.265260   -0.550366
     49          1           0      -12.733387    2.327970    1.455635
     50          1           0      -11.845263    3.162414    0.212656
     51          1           0       11.666189   -3.366912   -0.193156
     52          1           0       12.465262   -2.837829   -1.550873
     53          1           0      -11.543844    0.448961   -2.412916
     54          1           0      -12.421888   -1.111022   -2.752600
     55          1           0      -10.703385   -1.188480   -2.298369
     56          1           0      -12.314360   -1.986025    0.888997
     57          1           0      -11.613687   -2.701355   -0.585799
     58          1           0      -13.517297   -2.101044   -0.543204
     59          1           0       13.278415    0.701521   -0.782797
     60          1           0       13.786899    1.408043    0.715931
     61          1           0       12.203279    2.012025    0.037662
     62          1           0       10.662484   -0.202197    2.620049
     63          1           0       10.840782    1.283562    1.905832
     64          1           0       12.305942    0.806816    2.737691
     65          1           0      -10.093008   -1.838359    0.759705
     66          1           0        9.935871    1.708533    0.037200
     67          1           0       -9.401661    1.250484    1.929678
     68          1           0      -10.535049    2.396292    2.631481
     69          1           0       -9.618787    2.764726    1.218179
     70          1           0        9.313025   -1.335249   -2.008454
     71          1           0        9.193269   -2.727527   -1.137155
     72          1           0       10.361932   -2.572056   -2.704964
     73          1           0       -8.293579    0.597452    0.231276
     74          1           0        8.268377   -0.685134   -0.576214
     75          1           0       -7.891618   -2.626404    1.841976
     76          1           0       -6.690444   -3.333093    0.721246
     77          1           0       -8.319468   -3.489513    0.139691
     78          1           0        8.412544    3.103722   -1.311020
     79          1           0        8.605500    2.966075    0.652400
     80          1           0        7.094883    3.700309   -0.368581
     81          1           0       -6.268813    0.079243   -0.327635
     82          1           0        6.121211   -0.173595   -0.193429
     83          1           0       -4.755055   -2.525031    0.503383
     84          1           0        4.992615    2.818900   -0.233796
     85          1           0       -3.910221    0.286412   -0.088773
     86          1           0        3.842479   -0.075736   -0.587171
     87          1           0       -2.832179   -2.988924    1.622840
     88          1           0       -1.340105   -2.961098    0.716644
     89          1           0       -2.578238   -3.500784   -0.091379
     90          1           0        3.236421    3.585396   -1.173941
     91          1           0        2.692278    3.792787    0.592389
     92          1           0        1.666012    3.665672   -0.512614
     93          1           0       -0.365471   -1.187611    0.190028
     94          1           0        1.298149   -0.024607   -0.373959
     95          1           0       -2.169592    1.292949   -0.636269
     96          1           0       -0.127440    2.417797   -0.642568
 ---------------------------------------------------------------------

 SCF Done:  E(RB3LYP) =  -1557.53917553     A.U. after   15 cycles

 Excitation energies and oscillator strengths:

 Excited State   1:      Singlet-A      2.1638 eV  573.00 nm  f=3.0019  <S**2>=0.000
     148 ->149         0.70733
 This state for optimization and/or second-order correction.
 Total Energy, E(TD-HF/TD-DFT) =  -1557.45965852
 Copying the excited state density for this state as the 1-particle RhoCI density.

 The electronic state is 1-A.
 Alpha  occ. eigenvalues --  -10.21006 -10.20778 -10.20016 -10.19765 -10.19757
 Alpha  occ. eigenvalues --  -10.19540 -10.19439 -10.19255 -10.19008 -10.18956
 Alpha  occ. eigenvalues --  -10.18952 -10.18933 -10.18839 -10.18656 -10.18618
 Alpha  occ. eigenvalues --  -10.18589 -10.18566 -10.18502 -10.18450 -10.18382
 Alpha  occ. eigenvalues --  -10.18341 -10.18306 -10.18152 -10.18114 -10.18099
 Alpha  occ. eigenvalues --  -10.18029 -10.17863 -10.17721 -10.17442 -10.17428
 Alpha  occ. eigenvalues --  -10.17414 -10.17221 -10.17115 -10.17113 -10.16540
 Alpha  occ. eigenvalues --  -10.16480 -10.16462 -10.16061 -10.15998 -10.15904
 Alpha  occ. eigenvalues --   -0.85470  -0.85393  -0.84402  -0.83165  -0.82786
 Alpha  occ. eigenvalues --   -0.81801  -0.79825  -0.78892  -0.78592  -0.77875
 Alpha  occ. eigenvalues --   -0.77102  -0.75939  -0.74242  -0.73072  -0.71961
 Alpha  occ. eigenvalues --   -0.70999  -0.69036  -0.68959  -0.68578  -0.68362
 Alpha  occ. eigenvalues --   -0.68097  -0.67725  -0.67293  -0.67088  -0.66226
 Alpha  occ. eigenvalues --   -0.63045  -0.62134  -0.60629  -0.60079  -0.57189
 Alpha  occ. eigenvalues --   -0.56472  -0.56084  -0.55110  -0.54094  -0.53938
 Alpha  occ. eigenvalues --   -0.52523  -0.52041  -0.51469  -0.50139  -0.49581
 Alpha  occ. eigenvalues --   -0.48502  -0.48041  -0.47524  -0.46692  -0.46292
 Alpha  occ. eigenvalues --   -0.45615  -0.45516  -0.45150  -0.45041  -0.44746
 Alpha  occ. eigenvalues --   -0.44312  -0.43938  -0.43669  -0.43048  -0.42731
 Alpha  occ. eigenvalues --   -0.42276  -0.42227  -0.41800  -0.41641  -0.41441
 Alpha  occ. eigenvalues --   -0.40859  -0.40596  -0.40407  -0.40215  -0.40080
 Alpha  occ. eigenvalues --   -0.39944  -0.39268  -0.39040  -0.38979  -0.38707
 Alpha  occ. eigenvalues --   -0.38052  -0.37604  -0.37281  -0.36949  -0.36657
 Alpha  occ. eigenvalues --   -0.36513  -0.36376  -0.35889  -0.35527  -0.35365
 Alpha  occ. eigenvalues --   -0.35285  -0.35242  -0.34924  -0.34822  -0.34157
 Alpha  occ. eigenvalues --   -0.33798  -0.33735  -0.33253  -0.33118  -0.32865
 Alpha  occ. eigenvalues --   -0.32074  -0.31400  -0.30970  -0.30901  -0.30296
 Alpha  occ. eigenvalues --   -0.29960  -0.29874  -0.29293  -0.28907  -0.28248
 Alpha  occ. eigenvalues --   -0.27715  -0.27032  -0.26217  -0.24143  -0.22770
 Alpha  occ. eigenvalues --   -0.20891  -0.18611  -0.16247
 Alpha virt. eigenvalues --   -0.08045  -0.05278  -0.01783   0.00319   0.02097
 Alpha virt. eigenvalues --    0.04059   0.05590   0.06323   0.06926   0.07307
 Alpha virt. eigenvalues --    0.07870   0.08205   0.08797   0.08951   0.09111

 Mulliken charges:
               1
     1  C    0.039635
     2  C   -0.046107
     3  C   -0.166985
     4  C   -0.157637
     5  C   -0.204581
     6  C   -0.201011
     7  C    0.036858
     8  C    0.126868
     9  C   -0.196945
    10  C   -0.214708
    11  C    0.021778
    12  C    0.008620
    13  C   -0.286080
    14  C   -0.305591
    15  C   -0.305438
    16  C   -0.274708
    17  C   -0.143825
    18  C   -0.138920
    19  C   -0.356436
    20  C   -0.341015
    21  C   -0.080189
    22  C   -0.096569
    23  C    0.086601
    24  C    0.143165
    25  C   -0.350079
    26  C   -0.362879
    27  C   -0.122976
    28  C   -0.130943
    29  C   -0.079529
    30  C   -0.093274
    31  C   -0.108053
    32  C   -0.101703
    33  C    0.178741
    34  C    0.087008
    35  C   -0.369623
    36  C   -0.357788
    37  C   -0.149701
    38  C   -0.098529
    39  C   -0.098161
    40  C   -0.077610
    41  H    0.100585
    42  H    0.059870
    43  H    0.084215
    44  H    0.079217
    45  H    0.080246
    46  H    0.105849
    47  H    0.089662
    48  H    0.103157
    49  H    0.107086
    50  H    0.106776
    51  H    0.112537
    52  H    0.106053
    53  H    0.080194
    54  H    0.090471
    55  H    0.112806
    56  H    0.106934
    57  H    0.102997
    58  H    0.072521
    59  H    0.107659
    60  H    0.103503
    61  H    0.098942
    62  H    0.092048
    63  H    0.098817
    64  H    0.091518
    65  H    0.078129
    66  H    0.046401
    67  H    0.117804
    68  H    0.103369
    69  H    0.119018
    70  H    0.132737
    71  H    0.075858
    72  H    0.120500
    73  H    0.087329
    74  H    0.057394
    75  H    0.133400
    76  H    0.121263
    77  H    0.102781
    78  H    0.132494
    79  H    0.078592
    80  H    0.101798
    81  H    0.048434
    82  H    0.064548
    83  H    0.074386
    84  H    0.083435
    85  H    0.073515
    86  H    0.091138
    87  H    0.127060
    88  H    0.114829
    89  H    0.057495
    90  H    0.124206
    91  H    0.122445
    92  H    0.118988
    93  H    0.076475
    94  H    0.069413
    95  H    0.076592
    96  H    0.062832
 Sum of Mulliken charges =  -0.00000

 Dipole moment (field-independent basis, Debye):
    X=             -0.1399    Y=             -0.0160    Z=             -0.1416  Tot=              0.1997
 Quadrupole moment (field-independent basis, Debye-Ang):
   XX=           -226.4653   YY=           -232.2354   ZZ=           -253.2705
   XY=             -8.5950   XZ=             -2.3433   YZ=             -0.2236

 Normal termination of Gaussian 16 at Wed Jul 31 08:15:24 2019.
