 Gaussian 16, Revision A.03,
 Gaussian 16:  ES64L-G16RevA.03 25-Dec-2016

 ---------------------------------
 # td=(NStates=1) B3LYP/6-31G(d,p)
 ---------------------------------

 --
 TD
 --
 Symbolic Z-matrix:
 Charge =  0 Multiplicity = 1

                         Standard orientation:
 ---------------------------------------------------------------------
 Center     Atomic      Atomic             Coordinates (Angstroms)
 Number     Number       Type             X           Y           Z
 ---------------------------------------------------------------------
      1          6           0       12.212217    0.573498   -0.613419
      2          6           0      -12.193188    0.051133    0.831989
      3          6           0       13.453802   -0.410284   -0.480157
      4          6           0      -13.012851    1.154495    1.303870
      5          6           0       13.143471   -1.840996   -0.600479
      6          6           0      -13.407397    2.191411    0.205438
      7          6           0       11.048787   -0.033105    0.324690
      8          6           0      -11.048377    0.468023   -0.126690
      9          6           0       12.278591   -2.258647    0.554139
     10          6           0      -12.116118    2.634773   -0.632149
     11          6           0       11.123587   -1.237754    0.871801
     12          6           0      -11.039948    1.594842   -0.724342
     13          6           0       11.605914    0.564114   -2.069324
     14          6           0       12.513678    2.066865   -0.267537
     15          6           0      -13.007078   -1.127805    0.309400
     16          6           0      -11.471447   -0.636758    2.152575
     17          6           0        9.806647    0.872361    0.429268
     18          6           0       -9.954661   -0.633219   -0.300999
     19          6           0       10.069098   -1.721594    1.908234
     20          6           0      -10.033953    1.977817   -1.684360
     21          6           0        8.549646    0.475924    0.354418
     22          6           0       -8.648612   -0.438893   -0.293668
     23          6           0        7.420761    1.411049    0.300809
     24          6           0       -7.525349   -1.336141   -0.437704
     25          6           0        7.760991    2.827600    0.764396
     26          6           0       -7.866746   -2.841217   -0.597186
     27          6           0        6.149147    0.865138    0.188930
     28          6           0       -6.252786   -0.911160   -0.309320
     29          6           0        4.923565    1.581718    0.231310
     30          6           0       -4.964741   -1.708558   -0.327791
     31          6           0        3.814932    0.738524    0.128364
     32          6           0       -3.739003   -1.216192   -0.271286
     33          6           0        2.390116    1.247647    0.090140
     34          6           0       -2.496361   -1.824578   -0.473049
     35          6           0        2.177537    2.867077    0.321340
     36          6           0       -2.528590   -3.247005   -0.821814
     37          6           0        1.265496    0.457570    0.172464
     38          6           0       -1.334972   -1.108863   -0.256560
     39          6           0        1.178909   -0.898496   -0.061831
     40          6           0        0.017918   -1.585452   -0.299064
     41          1           0       13.910760   -0.070440    0.516400
     42          1           0       14.271044   -0.040487   -1.190982
     43          1           0      -12.432013    1.907089    1.842432
     44          1           0      -13.991518    0.865303    1.923082
     45          1           0       14.230490   -2.400686   -0.740802
     46          1           0       12.613612   -2.000561   -1.510699
     47          1           0      -13.957847    3.123711    0.495549
     48          1           0      -14.025542    1.383931   -0.448218
     49          1           0       12.849585   -2.382261    1.489031
     50          1           0       11.856692   -3.370103    0.625858
     51          1           0      -11.778872    3.537072    0.083930
     52          1           0      -12.412020    3.074577   -1.534022
     53          1           0       11.487964   -0.335050   -2.464610
     54          1           0       12.460858    1.227021   -2.636678
     55          1           0       10.425329    1.195939   -2.017037
     56          1           0       12.689336    2.101119    0.897408
     57          1           0       11.720435    2.731637   -0.429605
     58          1           0       13.333743    2.544967   -0.952046
     59          1           0      -13.530130   -0.691634   -0.741724
     60          1           0      -13.977900   -1.244519    0.836036
     61          1           0      -12.370558   -2.150697    0.131032
     62          1           0      -10.755911    0.008319    2.507223
     63          1           0      -11.170940   -1.693592    2.162716
     64          1           0      -12.202039   -0.665145    2.991045
     65          1           0       10.059622    1.871639    0.688976
     66          1           0      -10.224954   -1.595668   -0.511069
     67          1           0        9.522859   -0.866435    2.448417
     68          1           0       10.327308   -1.972222    2.814319
     69          1           0        9.589364   -2.518458    1.413753
     70          1           0       -9.656876    1.050961   -2.190334
     71          1           0       -9.105863    2.616303   -1.173486
     72          1           0      -10.591887    2.439043   -2.480760
     73          1           0        8.401220   -0.710973    0.051346
     74          1           0       -8.293408    0.586847   -0.087773
     75          1           0        8.132197    2.947554    1.855581
     76          1           0        6.773923    3.341771    0.644711
     77          1           0        8.450115    3.271651   -0.064996
     78          1           0       -8.310150   -2.844171   -1.751336
     79          1           0       -8.584513   -3.198176    0.095953
     80          1           0       -6.819923   -3.446623   -0.351489
     81          1           0        5.896804   -0.245010    0.217171
     82          1           0       -6.034741    0.171907   -0.021312
     83          1           0        4.608352    2.577256    0.399444
     84          1           0       -4.943888   -2.746122   -0.222625
     85          1           0        3.986549   -0.404316   -0.104520
     86          1           0       -3.660078   -0.033814   -0.356908
     87          1           0        2.212126    3.112884    1.446645
     88          1           0        1.099784    3.105269    0.143678
     89          1           0        2.779146    3.221561   -0.495200
     90          1           0       -3.028484   -3.450441   -1.773682
     91          1           0       -2.940214   -3.870508   -0.028093
     92          1           0       -1.541272   -3.687742   -0.744190
     93          1           0        0.263911    0.906687    0.142597
     94          1           0       -1.458000    0.133140   -0.022540
     95          1           0        1.985745   -1.587580    0.006781
     96          1           0        0.284860   -2.460892   -0.593462
 ---------------------------------------------------------------------

 SCF Done:  E(RB3LYP) =  -1557.50705378     A.U. after   15 cycles

 Excitation energies and oscillator strengths:

 Excited State   1:      Singlet-A      2.3171 eV  535.08 nm  f=2.9276  <S**2>=0.000
     148 ->149         0.70583
 This state for optimization and/or second-order correction.
 Total Energy, E(TD-HF/TD-DFT) =  -1557.42190108
 Copying the excited state density for this state as the 1-particle RhoCI density.

 The electronic state is 1-A.
 Alpha  occ. eigenvalues --  -10.21036 -10.20771 -10.20539 -10.20539 -10.20521
 Alpha  occ. eigenvalues --  -10.20198 -10.20125 -10.20096 -10.19905 -10.19768
 Alpha  occ. eigenvalues --  -10.19755 -10.19743 -10.19739 -10.19638 -10.19521
 Alpha  occ. eigenvalues --  -10.19301 -10.19196 -10.19160 -10.19001 -10.18962
 Alpha  occ. eigenvalues --  -10.18879 -10.18760 -10.18621 -10.18602 -10.18542
 Alpha  occ. eigenvalues --  -10.18445 -10.18400 -10.18346 -10.18269 -10.18198
 Alpha  occ. eigenvalues --  -10.18130 -10.18060 -10.17976 -10.17956 -10.17784
 Alpha  occ. eigenvalues --  -10.17632 -10.17583 -10.17448 -10.16366 -10.16288
 Alpha  occ. eigenvalues --   -0.85435  -0.84111  -0.83894  -0.82759  -0.82047
 Alpha  occ. eigenvalues --   -0.81386  -0.79321  -0.79162  -0.77285  -0.76949
 Alpha  occ. eigenvalues --   -0.76534  -0.75309  -0.74332  -0.72175  -0.71677
 Alpha  occ. eigenvalues --   -0.70006  -0.68104  -0.68077  -0.67721  -0.67134
 Alpha  occ. eigenvalues --   -0.67037  -0.66974  -0.66782  -0.66544  -0.66032
 Alpha  occ. eigenvalues --   -0.62649  -0.61525  -0.59436  -0.58959  -0.57724
 Alpha  occ. eigenvalues --   -0.56853  -0.55127  -0.54783  -0.54328  -0.52793
 Alpha  occ. eigenvalues --   -0.52224  -0.51820  -0.49995  -0.49125  -0.48406
 Alpha  occ. eigenvalues --   -0.47944  -0.47440  -0.46638  -0.46378  -0.45520
 Alpha  occ. eigenvalues --   -0.45342  -0.44938  -0.44697  -0.44517  -0.44222
 Alpha  occ. eigenvalues --   -0.43716  -0.43631  -0.43413  -0.42679  -0.42269
 Alpha  occ. eigenvalues --   -0.42161  -0.41882  -0.41499  -0.41328  -0.41100
 Alpha  occ. eigenvalues --   -0.40732  -0.40286  -0.39352  -0.39258  -0.38764
 Alpha  occ. eigenvalues --   -0.38499  -0.38371  -0.38046  -0.37722  -0.37493
 Alpha  occ. eigenvalues --   -0.37238  -0.36944  -0.36895  -0.36747  -0.36451
 Alpha  occ. eigenvalues --   -0.36083  -0.35862  -0.35443  -0.35150  -0.35053
 Alpha  occ. eigenvalues --   -0.34576  -0.34470  -0.34059  -0.33782  -0.33485
 Alpha  occ. eigenvalues --   -0.33249  -0.33141  -0.33033  -0.32584  -0.32232
 Alpha  occ. eigenvalues --   -0.32019  -0.31594  -0.31235  -0.31023  -0.30784
 Alpha  occ. eigenvalues --   -0.30537  -0.29804  -0.29505  -0.28687  -0.28280
 Alpha  occ. eigenvalues --   -0.27429  -0.26542  -0.26047  -0.24376  -0.23107
 Alpha  occ. eigenvalues --   -0.21694  -0.19534  -0.16797
 Alpha virt. eigenvalues --   -0.08068  -0.04619  -0.01402   0.01373   0.03183
 Alpha virt. eigenvalues --    0.04206   0.05918   0.06206   0.06307   0.06851
 Alpha virt. eigenvalues --    0.07301   0.07476   0.08164   0.08533   0.09119

 Mulliken charges:
               1
     1  C    0.002617
     2  C    0.021062
     3  C   -0.168094
     4  C   -0.180228
     5  C   -0.173987
     6  C   -0.195230
     7  C    0.056699
     8  C    0.083831
     9  C   -0.215194
    10  C   -0.223424
    11  C    0.032596
    12  C    0.093607
    13  C   -0.252553
    14  C   -0.309762
    15  C   -0.280019
    16  C   -0.312368
    17  C   -0.139333
    18  C   -0.148297
    19  C   -0.351777
    20  C   -0.353782
    21  C   -0.052145
    22  C   -0.058962
    23  C    0.061391
    24  C    0.122170
    25  C   -0.361616
    26  C   -0.351680
    27  C   -0.116134
    28  C   -0.143301
    29  C   -0.050175
    30  C   -0.085863
    31  C   -0.117191
    32  C   -0.101118
    33  C    0.033568
    34  C    0.138914
    35  C   -0.371274
    36  C   -0.392562
    37  C   -0.095660
    38  C   -0.114458
    39  C   -0.087322
    40  C   -0.068028
    41  H    0.087831
    42  H    0.075858
    43  H    0.095907
    44  H    0.079351
    45  H    0.072359
    46  H    0.113118
    47  H    0.093069
    48  H    0.064643
    49  H    0.109758
    50  H    0.076013
    51  H    0.079689
    52  H    0.114629
    53  H    0.112776
    54  H    0.064402
    55  H    0.061605
    56  H    0.086855
    57  H    0.118480
    58  H    0.089204
    59  H    0.056548
    60  H    0.108952
    61  H    0.091775
    62  H    0.111765
    63  H    0.095822
    64  H    0.084964
    65  H    0.087201
    66  H    0.075392
    67  H    0.101584
    68  H    0.113612
    69  H    0.116334
    70  H    0.114779
    71  H    0.092193
    72  H    0.100260
    73  H    0.064673
    74  H    0.066662
    75  H    0.126586
    76  H    0.104414
    77  H    0.112956
    78  H    0.101111
    79  H    0.131300
    80  H    0.089545
    81  H    0.090546
    82  H    0.079300
    83  H    0.099672
    84  H    0.074212
    85  H    0.077853
    86  H    0.054217
    87  H    0.127782
    88  H    0.107540
    89  H    0.132269
    90  H    0.130951
    91  H    0.122778
    92  H    0.107488
    93  H    0.072316
    94  H    0.062589
    95  H    0.076806
    96  H    0.064791
 Sum of Mulliken charges =  -0.00000

 Dipole moment (field-independent basis, Debye):
    X=              0.4794    Y=             -0.1648    Z=              0.8226  Tot=              0.9662
 Quadrupole moment (field-independent basis, Debye-Ang):
   XX=           -240.3911   YY=           -233.7954   ZZ=           -254.8348
   XY=             -3.0136   XZ=              3.8578   YZ=              1.8464

 Normal termination of Gaussian 16 at Sun Jul 28 11:19:28 2019.
