 Gaussian 16, Revision A.03,
 Gaussian 16:  ES64L-G16RevA.03 25-Dec-2016

 ---------------------------------
 # td=(NStates=1) B3LYP/6-31G(d,p)
 ---------------------------------

 --
 TD
 --
 Symbolic Z-matrix:
 Charge =  0 Multiplicity = 1

                         Standard orientation:
 ---------------------------------------------------------------------
 Center     Atomic      Atomic             Coordinates (Angstroms)
 Number     Number       Type             X           Y           Z
 ---------------------------------------------------------------------
      1          6           0      -12.149419   -0.566782   -0.804803
      2          6           0       12.099308   -0.044690    0.860072
      3          6           0      -13.438893    0.339046   -0.810497
      4          6           0       12.939347   -1.202232    1.391164
      5          6           0      -13.190944    1.835780   -0.533319
      6          6           0       13.348882   -2.140232    0.258390
      7          6           0      -11.033954   -0.033799    0.156572
      8          6           0       11.022897   -0.464156   -0.169534
      9          6           0      -12.266467    2.116332    0.680137
     10          6           0       12.076745   -2.634235   -0.538308
     11          6           0      -11.145611    1.158399    0.950725
     12          6           0       10.959129   -1.636445   -0.785009
     13          6           0      -11.592560   -0.521605   -2.227824
     14          6           0      -12.524102   -2.009530   -0.418072
     15          6           0       13.042363    1.047821    0.085023
     16          6           0       11.376340    0.673545    2.107010
     17          6           0       -9.822873   -0.805515    0.332265
     18          6           0        9.928496    0.560221   -0.396583
     19          6           0      -10.186247    1.728814    2.058480
     20          6           0        9.999898   -2.018765   -1.877966
     21          6           0       -8.523702   -0.539404    0.204036
     22          6           0        8.530479    0.379051   -0.293049
     23          6           0       -7.367334   -1.450205    0.504046
     24          6           0        7.495314    1.363622   -0.461221
     25          6           0       -7.653100   -2.945268    0.758192
     26          6           0        7.932464    2.849820   -0.597356
     27          6           0       -6.153207   -0.842866    0.400188
     28          6           0        6.156358    0.951107   -0.368507
     29          6           0       -4.796688   -1.487224    0.347708
     30          6           0        5.033923    1.728857   -0.383289
     31          6           0       -3.656501   -0.827695    0.232965
     32          6           0        3.753845    1.150257   -0.394381
     33          6           0       -2.241795   -1.273804    0.288065
     34          6           0        2.472732    1.830995   -0.439696
     35          6           0       -2.103603   -2.797253    0.725037
     36          6           0        2.491161    3.354876   -0.536037
     37          6           0       -1.155191   -0.517618    0.152309
     38          6           0        1.346555    1.060609   -0.398580
     39          6           0       -1.129176    0.946024    0.034502
     40          6           0       -0.001067    1.738935   -0.186384
     41          1           0      -14.030447    0.217011    0.092252
     42          1           0      -13.909854    0.067601   -1.676528
     43          1           0       12.274432   -1.827403    2.013434
     44          1           0       13.638261   -0.685060    2.027457
     45          1           0      -14.130412    2.458483   -0.320394
     46          1           0      -12.823060    2.400506   -1.452895
     47          1           0       13.763859   -2.985289    0.802688
     48          1           0       14.146061   -1.708185   -0.430336
     49          1           0      -12.904658    2.236117    1.609626
     50          1           0      -11.859946    3.166320    0.717302
     51          1           0       11.397216   -3.460971   -0.174676
     52          1           0       12.469768   -3.142491   -1.494587
     53          1           0      -11.125285    0.401561   -2.463891
     54          1           0      -12.427863   -0.732923   -2.961116
     55          1           0      -10.850624   -1.162410   -2.345606
     56          1           0      -12.858619   -1.812715    0.598532
     57          1           0      -11.821627   -2.762623   -0.566180
     58          1           0      -13.345415   -2.351775   -0.999950
     59          1           0       13.777897    0.623119   -0.724628
     60          1           0       13.672467    1.526157    0.848263
     61          1           0       12.388978    1.949525   -0.467156
     62          1           0       10.437187    0.055857    2.611051
     63          1           0       11.011139    1.726950    2.042307
     64          1           0       12.076100    0.852244    2.852892
     65          1           0      -10.080753   -1.784719    0.585309
     66          1           0       10.171116    1.604086   -0.456933
     67          1           0       -9.527509    1.081160    2.429283
     68          1           0      -10.570389    2.274681    2.975356
     69          1           0       -9.400794    2.394663    1.359928
     70          1           0        9.431004   -1.117775   -2.171046
     71          1           0        9.376724   -2.847569   -1.620436
     72          1           0       10.398276   -2.464173   -2.771000
     73          1           0       -8.107349    0.417947   -0.245518
     74          1           0        8.344588   -0.612176   -0.055199
     75          1           0       -8.009584   -3.272259    1.905624
     76          1           0       -6.695006   -3.308674    0.539738
     77          1           0       -8.448490   -3.236150    0.080283
     78          1           0        8.652465    2.843713   -1.480362
     79          1           0        8.385364    3.288719    0.303944
     80          1           0        7.075600    3.497925   -0.885187
     81          1           0       -5.992988    0.165291    0.195652
     82          1           0        6.054179   -0.026533   -0.224283
     83          1           0       -4.855550   -2.678567    0.430504
     84          1           0        5.035687    2.910966   -0.193512
     85          1           0       -3.922199    0.183064    0.019820
     86          1           0        3.691373    0.084257   -0.355468
     87          1           0       -2.343511   -2.926591    1.605970
     88          1           0       -1.032815   -3.255340    0.532933
     89          1           0       -2.606756   -3.232295   -0.068627
     90          1           0        3.058378    3.801040   -1.442629
     91          1           0        2.992706    3.760690    0.246074
     92          1           0        1.631981    3.837645   -0.589386
     93          1           0       -0.209398   -0.996115    0.168692
     94          1           0        1.569575    0.025917   -0.207789
     95          1           0       -2.200914    1.429068    0.238001
     96          1           0       -0.073373    2.779789   -0.426411
 ---------------------------------------------------------------------

 SCF Done:  E(RB3LYP) =  -1557.62373060     A.U. after   15 cycles

 Excitation energies and oscillator strengths:

 Excited State   1:      Singlet-A      2.3479 eV  528.07 nm  f=2.6419  <S**2>=0.000
     148 ->149         0.68635
     148 ->150        -0.15091
 This state for optimization and/or second-order correction.
 Total Energy, E(TD-HF/TD-DFT) =  -1557.53744752
 Copying the excited state density for this state as the 1-particle RhoCI density.

 The electronic state is 1-A.
 Alpha  occ. eigenvalues --  -10.21131 -10.20528 -10.20318 -10.20211 -10.20206
 Alpha  occ. eigenvalues --  -10.20078 -10.19937 -10.19900 -10.19857 -10.19821
 Alpha  occ. eigenvalues --  -10.19815 -10.19544 -10.19336 -10.19259 -10.19209
 Alpha  occ. eigenvalues --  -10.18971 -10.18951 -10.18936 -10.18906 -10.18780
 Alpha  occ. eigenvalues --  -10.18739 -10.18728 -10.18633 -10.18565 -10.18543
 Alpha  occ. eigenvalues --  -10.18410 -10.18232 -10.18165 -10.18156 -10.18083
 Alpha  occ. eigenvalues --  -10.17920 -10.17640 -10.17432 -10.17318 -10.17236
 Alpha  occ. eigenvalues --  -10.16949 -10.16829 -10.16809 -10.16505 -10.15484
 Alpha  occ. eigenvalues --   -0.84211  -0.84030  -0.83014  -0.82637  -0.81413
 Alpha  occ. eigenvalues --   -0.80829  -0.78269  -0.78046  -0.77790  -0.76919
 Alpha  occ. eigenvalues --   -0.76031  -0.74879  -0.73987  -0.72215  -0.70944
 Alpha  occ. eigenvalues --   -0.70562  -0.69271  -0.69005  -0.68698  -0.68247
 Alpha  occ. eigenvalues --   -0.67624  -0.66997  -0.66812  -0.66534  -0.65920
 Alpha  occ. eigenvalues --   -0.62316  -0.61668  -0.59712  -0.59020  -0.57037
 Alpha  occ. eigenvalues --   -0.56285  -0.56078  -0.55147  -0.53773  -0.53213
 Alpha  occ. eigenvalues --   -0.52889  -0.52023  -0.50678  -0.49047  -0.48556
 Alpha  occ. eigenvalues --   -0.48240  -0.47663  -0.47414  -0.46675  -0.46051
 Alpha  occ. eigenvalues --   -0.45747  -0.44845  -0.44744  -0.44421  -0.44354
 Alpha  occ. eigenvalues --   -0.43751  -0.43402  -0.42822  -0.42301  -0.41697
 Alpha  occ. eigenvalues --   -0.41306  -0.41242  -0.40982  -0.40827  -0.40659
 Alpha  occ. eigenvalues --   -0.40468  -0.40141  -0.40067  -0.39891  -0.39595
 Alpha  occ. eigenvalues --   -0.39186  -0.38642  -0.38312  -0.38235  -0.38095
 Alpha  occ. eigenvalues --   -0.37667  -0.37549  -0.37306  -0.37088  -0.36722
 Alpha  occ. eigenvalues --   -0.36206  -0.36065  -0.35949  -0.35429  -0.35137
 Alpha  occ. eigenvalues --   -0.34815  -0.34621  -0.34488  -0.34418  -0.34035
 Alpha  occ. eigenvalues --   -0.33912  -0.33508  -0.33142  -0.32893  -0.32812
 Alpha  occ. eigenvalues --   -0.32175  -0.31894  -0.31606  -0.31340  -0.30950
 Alpha  occ. eigenvalues --   -0.30879  -0.30397  -0.29638  -0.29183  -0.28790
 Alpha  occ. eigenvalues --   -0.28505  -0.27473  -0.25890  -0.23606  -0.22271
 Alpha  occ. eigenvalues --   -0.20665  -0.18802  -0.16347
 Alpha virt. eigenvalues --   -0.07417  -0.04902  -0.01331   0.00919   0.02691
 Alpha virt. eigenvalues --    0.04472   0.06087   0.07102   0.07283   0.07782
 Alpha virt. eigenvalues --    0.07942   0.08142   0.08552   0.09349   0.09614

 Mulliken charges:
               1
     1  C   -0.018749
     2  C    0.007657
     3  C   -0.154293
     4  C   -0.168002
     5  C   -0.201377
     6  C   -0.193285
     7  C    0.014927
     8  C    0.078659
     9  C   -0.223913
    10  C   -0.231404
    11  C    0.079270
    12  C    0.073816
    13  C   -0.291842
    14  C   -0.304114
    15  C   -0.303243
    16  C   -0.310294
    17  C   -0.138795
    18  C   -0.156736
    19  C   -0.350069
    20  C   -0.374388
    21  C   -0.080516
    22  C   -0.087183
    23  C    0.097313
    24  C    0.090351
    25  C   -0.348254
    26  C   -0.375935
    27  C   -0.124578
    28  C   -0.090931
    29  C   -0.081746
    30  C   -0.074582
    31  C   -0.101120
    32  C   -0.134651
    33  C    0.057124
    34  C    0.139729
    35  C   -0.342363
    36  C   -0.373983
    37  C   -0.094593
    38  C   -0.132152
    39  C   -0.090292
    40  C   -0.115706
    41  H    0.094899
    42  H    0.096003
    43  H    0.100028
    44  H    0.093091
    45  H    0.083231
    46  H    0.085228
    47  H    0.102467
    48  H    0.099133
    49  H    0.090547
    50  H    0.103431
    51  H    0.098889
    52  H    0.091060
    53  H    0.107965
    54  H    0.080450
    55  H    0.109815
    56  H    0.109262
    57  H    0.106830
    58  H    0.099628
    59  H    0.096680
    60  H    0.098972
    61  H    0.083834
    62  H    0.084716
    63  H    0.098090
    64  H    0.100304
    65  H    0.079784
    66  H    0.072398
    67  H    0.133044
    68  H    0.107670
    69  H    0.090053
    70  H    0.124400
    71  H    0.108988
    72  H    0.108594
    73  H    0.069857
    74  H    0.074662
    75  H    0.097813
    76  H    0.119753
    77  H    0.125082
    78  H    0.114423
    79  H    0.125614
    80  H    0.105677
    81  H    0.075362
    82  H    0.070907
    83  H    0.061822
    84  H    0.074147
    85  H    0.073220
    86  H    0.071548
    87  H    0.136618
    88  H    0.078677
    89  H    0.132054
    90  H    0.103127
    91  H    0.132163
    92  H    0.111982
    93  H    0.078064
    94  H    0.087051
    95  H    0.072814
    96  H    0.098318
 Sum of Mulliken charges =  -0.00000

 Dipole moment (field-independent basis, Debye):
    X=              0.2127    Y=             -0.2744    Z=              0.6038  Tot=              0.6965
 Quadrupole moment (field-independent basis, Debye-Ang):
   XX=           -214.0608   YY=           -232.4362   ZZ=           -253.1365
   XY=             -1.1695   XZ=              3.6805   YZ=              1.6549

 Normal termination of Gaussian 16 at Sat Jul 27 08:41:55 2019.
