 Gaussian 16, Revision A.03,
 Gaussian 16:  ES64L-G16RevA.03 25-Dec-2016

 ---------------------------------
 # td=(NStates=1) B3LYP/6-31G(d,p)
 ---------------------------------

 --
 TD
 --
 Symbolic Z-matrix:
 Charge =  0 Multiplicity = 1

                         Standard orientation:
 ---------------------------------------------------------------------
 Center     Atomic      Atomic             Coordinates (Angstroms)
 Number     Number       Type             X           Y           Z
 ---------------------------------------------------------------------
      1          6           0      -12.062628   -0.489947   -0.797868
      2          6           0       12.119828    0.083442    0.820554
      3          6           0      -13.377589    0.294347   -0.552553
      4          6           0       12.860449   -1.174916    1.323020
      5          6           0      -13.134291    1.897590   -0.507417
      6          6           0       13.325056   -2.078282    0.155144
      7          6           0      -10.929030   -0.023118    0.175647
      8          6           0       10.979525   -0.443287   -0.232889
      9          6           0      -12.251780    2.120104    0.717243
     10          6           0       12.035460   -2.707041   -0.469510
     11          6           0      -11.080348    1.139122    0.886568
     12          6           0       11.033981   -1.585042   -0.823066
     13          6           0      -11.568350   -0.470501   -2.236788
     14          6           0      -12.533838   -1.858041   -0.410422
     15          6           0       12.946569    1.063014    0.196911
     16          6           0       11.309377    0.679151    2.078040
     17          6           0       -9.706957   -0.983095    0.205834
     18          6           0        9.872241    0.562583   -0.356416
     19          6           0      -10.101963    1.620397    1.919630
     20          6           0        9.966641   -2.095395   -1.753044
     21          6           0       -8.425830   -0.642216    0.325820
     22          6           0        8.538806    0.278160   -0.273293
     23          6           0       -7.277544   -1.493964    0.438676
     24          6           0        7.565787    1.401386   -0.428969
     25          6           0       -7.499634   -2.923864    0.594202
     26          6           0        7.810742    2.780413   -0.589367
     27          6           0       -6.122195   -0.878695    0.371432
     28          6           0        6.189781    0.928240   -0.264927
     29          6           0       -4.721727   -1.491481    0.422391
     30          6           0        4.895779    1.684412   -0.416038
     31          6           0       -3.622844   -0.714919    0.224653
     32          6           0        3.645064    1.109584   -0.203065
     33          6           0       -2.267624   -1.278849    0.236601
     34          6           0        2.437262    1.937451   -0.412916
     35          6           0       -2.163147   -2.808765    0.630458
     36          6           0        2.536725    3.427040   -0.658504
     37          6           0       -1.139987   -0.468515    0.062905
     38          6           0        1.311875    1.212653   -0.237358
     39          6           0       -1.200987    0.917670   -0.071051
     40          6           0       -0.072505    1.747411   -0.247653
     41          1           0      -13.923957   -0.054858    0.391890
     42          1           0      -14.073168   -0.005172   -1.367043
     43          1           0       12.284924   -1.780628    1.953508
     44          1           0       13.815767   -0.754503    1.797435
     45          1           0      -14.081976    2.531421   -0.570205
     46          1           0      -12.477706    2.315945   -1.323502
     47          1           0       13.898757   -2.815267    0.379636
     48          1           0       13.791664   -1.719349   -0.708098
     49          1           0      -12.666851    2.146381    1.793365
     50          1           0      -11.958602    3.183869    0.512853
     51          1           0       11.581358   -3.504671    0.278033
     52          1           0       12.327440   -2.998257   -1.480651
     53          1           0      -11.459084    0.601602   -2.453853
     54          1           0      -12.414654   -0.984949   -2.847879
     55          1           0      -10.615442   -1.082717   -2.467649
     56          1           0      -12.892580   -1.800161    0.695274
     57          1           0      -11.783630   -2.546571   -0.555164
     58          1           0      -13.346033   -2.147819   -0.903104
     59          1           0       13.458802    0.430278   -0.456379
     60          1           0       13.774616    1.420186    0.849704
     61          1           0       12.491842    1.938487   -0.193728
     62          1           0       10.581434   -0.270677    2.371744
     63          1           0       10.448099    1.413171    1.541878
     64          1           0       11.977764    1.174374    2.973296
     65          1           0       -9.942329   -2.056065    0.446734
     66          1           0       10.385700    1.681591   -0.497290
     67          1           0       -9.549121    0.681640    2.216053
     68          1           0      -10.606684    1.884291    2.727409
     69          1           0       -9.350168    2.345176    1.617315
     70          1           0        9.369443   -1.140470   -2.124606
     71          1           0        9.209742   -2.693189   -1.271571
     72          1           0       10.337885   -2.692032   -2.606384
     73          1           0       -8.146979    0.619373    0.207450
     74          1           0        8.151783   -0.742719   -0.173332
     75          1           0       -8.044920   -2.869040    1.570290
     76          1           0       -6.584834   -3.532585    0.620013
     77          1           0       -8.211775   -3.296707   -0.085028
     78          1           0        8.582884    3.037733   -1.501987
     79          1           0        8.339687    3.091529    0.270157
     80          1           0        6.716687    3.224472   -0.648313
     81          1           0       -6.200612    0.151633   -0.000620
     82          1           0        5.928443   -0.266355   -0.224965
     83          1           0       -5.002325   -2.597803    0.683717
     84          1           0        4.994680    2.724892   -0.532199
     85          1           0       -3.777331    0.383561    0.280721
     86          1           0        3.415203   -0.013669   -0.169711
     87          1           0       -2.798614   -2.873047    1.596485
     88          1           0       -1.209946   -3.020940    0.636491
     89          1           0       -2.536731   -3.383181   -0.138342
     90          1           0        3.182739    3.504056   -1.449674
     91          1           0        3.221163    3.989306    0.287759
     92          1           0        1.545014    4.090887   -0.487956
     93          1           0       -0.059902   -0.998053    0.335628
     94          1           0        1.429695    0.190734   -0.209291
     95          1           0       -2.129285    1.498427   -0.096568
     96          1           0       -0.118877    2.740993   -0.545428
 ---------------------------------------------------------------------

 SCF Done:  E(RB3LYP) =  -1557.53174544     A.U. after   15 cycles

 Excitation energies and oscillator strengths:

 Excited State   1:      Singlet-A      2.3183 eV  534.81 nm  f=2.7208  <S**2>=0.000
     148 ->149         0.70473
 This state for optimization and/or second-order correction.
 Total Energy, E(TD-HF/TD-DFT) =  -1557.44655043
 Copying the excited state density for this state as the 1-particle RhoCI density.

 The electronic state is 1-A.
 Alpha  occ. eigenvalues --  -10.21047 -10.20682 -10.20679 -10.20624 -10.20539
 Alpha  occ. eigenvalues --  -10.20208 -10.20140 -10.20035 -10.19989 -10.19891
 Alpha  occ. eigenvalues --  -10.19883 -10.19744 -10.19736 -10.19576 -10.19460
 Alpha  occ. eigenvalues --  -10.19343 -10.19277 -10.19076 -10.19054 -10.19023
 Alpha  occ. eigenvalues --  -10.19020 -10.18959 -10.18938 -10.18864 -10.18850
 Alpha  occ. eigenvalues --  -10.18640 -10.18554 -10.18511 -10.18117 -10.18109
 Alpha  occ. eigenvalues --  -10.17821 -10.17812 -10.17801 -10.17664 -10.17536
 Alpha  occ. eigenvalues --  -10.17508 -10.16012 -10.15840 -10.15755 -10.15298
 Alpha  occ. eigenvalues --   -0.84792  -0.84618  -0.83687  -0.83112  -0.82066
 Alpha  occ. eigenvalues --   -0.81490  -0.78719  -0.78691  -0.78114  -0.77064
 Alpha  occ. eigenvalues --   -0.76152  -0.74696  -0.73701  -0.72473  -0.72343
 Alpha  occ. eigenvalues --   -0.70294  -0.69909  -0.68468  -0.68398  -0.67982
 Alpha  occ. eigenvalues --   -0.67184  -0.67045  -0.65940  -0.65545  -0.64865
 Alpha  occ. eigenvalues --   -0.62411  -0.61451  -0.59633  -0.58796  -0.56732
 Alpha  occ. eigenvalues --   -0.55627  -0.55068  -0.54141  -0.53375  -0.52761
 Alpha  occ. eigenvalues --   -0.51914  -0.51386  -0.50128  -0.49310  -0.48359
 Alpha  occ. eigenvalues --   -0.48145  -0.47486  -0.46902  -0.46181  -0.45828
 Alpha  occ. eigenvalues --   -0.45330  -0.44897  -0.44779  -0.44198  -0.43539
 Alpha  occ. eigenvalues --   -0.43402  -0.43199  -0.42984  -0.42685  -0.42376
 Alpha  occ. eigenvalues --   -0.42153  -0.42063  -0.41810  -0.41711  -0.41495
 Alpha  occ. eigenvalues --   -0.41011  -0.40671  -0.40241  -0.40045  -0.39857
 Alpha  occ. eigenvalues --   -0.39715  -0.39505  -0.38944  -0.38599  -0.38425
 Alpha  occ. eigenvalues --   -0.37957  -0.37704  -0.37525  -0.36944  -0.36693
 Alpha  occ. eigenvalues --   -0.36632  -0.36150  -0.35791  -0.35606  -0.34964
 Alpha  occ. eigenvalues --   -0.34624  -0.34203  -0.34044  -0.33615  -0.33375
 Alpha  occ. eigenvalues --   -0.32965  -0.32755  -0.32573  -0.32494  -0.32384
 Alpha  occ. eigenvalues --   -0.32158  -0.31373  -0.31262  -0.31052  -0.30616
 Alpha  occ. eigenvalues --   -0.30311  -0.29331  -0.28948  -0.28306  -0.28162
 Alpha  occ. eigenvalues --   -0.27656  -0.26738  -0.26032  -0.24117  -0.23219
 Alpha  occ. eigenvalues --   -0.21333  -0.19301  -0.16593
 Alpha virt. eigenvalues --   -0.07707  -0.04779  -0.01767   0.00948   0.02627
 Alpha virt. eigenvalues --    0.04103   0.05597   0.06104   0.06601   0.07038
 Alpha virt. eigenvalues --    0.07176   0.07300   0.07792   0.08181   0.08644

 Mulliken charges:
               1
     1  C   -0.009461
     2  C    0.009587
     3  C   -0.175812
     4  C   -0.166612
     5  C   -0.201735
     6  C   -0.181731
     7  C    0.071467
     8  C    0.082346
     9  C   -0.203052
    10  C   -0.229402
    11  C    0.034975
    12  C    0.048494
    13  C   -0.283643
    14  C   -0.286161
    15  C   -0.285133
    16  C   -0.277519
    17  C   -0.166710
    18  C   -0.174430
    19  C   -0.354482
    20  C   -0.367043
    21  C   -0.078998
    22  C   -0.070312
    23  C    0.160616
    24  C    0.125879
    25  C   -0.380132
    26  C   -0.368713
    27  C   -0.157202
    28  C   -0.133451
    29  C   -0.075021
    30  C   -0.110107
    31  C   -0.112695
    32  C   -0.109444
    33  C    0.052595
    34  C    0.140051
    35  C   -0.339348
    36  C   -0.362531
    37  C   -0.115961
    38  C   -0.103661
    39  C   -0.072927
    40  C   -0.116002
    41  H    0.091027
    42  H    0.080855
    43  H    0.103697
    44  H    0.073427
    45  H    0.084548
    46  H    0.098503
    47  H    0.091515
    48  H    0.100832
    49  H    0.089072
    50  H    0.095469
    51  H    0.091365
    52  H    0.096151
    53  H    0.106363
    54  H    0.079536
    55  H    0.102923
    56  H    0.081490
    57  H    0.090836
    58  H    0.104690
    59  H    0.110165
    60  H    0.088242
    61  H    0.104457
    62  H    0.075070
    63  H    0.076179
    64  H    0.082721
    65  H    0.085607
    66  H    0.076678
    67  H    0.107077
    68  H    0.110116
    69  H    0.113887
    70  H    0.100509
    71  H    0.115920
    72  H    0.096290
    73  H    0.057812
    74  H    0.101891
    75  H    0.126441
    76  H    0.107861
    77  H    0.135721
    78  H    0.100539
    79  H    0.140871
    80  H    0.101861
    81  H    0.070644
    82  H    0.058276
    83  H    0.078395
    84  H    0.078264
    85  H    0.098508
    86  H    0.084924
    87  H    0.117155
    88  H    0.109202
    89  H    0.129237
    90  H    0.144210
    91  H    0.076479
    92  H    0.113064
    93  H    0.074860
    94  H    0.067747
    95  H    0.086704
    96  H    0.077537
 Sum of Mulliken charges =  -0.00000

 Dipole moment (field-independent basis, Debye):
    X=             -0.1885    Y=             -0.4679    Z=             -0.0949  Tot=              0.5133
 Quadrupole moment (field-independent basis, Debye-Ang):
   XX=           -230.8517   YY=           -232.3151   ZZ=           -258.6809
   XY=              0.2517   XZ=             -4.8456   YZ=             -2.1876

 Normal termination of Gaussian 16 at Sun Jul 28 05:08:54 2019.
