 Gaussian 16, Revision A.03,
 Gaussian 16:  ES64L-G16RevA.03 25-Dec-2016

 ---------------------------------
 # td=(NStates=1) B3LYP/6-31G(d,p)
 ---------------------------------

 --
 TD
 --
 Symbolic Z-matrix:
 Charge =  0 Multiplicity = 1

                         Standard orientation:
 ---------------------------------------------------------------------
 Center     Atomic      Atomic             Coordinates (Angstroms)
 Number     Number       Type             X           Y           Z
 ---------------------------------------------------------------------
      1          6           0       12.094480    0.346034   -0.829119
      2          6           0      -12.064671   -0.133018    0.888044
      3          6           0       13.364473   -0.532937   -0.714516
      4          6           0      -13.081380    0.897799    1.230803
      5          6           0       13.159458   -2.003361   -0.450791
      6          6           0      -13.418106    1.862937    0.073038
      7          6           0       11.014425    0.002538    0.151131
      8          6           0      -10.897145    0.385978   -0.013258
      9          6           0       12.386231   -2.135649    0.886120
     10          6           0      -12.126393    2.544978   -0.370424
     11          6           0       11.176028   -1.156008    1.023878
     12          6           0      -10.935456    1.564222   -0.619460
     13          6           0       11.454982    0.301483   -2.282721
     14          6           0       12.572113    1.805806   -0.549209
     15          6           0      -12.874099   -1.261337    0.071369
     16          6           0      -11.518794   -0.626646    2.188318
     17          6           0        9.831762    0.836924    0.201349
     18          6           0       -9.954384   -0.635616   -0.255633
     19          6           0       10.184531   -1.490626    2.097511
     20          6           0      -10.064927    2.050329   -1.855222
     21          6           0        8.521226    0.478622    0.262935
     22          6           0       -8.592024   -0.285146   -0.330953
     23          6           0        7.429548    1.386658    0.353437
     24          6           0       -7.495814   -1.274747   -0.509021
     25          6           0        7.712502    2.799660    0.443669
     26          6           0       -7.742928   -2.634956   -0.862478
     27          6           0        6.190951    0.908606    0.391431
     28          6           0       -6.185377   -0.785896   -0.269620
     29          6           0        4.862118    1.592546    0.438608
     30          6           0       -5.054795   -1.517292   -0.389232
     31          6           0        3.633840    0.886841    0.380729
     32          6           0       -3.821136   -1.009276   -0.095691
     33          6           0        2.394717    1.402893    0.360410
     34          6           0       -2.547988   -1.754014   -0.334668
     35          6           0        2.192519    2.901450    0.565352
     36          6           0       -2.621188   -3.245676   -0.743058
     37          6           0        1.274151    0.630971    0.165414
     38          6           0       -1.321150   -1.040414   -0.150500
     39          6           0        1.155665   -0.820030   -0.094129
     40          6           0       -0.043153   -1.508759   -0.316961
     41          1           0       13.795653    0.021023    0.023509
     42          1           0       14.110054   -0.272800   -1.662130
     43          1           0      -12.540482    1.521437    2.038488
     44          1           0      -13.976758    0.637678    1.600798
     45          1           0       14.128520   -2.550557   -0.613720
     46          1           0       12.450014   -2.430960   -1.226541
     47          1           0      -14.394046    2.510723    0.175782
     48          1           0      -13.903717    1.239148   -0.920493
     49          1           0       13.059727   -2.064589    1.753176
     50          1           0       12.032575   -3.156832    0.986503
     51          1           0      -11.786323    3.392442    0.507866
     52          1           0      -12.191651    3.126206   -1.376506
     53          1           0       11.264424   -0.747530   -2.436786
     54          1           0       12.104687    0.658449   -2.876552
     55          1           0       10.647289    0.733971   -2.392867
     56          1           0       12.805927    2.103263    0.666630
     57          1           0       11.873292    2.547350   -0.833028
     58          1           0       13.435327    2.029051   -1.015986
     59          1           0      -13.265911   -1.001796   -0.910423
     60          1           0      -13.853800   -1.584094    0.589321
     61          1           0      -12.290030   -2.281171   -0.045141
     62          1           0      -10.845213    0.054767    2.756995
     63          1           0      -10.839453   -1.395978    2.084529
     64          1           0      -12.344103   -1.035674    2.862001
     65          1           0       10.141774    1.937212    0.287319
     66          1           0      -10.046994   -1.638447   -0.408435
     67          1           0        9.563685   -0.609051    2.392587
     68          1           0       10.773057   -1.874280    3.061862
     69          1           0        9.604895   -2.369015    1.872850
     70          1           0       -9.397223    1.315636   -2.093511
     71          1           0       -9.790012    2.995733   -1.400743
     72          1           0      -10.719913    2.260022   -2.678012
     73          1           0        8.276444   -0.628984    0.430007
     74          1           0       -8.129547    0.625326   -0.028560
     75          1           0        8.677139    3.033037    1.137925
     76          1           0        6.764742    3.390317    0.858485
     77          1           0        8.069836    3.222032   -0.642780
     78          1           0       -8.337308   -2.684049   -1.573132
     79          1           0       -8.448464   -2.864307   -0.024127
     80          1           0       -6.956448   -3.191690   -1.010769
     81          1           0        6.034843   -0.208987    0.514598
     82          1           0       -6.135720    0.340241   -0.137292
     83          1           0        4.819000    2.901134    0.339891
     84          1           0       -4.904376   -2.655910   -0.822485
     85          1           0        3.658604   -0.201114    0.381378
     86          1           0       -3.837911    0.184675    0.096471
     87          1           0        2.509516    3.121858    1.456955
     88          1           0        1.187134    3.128165    0.520220
     89          1           0        2.807995    3.577648   -0.221458
     90          1           0       -2.990826   -3.326222   -1.682847
     91          1           0       -3.428181   -3.716925   -0.276063
     92          1           0       -1.589132   -3.796206   -0.863334
     93          1           0        0.409817    1.256990    0.350276
     94          1           0       -1.628614   -0.057562    0.118983
     95          1           0        2.097937   -1.396123   -0.018858
     96          1           0       -0.000610   -2.539905   -0.494100
 ---------------------------------------------------------------------

 SCF Done:  E(RB3LYP) =  -1557.52045629     A.U. after   16 cycles

 Excitation energies and oscillator strengths:

 Excited State   1:      Singlet-A      1.9760 eV  627.45 nm  f=3.2822  <S**2>=0.000
     148 ->149         0.71055
     148 <-149        -0.13001
 This state for optimization and/or second-order correction.
 Total Energy, E(TD-HF/TD-DFT) =  -1557.44783964
 Copying the excited state density for this state as the 1-particle RhoCI density.

 The electronic state is 1-A.
 Alpha  occ. eigenvalues --  -10.21496 -10.21353 -10.20780 -10.20475 -10.20395
 Alpha  occ. eigenvalues --  -10.20331 -10.20019 -10.20007 -10.19903 -10.19845
 Alpha  occ. eigenvalues --  -10.19627 -10.19525 -10.19517 -10.19085 -10.18974
 Alpha  occ. eigenvalues --  -10.18859 -10.18826 -10.18716 -10.18709 -10.18702
 Alpha  occ. eigenvalues --  -10.18697 -10.18654 -10.18610 -10.18599 -10.18579
 Alpha  occ. eigenvalues --  -10.18573 -10.18563 -10.18546 -10.18365 -10.18311
 Alpha  occ. eigenvalues --  -10.18239 -10.18203 -10.17624 -10.17392 -10.17301
 Alpha  occ. eigenvalues --  -10.17286 -10.16941 -10.16927 -10.15813 -10.13267
 Alpha  occ. eigenvalues --   -0.85617  -0.84356  -0.83931  -0.83505  -0.82608
 Alpha  occ. eigenvalues --   -0.81769  -0.79241  -0.78380  -0.77585  -0.77200
 Alpha  occ. eigenvalues --   -0.76932  -0.75444  -0.73889  -0.72838  -0.71727
 Alpha  occ. eigenvalues --   -0.70891  -0.70142  -0.69753  -0.68675  -0.68097
 Alpha  occ. eigenvalues --   -0.67831  -0.67187  -0.66719  -0.66613  -0.66080
 Alpha  occ. eigenvalues --   -0.63097  -0.61991  -0.59842  -0.58871  -0.57721
 Alpha  occ. eigenvalues --   -0.56470  -0.56003  -0.55178  -0.53813  -0.52694
 Alpha  occ. eigenvalues --   -0.52084  -0.51089  -0.50566  -0.49933  -0.48402
 Alpha  occ. eigenvalues --   -0.47950  -0.47557  -0.47453  -0.46944  -0.46403
 Alpha  occ. eigenvalues --   -0.45948  -0.45614  -0.44882  -0.44264  -0.44021
 Alpha  occ. eigenvalues --   -0.43736  -0.43214  -0.43032  -0.42845  -0.42592
 Alpha  occ. eigenvalues --   -0.42398  -0.42207  -0.41604  -0.41261  -0.40945
 Alpha  occ. eigenvalues --   -0.40764  -0.40637  -0.40078  -0.40013  -0.39797
 Alpha  occ. eigenvalues --   -0.39669  -0.39089  -0.38979  -0.38522  -0.38387
 Alpha  occ. eigenvalues --   -0.37917  -0.37585  -0.37332  -0.36664  -0.36394
 Alpha  occ. eigenvalues --   -0.36181  -0.35883  -0.35796  -0.35577  -0.35431
 Alpha  occ. eigenvalues --   -0.35149  -0.35104  -0.34933  -0.34628  -0.34245
 Alpha  occ. eigenvalues --   -0.34225  -0.33754  -0.33374  -0.32926  -0.32540
 Alpha  occ. eigenvalues --   -0.31946  -0.31851  -0.31663  -0.31465  -0.31396
 Alpha  occ. eigenvalues --   -0.30669  -0.29948  -0.29820  -0.29080  -0.28593
 Alpha  occ. eigenvalues --   -0.28388  -0.27860  -0.26049  -0.24263  -0.22364
 Alpha  occ. eigenvalues --   -0.20513  -0.18506  -0.15705
 Alpha virt. eigenvalues --   -0.08638  -0.05287  -0.02028   0.00384   0.02707
 Alpha virt. eigenvalues --    0.04107   0.05462   0.06055   0.06265   0.07509
 Alpha virt. eigenvalues --    0.07677   0.08102   0.08388   0.08598   0.09109

 Mulliken charges:
               1
     1  C   -0.026220
     2  C    0.013978
     3  C   -0.162147
     4  C   -0.152678
     5  C   -0.189656
     6  C   -0.173783
     7  C    0.079482
     8  C    0.101059
     9  C   -0.228021
    10  C   -0.190780
    11  C    0.056365
    12  C    0.016818
    13  C   -0.273787
    14  C   -0.314411
    15  C   -0.312572
    16  C   -0.305186
    17  C   -0.149389
    18  C   -0.134990
    19  C   -0.367868
    20  C   -0.341340
    21  C   -0.100941
    22  C   -0.104899
    23  C    0.193780
    24  C    0.084864
    25  C   -0.369498
    26  C   -0.338712
    27  C   -0.144619
    28  C   -0.148849
    29  C   -0.100021
    30  C   -0.048462
    31  C   -0.103746
    32  C   -0.127723
    33  C    0.117226
    34  C    0.084379
    35  C   -0.357132
    36  C   -0.394376
    37  C   -0.115566
    38  C   -0.077467
    39  C   -0.102586
    40  C   -0.090605
    41  H    0.114160
    42  H    0.050662
    43  H    0.081167
    44  H    0.098176
    45  H    0.091682
    46  H    0.096562
    47  H    0.084509
    48  H    0.050568
    49  H    0.106540
    50  H    0.100132
    51  H    0.067583
    52  H    0.082645
    53  H    0.095603
    54  H    0.098707
    55  H    0.108455
    56  H    0.059027
    57  H    0.106228
    58  H    0.111871
    59  H    0.117861
    60  H    0.087183
    61  H    0.079734
    62  H    0.103808
    63  H    0.104380
    64  H    0.089348
    65  H    0.082454
    66  H    0.083781
    67  H    0.124242
    68  H    0.078600
    69  H    0.119789
    70  H    0.123643
    71  H    0.123143
    72  H    0.116886
    73  H    0.082614
    74  H    0.080847
    75  H    0.100796
    76  H    0.098931
    77  H    0.099739
    78  H    0.135758
    79  H    0.114759
    80  H    0.108968
    81  H    0.073306
    82  H    0.080025
    83  H    0.056656
    84  H    0.061098
    85  H    0.074721
    86  H    0.070086
    87  H    0.138042
    88  H    0.104567
    89  H    0.094641
    90  H    0.142350
    91  H    0.129510
    92  H    0.107144
    93  H    0.071805
    94  H    0.073966
    95  H    0.085646
    96  H    0.074974
 Sum of Mulliken charges =  -0.00000

 Dipole moment (field-independent basis, Debye):
    X=             -2.3476    Y=             -0.8909    Z=             -0.5025  Tot=              2.5608
 Quadrupole moment (field-independent basis, Debye-Ang):
   XX=           -217.9912   YY=           -234.8420   ZZ=           -254.7208
   XY=              1.9109   XZ=              4.5713   YZ=              2.7450

 Normal termination of Gaussian 16 at Fri Jul 26 12:37:18 2019.
