 Gaussian 16, Revision A.03,
 Gaussian 16:  ES64L-G16RevA.03 25-Dec-2016

 ---------------------------------
 # td=(NStates=1) B3LYP/6-31G(d,p)
 ---------------------------------

 --
 TD
 --
 Symbolic Z-matrix:
 Charge =  0 Multiplicity = 1

                         Standard orientation:
 ---------------------------------------------------------------------
 Center     Atomic      Atomic             Coordinates (Angstroms)
 Number     Number       Type             X           Y           Z
 ---------------------------------------------------------------------
      1          6           0      -12.101805   -0.570899   -0.750145
      2          6           0       12.041111   -0.035068    0.801981
      3          6           0      -13.364094    0.304967   -0.905199
      4          6           0       12.980830   -1.157835    1.319415
      5          6           0      -13.092278    1.830299   -0.877590
      6          6           0       13.460952   -2.097885    0.132402
      7          6           0      -11.046810   -0.053234    0.212022
      8          6           0       10.911706   -0.520465   -0.158140
      9          6           0      -12.431828    2.124692    0.490302
     10          6           0       12.193785   -2.606869   -0.589053
     11          6           0      -11.313755    1.140304    0.775603
     12          6           0       11.141720   -1.590241   -0.837799
     13          6           0      -11.480362   -0.644381   -2.224975
     14          6           0      -12.466326   -2.076028   -0.328955
     15          6           0       12.934058    1.213826    0.237246
     16          6           0       11.464774    0.567953    2.109832
     17          6           0       -9.877699   -0.937844    0.515340
     18          6           0        9.882082    0.487987   -0.388933
     19          6           0      -10.387592    1.697120    1.987070
     20          6           0       10.104011   -1.927063   -1.918898
     21          6           0       -8.597190   -0.474019    0.269805
     22          6           0        8.580328    0.285619   -0.398622
     23          6           0       -7.420565   -1.348157    0.525755
     24          6           0        7.439406    1.199055   -0.490916
     25          6           0       -7.564816   -2.698893    0.914333
     26          6           0        7.849806    2.676327   -0.714927
     27          6           0       -6.219267   -0.831071    0.235682
     28          6           0        6.121671    0.857309   -0.335958
     29          6           0       -4.896195   -1.417364    0.443548
     30          6           0        5.010573    1.637226   -0.377033
     31          6           0       -3.707197   -0.794248    0.320156
     32          6           0        3.753679    1.204325   -0.323790
     33          6           0       -2.388623   -1.237305    0.372216
     34          6           0        2.467288    1.912782   -0.363737
     35          6           0       -2.152866   -2.709803    0.499958
     36          6           0        2.604367    3.467858   -0.332772
     37          6           0       -1.256619   -0.473364    0.129726
     38          6           0        1.325435    1.132560   -0.285579
     39          6           0       -1.122401    0.965335    0.008843
     40          6           0        0.064763    1.806206    0.008181
     41          1           0      -13.729508    0.146039    0.034937
     42          1           0      -13.887929   -0.142029   -1.714152
     43          1           0       12.146834   -1.791353    1.853482
     44          1           0       13.749248   -0.818956    2.211229
     45          1           0      -14.020541    2.396319   -0.967014
     46          1           0      -12.350368    2.132424   -1.678061
     47          1           0       13.836183   -2.869692    0.418798
     48          1           0       14.113051   -1.369477   -0.505293
     49          1           0      -13.123793    2.079369    1.296707
     50          1           0      -11.932357    3.021616    0.510567
     51          1           0       11.985268   -3.521927   -0.130101
     52          1           0       12.634304   -3.011912   -1.635843
     53          1           0      -10.886152    0.396785   -2.369517
     54          1           0      -12.370788   -0.790741   -2.939154
     55          1           0      -10.612408   -1.235627   -2.175919
     56          1           0      -12.678552   -1.936433    0.687601
     57          1           0      -11.443237   -2.771059   -0.398179
     58          1           0      -13.201762   -2.612130   -0.964936
     59          1           0       13.609239    1.129455   -0.634005
     60          1           0       13.641789    1.374252    0.990063
     61          1           0       12.261107    1.973885    0.087122
     62          1           0       10.612749   -0.010181    2.557061
     63          1           0       11.134258    1.589894    1.729364
     64          1           0       12.173170    0.666111    2.911986
     65          1           0       -9.856730   -1.977929    0.908209
     66          1           0       10.057402    1.495118   -0.424554
     67          1           0       -9.631500    0.841258    2.440108
     68          1           0      -11.185056    2.015217    2.750091
     69          1           0       -9.749512    2.500265    1.698475
     70          1           0        9.509782   -1.187945   -2.112688
     71          1           0        9.601556   -2.926090   -1.633163
     72          1           0       10.665489   -2.180698   -2.622273
     73          1           0       -8.342684    0.549221   -0.111072
     74          1           0        8.149067   -0.821801   -0.225823
     75          1           0       -8.010355   -2.781030    1.999693
     76          1           0       -6.586042   -3.047994    1.171654
     77          1           0       -8.140890   -3.263004    0.271664
     78          1           0        8.423844    2.832105   -1.756178
     79          1           0        8.646392    3.002363   -0.003525
     80          1           0        7.099846    3.615842   -0.614278
     81          1           0       -5.908807    0.327173    0.027242
     82          1           0        5.847425   -0.294172   -0.183003
     83          1           0       -4.682427   -2.557730    0.511492
     84          1           0        5.310181    2.663654   -0.429202
     85          1           0       -3.960379    0.298387    0.124916
     86          1           0        3.457127    0.179463   -0.032324
     87          1           0       -2.661202   -3.257766    1.359081
     88          1           0       -0.844305   -2.916186    0.734717
     89          1           0       -2.386394   -3.370735   -0.458960
     90          1           0        3.376763    3.599591   -1.107256
     91          1           0        2.940081    3.831711    0.716956
     92          1           0        1.687170    3.959417   -0.743582
     93          1           0       -0.439748   -1.274882    0.292684
     94          1           0        1.405901   -0.013432   -0.337118
     95          1           0       -2.019206    1.505030    0.110050
     96          1           0       -0.096930    2.772646    0.262850
 ---------------------------------------------------------------------

 SCF Done:  E(RB3LYP) =  -1557.52089373     A.U. after   15 cycles

 Excitation energies and oscillator strengths:

 Excited State   1:      Singlet-A      2.1942 eV  565.07 nm  f=3.0038  <S**2>=0.000
     148 ->149         0.70942
     148 <-149        -0.11238
 This state for optimization and/or second-order correction.
 Total Energy, E(TD-HF/TD-DFT) =  -1557.44026002
 Copying the excited state density for this state as the 1-particle RhoCI density.

 The electronic state is 1-A.
 Alpha  occ. eigenvalues --  -10.21699 -10.20756 -10.20622 -10.20365 -10.20254
 Alpha  occ. eigenvalues --  -10.20133 -10.20120 -10.19924 -10.19915 -10.19798
 Alpha  occ. eigenvalues --  -10.19784 -10.19761 -10.19717 -10.19601 -10.19522
 Alpha  occ. eigenvalues --  -10.19384 -10.19341 -10.19252 -10.19234 -10.19231
 Alpha  occ. eigenvalues --  -10.19206 -10.18911 -10.18879 -10.18738 -10.18731
 Alpha  occ. eigenvalues --  -10.18586 -10.18497 -10.18320 -10.18061 -10.17980
 Alpha  occ. eigenvalues --  -10.17872 -10.17845 -10.17794 -10.17735 -10.17434
 Alpha  occ. eigenvalues --  -10.16890 -10.16827 -10.16597 -10.16104 -10.14381
 Alpha  occ. eigenvalues --   -0.85165  -0.84799  -0.84027  -0.83507  -0.82777
 Alpha  occ. eigenvalues --   -0.81449  -0.79190  -0.78195  -0.77848  -0.77298
 Alpha  occ. eigenvalues --   -0.76834  -0.75807  -0.74572  -0.72320  -0.71961
 Alpha  occ. eigenvalues --   -0.69595  -0.68799  -0.68716  -0.67627  -0.67533
 Alpha  occ. eigenvalues --   -0.67142  -0.66522  -0.66360  -0.66008  -0.65905
 Alpha  occ. eigenvalues --   -0.63133  -0.62298  -0.60336  -0.59836  -0.57882
 Alpha  occ. eigenvalues --   -0.56576  -0.55674  -0.54407  -0.53852  -0.52675
 Alpha  occ. eigenvalues --   -0.52258  -0.51432  -0.51028  -0.50732  -0.49222
 Alpha  occ. eigenvalues --   -0.48481  -0.48145  -0.47079  -0.46372  -0.45917
 Alpha  occ. eigenvalues --   -0.45810  -0.45445  -0.45048  -0.44574  -0.44219
 Alpha  occ. eigenvalues --   -0.43716  -0.43242  -0.43149  -0.42826  -0.42560
 Alpha  occ. eigenvalues --   -0.42115  -0.41965  -0.41310  -0.41263  -0.41035
 Alpha  occ. eigenvalues --   -0.40689  -0.39957  -0.39847  -0.39717  -0.39461
 Alpha  occ. eigenvalues --   -0.39315  -0.39048  -0.38353  -0.38209  -0.37984
 Alpha  occ. eigenvalues --   -0.37649  -0.37462  -0.37353  -0.36752  -0.36247
 Alpha  occ. eigenvalues --   -0.36147  -0.35887  -0.35762  -0.35176  -0.35121
 Alpha  occ. eigenvalues --   -0.34782  -0.34554  -0.34317  -0.33856  -0.33782
 Alpha  occ. eigenvalues --   -0.33650  -0.33314  -0.32867  -0.32814  -0.32610
 Alpha  occ. eigenvalues --   -0.32241  -0.31725  -0.31424  -0.31213  -0.30048
 Alpha  occ. eigenvalues --   -0.29645  -0.29484  -0.29356  -0.28864  -0.28574
 Alpha  occ. eigenvalues --   -0.28280  -0.27706  -0.26457  -0.24301  -0.23147
 Alpha  occ. eigenvalues --   -0.21710  -0.19714  -0.16729
 Alpha virt. eigenvalues --   -0.08623  -0.05039  -0.01850   0.01185   0.02980
 Alpha virt. eigenvalues --    0.04114   0.05132   0.05690   0.07050   0.07385
 Alpha virt. eigenvalues --    0.07827   0.07890   0.08074   0.08309   0.08914

 Mulliken charges:
               1
     1  C   -0.032186
     2  C   -0.025307
     3  C   -0.159663
     4  C   -0.189283
     5  C   -0.184442
     6  C   -0.128050
     7  C    0.083416
     8  C    0.104634
     9  C   -0.224494
    10  C   -0.254666
    11  C    0.024783
    12  C    0.070628
    13  C   -0.284766
    14  C   -0.298978
    15  C   -0.307229
    16  C   -0.287960
    17  C   -0.162441
    18  C   -0.142421
    19  C   -0.350992
    20  C   -0.322466
    21  C   -0.065670
    22  C   -0.083076
    23  C    0.138993
    24  C    0.124078
    25  C   -0.392284
    26  C   -0.392985
    27  C   -0.132530
    28  C   -0.119599
    29  C   -0.079822
    30  C   -0.046682
    31  C   -0.101355
    32  C   -0.115565
    33  C    0.110654
    34  C    0.104501
    35  C   -0.361848
    36  C   -0.362794
    37  C   -0.075348
    38  C   -0.125492
    39  C   -0.121009
    40  C   -0.084221
    41  H    0.099134
    42  H    0.086778
    43  H    0.070909
    44  H    0.067392
    45  H    0.092177
    46  H    0.096506
    47  H    0.082601
    48  H    0.086453
    49  H    0.116590
    50  H    0.115567
    51  H    0.121748
    52  H    0.073215
    53  H    0.068353
    54  H    0.088853
    55  H    0.109059
    56  H    0.113266
    57  H    0.068879
    58  H    0.099403
    59  H    0.089889
    60  H    0.108091
    61  H    0.103837
    62  H    0.098225
    63  H    0.078571
    64  H    0.100056
    65  H    0.098357
    66  H    0.074438
    67  H    0.092429
    68  H    0.093763
    69  H    0.118223
    70  H    0.117785
    71  H    0.086256
    72  H    0.112059
    73  H    0.085399
    74  H    0.065632
    75  H    0.103822
    76  H    0.121625
    77  H    0.136669
    78  H    0.104541
    79  H    0.121443
    80  H    0.096839
    81  H    0.064751
    82  H    0.060365
    83  H    0.066027
    84  H    0.072795
    85  H    0.057099
    86  H    0.072176
    87  H    0.117691
    88  H    0.053961
    89  H    0.118258
    90  H    0.126731
    91  H    0.122984
    92  H    0.107208
    93  H    0.064998
    94  H    0.102758
    95  H    0.084176
    96  H    0.097130
 Sum of Mulliken charges =  -0.00000

 Dipole moment (field-independent basis, Debye):
    X=             -0.6604    Y=              0.2449    Z=              0.6772  Tot=              0.9771
 Quadrupole moment (field-independent basis, Debye-Ang):
   XX=           -226.6462   YY=           -232.4024   ZZ=           -257.5745
   XY=             -2.6428   XZ=             -3.5786   YZ=             -1.3395

 Normal termination of Gaussian 16 at Sun Jul 28 23:34:39 2019.
