 Gaussian 16, Revision A.03,
 Gaussian 16:  ES64L-G16RevA.03 25-Dec-2016

 ---------------------------------
 # td=(NStates=1) B3LYP/6-31G(d,p)
 ---------------------------------

 --
 TD
 --
 Symbolic Z-matrix:
 Charge =  0 Multiplicity = 1

                         Standard orientation:
 ---------------------------------------------------------------------
 Center     Atomic      Atomic             Coordinates (Angstroms)
 Number     Number       Type             X           Y           Z
 ---------------------------------------------------------------------
      1          6           0      -12.237532   -0.574239   -0.702915
      2          6           0       12.134863    0.053168    0.834836
      3          6           0      -13.458790    0.187644   -0.656102
      4          6           0       13.076444   -1.093743    1.316860
      5          6           0      -13.224889    1.738565   -0.705823
      6          6           0       13.519845   -1.990649    0.173147
      7          6           0      -11.078893    0.018553    0.297823
      8          6           0       11.001724   -0.454169   -0.104979
      9          6           0      -12.399654    2.033868    0.696542
     10          6           0       12.223858   -2.596544   -0.467023
     11          6           0      -11.262848    1.181446    0.865085
     12          6           0       11.171171   -1.662239   -0.696007
     13          6           0      -11.675935   -0.716672   -2.157376
     14          6           0      -12.558722   -2.026991   -0.370543
     15          6           0       12.999079    1.121601    0.036904
     16          6           0       11.640398    0.808355    2.123967
     17          6           0       -9.854606   -0.791752    0.243770
     18          6           0        9.928127    0.482107   -0.297694
     19          6           0      -10.231988    1.748938    1.863680
     20          6           0       10.093672   -2.211257   -1.707078
     21          6           0       -8.620585   -0.431032    0.341254
     22          6           0        8.559002    0.244361   -0.245294
     23          6           0       -7.429114   -1.279725    0.508722
     24          6           0        7.480470    1.248411   -0.443333
     25          6           0       -7.564843   -2.639448    0.982051
     26          6           0        7.868311    2.684843   -0.823664
     27          6           0       -6.189153   -0.720021    0.250717
     28          6           0        6.173465    0.846231   -0.344481
     29          6           0       -4.884284   -1.284188    0.368460
     30          6           0        4.975124    1.589413   -0.385690
     31          6           0       -3.700252   -0.669615    0.136846
     32          6           0        3.759964    1.034936   -0.329304
     33          6           0       -2.373815   -1.283448    0.313025
     34          6           0        2.503620    1.829809   -0.298232
     35          6           0       -2.232964   -2.751286    0.509010
     36          6           0        2.573578    3.359848   -0.497645
     37          6           0       -1.116493   -0.487388    0.218300
     38          6           0        1.300475    1.145045   -0.289918
     39          6           0       -1.153430    0.964543   -0.064622
     40          6           0       -0.075724    1.670327   -0.402949
     41          1           0      -14.090744   -0.055166    0.228074
     42          1           0      -14.024416    0.009984   -1.674801
     43          1           0       12.413788   -1.584285    2.167101
     44          1           0       13.931504   -0.648294    1.653317
     45          1           0      -14.145327    2.297900   -0.531214
     46          1           0      -12.759250    2.028007   -1.509070
     47          1           0       14.175071   -2.964209    0.466976
     48          1           0       13.977831   -1.414177   -0.394154
     49          1           0      -12.923586    2.076949    1.568556
     50          1           0      -12.199911    3.041034    0.487096
     51          1           0       11.789936   -3.295388    0.308662
     52          1           0       12.461705   -3.243896   -1.300249
     53          1           0      -11.387979    0.301666   -2.722332
     54          1           0      -12.323503   -1.237963   -2.552723
     55          1           0      -10.827778   -1.269668   -2.240562
     56          1           0      -12.882939   -2.328420    0.698055
     57          1           0      -11.852070   -2.610712   -0.708355
     58          1           0      -13.476916   -2.297952   -1.067286
     59          1           0       13.502001    0.870811   -0.819150
     60          1           0       13.803633    1.634433    0.828767
     61          1           0       12.191786    1.983035   -0.283295
     62          1           0       11.101282    0.067938    2.729822
     63          1           0       10.911995    1.624823    1.734915
     64          1           0       12.593794    1.207283    2.657798
     65          1           0       -9.821791   -1.878078    0.648076
     66          1           0       10.198163    1.546394   -0.526976
     67          1           0       -9.509574    1.040978    2.383513
     68          1           0      -10.655117    2.413262    2.651820
     69          1           0       -9.549316    2.440615    1.338360
     70          1           0        9.300581   -1.445147   -1.935098
     71          1           0        9.768956   -3.086619   -1.489875
     72          1           0       10.630655   -2.431416   -2.632250
     73          1           0       -8.473610    0.619723    0.077160
     74          1           0        8.260663   -0.823490   -0.165752
     75          1           0       -8.528752   -2.759856    1.714986
     76          1           0       -6.530037   -3.011707    1.457207
     77          1           0       -7.790664   -3.352305    0.050640
     78          1           0        8.452207    2.646589   -1.777319
     79          1           0        8.562012    3.030036   -0.042359
     80          1           0        7.153358    3.343370   -0.963056
     81          1           0       -6.173185    0.391874    0.070264
     82          1           0        6.098527   -0.333514   -0.309098
     83          1           0       -5.074972   -2.327921    0.835051
     84          1           0        5.079918    2.678716   -0.512249
     85          1           0       -3.495232    0.518464    0.231839
     86          1           0        3.545819    0.061257   -0.023424
     87          1           0       -2.649728   -3.269627    1.362422
     88          1           0       -1.195027   -3.140251    0.348354
     89          1           0       -2.629487   -3.334943   -0.290916
     90          1           0        3.275429    3.654607   -1.583607
     91          1           0        3.417128    3.572143    0.369305
     92          1           0        1.709575    4.110266   -0.481409
     93          1           0       -0.282029   -1.125829    0.141139
     94          1           0        1.254232    0.000335   -0.350495
     95          1           0       -2.171221    1.414857   -0.153895
     96          1           0       -0.089468    2.677842   -0.710280
 ---------------------------------------------------------------------

 SCF Done:  E(RB3LYP) =  -1557.53245636     A.U. after   15 cycles

 Excitation energies and oscillator strengths:

 Excited State   1:      Singlet-A      2.2333 eV  555.16 nm  f=2.3484  <S**2>=0.000
     148 ->149         0.70123
 This state for optimization and/or second-order correction.
 Total Energy, E(TD-HF/TD-DFT) =  -1557.45038443
 Copying the excited state density for this state as the 1-particle RhoCI density.

 The electronic state is 1-A.
 Alpha  occ. eigenvalues --  -10.22336 -10.21391 -10.21325 -10.20891 -10.20345
 Alpha  occ. eigenvalues --  -10.20330 -10.20257 -10.20016 -10.19996 -10.19976
 Alpha  occ. eigenvalues --  -10.19695 -10.19365 -10.19171 -10.19135 -10.19018
 Alpha  occ. eigenvalues --  -10.18991 -10.18990 -10.18978 -10.18976 -10.18722
 Alpha  occ. eigenvalues --  -10.18589 -10.18477 -10.18354 -10.18324 -10.18251
 Alpha  occ. eigenvalues --  -10.18148 -10.18088 -10.17897 -10.17859 -10.17848
 Alpha  occ. eigenvalues --  -10.17758 -10.17724 -10.17648 -10.17616 -10.17554
 Alpha  occ. eigenvalues --  -10.17110 -10.16911 -10.16680 -10.16318 -10.15278
 Alpha  occ. eigenvalues --   -0.85166  -0.84990  -0.83353  -0.82918  -0.81844
 Alpha  occ. eigenvalues --   -0.80738  -0.79779  -0.79002  -0.78179  -0.77628
 Alpha  occ. eigenvalues --   -0.77018  -0.74943  -0.74218  -0.72623  -0.72051
 Alpha  occ. eigenvalues --   -0.69403  -0.68896  -0.68763  -0.67980  -0.67690
 Alpha  occ. eigenvalues --   -0.67566  -0.67162  -0.66800  -0.66403  -0.65821
 Alpha  occ. eigenvalues --   -0.62961  -0.62428  -0.60965  -0.60058  -0.57383
 Alpha  occ. eigenvalues --   -0.56769  -0.55605  -0.54564  -0.53793  -0.52449
 Alpha  occ. eigenvalues --   -0.51978  -0.51084  -0.50754  -0.50239  -0.49667
 Alpha  occ. eigenvalues --   -0.48555  -0.47828  -0.47526  -0.46763  -0.46138
 Alpha  occ. eigenvalues --   -0.45717  -0.44887  -0.44503  -0.44343  -0.43998
 Alpha  occ. eigenvalues --   -0.43621  -0.43096  -0.42829  -0.42363  -0.42222
 Alpha  occ. eigenvalues --   -0.42070  -0.41371  -0.41251  -0.41181  -0.41068
 Alpha  occ. eigenvalues --   -0.40743  -0.40573  -0.40184  -0.40034  -0.39620
 Alpha  occ. eigenvalues --   -0.39311  -0.38977  -0.38758  -0.38250  -0.38230
 Alpha  occ. eigenvalues --   -0.37721  -0.37143  -0.37045  -0.37004  -0.36700
 Alpha  occ. eigenvalues --   -0.36589  -0.36358  -0.36121  -0.35563  -0.35253
 Alpha  occ. eigenvalues --   -0.35219  -0.35066  -0.34987  -0.34568  -0.34000
 Alpha  occ. eigenvalues --   -0.33612  -0.33531  -0.33487  -0.33130  -0.32406
 Alpha  occ. eigenvalues --   -0.31915  -0.31660  -0.31515  -0.31476  -0.31267
 Alpha  occ. eigenvalues --   -0.30401  -0.30236  -0.29870  -0.28757  -0.28639
 Alpha  occ. eigenvalues --   -0.27543  -0.26013  -0.25630  -0.24079  -0.22711
 Alpha  occ. eigenvalues --   -0.21474  -0.18955  -0.16869
 Alpha virt. eigenvalues --   -0.08146  -0.05474  -0.01745   0.00553   0.02354
 Alpha virt. eigenvalues --    0.03455   0.05570   0.05961   0.06592   0.06790
 Alpha virt. eigenvalues --    0.07603   0.08216   0.08551   0.08999   0.09192

 Mulliken charges:
               1
     1  C    0.011326
     2  C   -0.038429
     3  C   -0.170202
     4  C   -0.158917
     5  C   -0.194496
     6  C   -0.161285
     7  C    0.076243
     8  C    0.088838
     9  C   -0.257879
    10  C   -0.236560
    11  C    0.077468
    12  C    0.076840
    13  C   -0.286776
    14  C   -0.299506
    15  C   -0.279765
    16  C   -0.280064
    17  C   -0.110687
    18  C   -0.153156
    19  C   -0.375901
    20  C   -0.363414
    21  C   -0.093034
    22  C   -0.106727
    23  C    0.138420
    24  C    0.104850
    25  C   -0.383630
    26  C   -0.367298
    27  C   -0.111914
    28  C   -0.124128
    29  C   -0.069585
    30  C   -0.081549
    31  C   -0.117184
    32  C   -0.087050
    33  C    0.089091
    34  C    0.107271
    35  C   -0.389640
    36  C   -0.345573
    37  C   -0.117203
    38  C   -0.127960
    39  C   -0.078311
    40  C   -0.088507
    41  H    0.090666
    42  H    0.065003
    43  H    0.071685
    44  H    0.091774
    45  H    0.089210
    46  H    0.110279
    47  H    0.065708
    48  H    0.109166
    49  H    0.116433
    50  H    0.110787
    51  H    0.111122
    52  H    0.096140
    53  H    0.072399
    54  H    0.106084
    55  H    0.112577
    56  H    0.089070
    57  H    0.114443
    58  H    0.074449
    59  H    0.115055
    60  H    0.063893
    61  H    0.070527
    62  H    0.103100
    63  H    0.092603
    64  H    0.091142
    65  H    0.054824
    66  H    0.084347
    67  H    0.112563
    68  H    0.093739
    69  H    0.112619
    70  H    0.111836
    71  H    0.121505
    72  H    0.098466
    73  H    0.072008
    74  H    0.083429
    75  H    0.110973
    76  H    0.102599
    77  H    0.116680
    78  H    0.119153
    79  H    0.117502
    80  H    0.114972
    81  H    0.069705
    82  H    0.061573
    83  H    0.069068
    84  H    0.082116
    85  H    0.078377
    86  H    0.087246
    87  H    0.123183
    88  H    0.098013
    89  H    0.125957
    90  H    0.076177
    91  H    0.101524
    92  H    0.120232
    93  H    0.090985
    94  H    0.074006
    95  H    0.089029
    96  H    0.078262
 Sum of Mulliken charges =  -0.00000

 Dipole moment (field-independent basis, Debye):
    X=              0.1336    Y=             -0.3223    Z=             -0.2850  Tot=              0.4505
 Quadrupole moment (field-independent basis, Debye-Ang):
   XX=           -225.1219   YY=           -232.0571   ZZ=           -255.8025
   XY=             -8.4101   XZ=             -8.4648   YZ=             -2.1028

 Normal termination of Gaussian 16 at Wed Jul 31 21:31:53 2019.
