 Gaussian 16, Revision A.03,
 Gaussian 16:  ES64L-G16RevA.03 25-Dec-2016

 ---------------------------------
 # td=(NStates=1) B3LYP/6-31G(d,p)
 ---------------------------------

 --
 TD
 --
 Symbolic Z-matrix:
 Charge =  0 Multiplicity = 1

                         Standard orientation:
 ---------------------------------------------------------------------
 Center     Atomic      Atomic             Coordinates (Angstroms)
 Number     Number       Type             X           Y           Z
 ---------------------------------------------------------------------
      1          6           0      -12.159230   -0.497091   -0.701858
      2          6           0       12.105556   -0.011825    0.992837
      3          6           0      -13.487836    0.312478   -0.456194
      4          6           0       12.862027   -1.356548    1.477326
      5          6           0      -13.220051    1.817032   -0.166120
      6          6           0       13.287878   -2.138867    0.345674
      7          6           0      -11.009787   -0.017326    0.263930
      8          6           0       10.994473   -0.498227   -0.042083
      9          6           0      -12.316904    2.046452    1.024077
     10          6           0       12.151845   -2.639668   -0.575800
     11          6           0      -11.110877    1.128107    1.085443
     12          6           0       11.109137   -1.586632   -0.789423
     13          6           0      -11.674404   -0.375452   -2.213306
     14          6           0      -12.435665   -2.010416   -0.493593
     15          6           0       13.064261    0.975640    0.458934
     16          6           0       11.400503    0.703132    2.291945
     17          6           0       -9.850761   -0.988404    0.246708
     18          6           0        9.923950    0.572579   -0.188009
     19          6           0      -10.115188    1.528487    2.136629
     20          6           0       10.161706   -1.967619   -1.883107
     21          6           0       -8.554190   -0.509410    0.303347
     22          6           0        8.564519    0.415343   -0.162169
     23          6           0       -7.273131   -1.350604    0.347468
     24          6           0        7.527273    1.418411   -0.449361
     25          6           0       -7.608433   -2.835861    0.496340
     26          6           0        7.848984    2.818587   -0.480427
     27          6           0       -6.073157   -0.848770    0.289914
     28          6           0        6.159850    0.968645   -0.511882
     29          6           0       -4.819451   -1.413683    0.310706
     30          6           0        4.937743    1.754110   -0.576662
     31          6           0       -3.665837   -0.751559    0.109707
     32          6           0        3.777510    1.176048   -0.602784
     33          6           0       -2.356795   -1.243142    0.252196
     34          6           0        2.546563    1.852589   -0.541795
     35          6           0       -2.100619   -2.690072    0.607356
     36          6           0        2.474652    3.366290   -0.790389
     37          6           0       -1.185139   -0.478072    0.011708
     38          6           0        1.309456    1.196056   -0.444212
     39          6           0       -1.090529    0.863153   -0.478256
     40          6           0        0.007817    1.644761   -0.768910
     41          1           0      -14.111759   -0.264279    0.339078
     42          1           0      -14.070861    0.044115   -1.395642
     43          1           0       12.136036   -1.977435    2.111637
     44          1           0       13.567534   -1.249387    2.360059
     45          1           0      -14.171422    2.505838   -0.058942
     46          1           0      -12.847838    2.345578   -1.138750
     47          1           0       13.996964   -2.969458    0.579049
     48          1           0       13.936475   -1.650004   -0.554412
     49          1           0      -12.920883    2.073328    1.997276
     50          1           0      -11.835041    3.046162    1.145137
     51          1           0       11.634870   -3.380392    0.100386
     52          1           0       12.421138   -2.931006   -1.550355
     53          1           0      -11.422043    0.678479   -2.577627
     54          1           0      -12.464615   -0.922003   -2.904532
     55          1           0      -10.776922   -1.034894   -2.474103
     56          1           0      -12.640688   -1.944623    0.572967
     57          1           0      -11.695137   -2.762474   -0.925848
     58          1           0      -13.253400   -2.385480   -1.036022
     59          1           0       13.400250    0.729114   -0.760125
     60          1           0       13.829517    1.119389    1.147610
     61          1           0       12.537398    1.958188    0.131963
     62          1           0       10.680658    0.077891    2.884724
     63          1           0       10.641414    1.550446    2.103868
     64          1           0       12.236994    1.273675    2.878195
     65          1           0      -10.066581   -1.896479    0.330640
     66          1           0       10.233809    1.533040   -0.373892
     67          1           0       -9.612487    0.586256    2.583670
     68          1           0      -10.542059    2.037237    2.997416
     69          1           0       -9.432634    2.325805    1.916102
     70          1           0        9.368906   -1.243991   -1.860074
     71          1           0        9.828678   -3.120830   -1.677318
     72          1           0       10.449022   -2.111798   -2.905404
     73          1           0       -8.167893    0.475387    0.397629
     74          1           0        8.306164   -0.543980    0.104759
     75          1           0       -8.248917   -3.061198    1.449131
     76          1           0       -6.722345   -3.487454    0.572920
     77          1           0       -8.217620   -3.104210   -0.256097
     78          1           0        8.447704    3.216846   -1.531685
     79          1           0        8.304398    2.965072    0.508294
     80          1           0        6.921720    3.583143   -0.582626
     81          1           0       -5.933578    0.228430   -0.043205
     82          1           0        6.049685   -0.134781   -0.335129
     83          1           0       -4.673825   -2.424849    0.501874
     84          1           0        4.991754    2.829619   -0.710937
     85          1           0       -4.048590    0.324525    0.071926
     86          1           0        3.643876    0.169937   -0.456752
     87          1           0       -2.932890   -2.971031    1.318152
     88          1           0       -1.035071   -2.969693    0.709331
     89          1           0       -2.483877   -3.575227   -0.030612
     90          1           0        3.143844    3.830800   -1.734670
     91          1           0        2.768992    3.942454    0.208439
     92          1           0        1.504456    3.704052   -1.150611
     93          1           0       -0.301739   -1.170569    0.216614
     94          1           0        1.386170    0.081034   -0.107583
     95          1           0       -2.241367    1.155857   -0.355228
     96          1           0       -0.142652    2.803907   -1.166085
 ---------------------------------------------------------------------

 SCF Done:  E(RB3LYP) =  -1557.55712538     A.U. after   15 cycles

 Excitation energies and oscillator strengths:

 Excited State   1:      Singlet-A      2.0894 eV  593.41 nm  f=2.9441  <S**2>=0.000
     148 ->149         0.70702
     148 <-149        -0.12004
 This state for optimization and/or second-order correction.
 Total Energy, E(TD-HF/TD-DFT) =  -1557.48034283
 Copying the excited state density for this state as the 1-particle RhoCI density.

 The electronic state is 1-A.
 Alpha  occ. eigenvalues --  -10.21265 -10.20900 -10.20849 -10.20788 -10.20453
 Alpha  occ. eigenvalues --  -10.20318 -10.20159 -10.20154 -10.20013 -10.19983
 Alpha  occ. eigenvalues --  -10.19788 -10.19726 -10.19641 -10.19638 -10.19592
 Alpha  occ. eigenvalues --  -10.19564 -10.19402 -10.19396 -10.19291 -10.19045
 Alpha  occ. eigenvalues --  -10.18942 -10.18916 -10.18875 -10.18824 -10.18766
 Alpha  occ. eigenvalues --  -10.18753 -10.18618 -10.18598 -10.18251 -10.18251
 Alpha  occ. eigenvalues --  -10.18140 -10.18084 -10.17956 -10.17953 -10.17937
 Alpha  occ. eigenvalues --  -10.17901 -10.17835 -10.17774 -10.17544 -10.17045
 Alpha  occ. eigenvalues --   -0.84670  -0.84429  -0.83668  -0.83476  -0.81909
 Alpha  occ. eigenvalues --   -0.81272  -0.79242  -0.78272  -0.78265  -0.77596
 Alpha  occ. eigenvalues --   -0.76762  -0.75374  -0.74214  -0.72490  -0.72169
 Alpha  occ. eigenvalues --   -0.69372  -0.69111  -0.67701  -0.67438  -0.67378
 Alpha  occ. eigenvalues --   -0.67368  -0.67221  -0.66248  -0.66230  -0.65369
 Alpha  occ. eigenvalues --   -0.63294  -0.61690  -0.59676  -0.58770  -0.57764
 Alpha  occ. eigenvalues --   -0.57072  -0.55728  -0.55304  -0.54816  -0.54292
 Alpha  occ. eigenvalues --   -0.52856  -0.51772  -0.50539  -0.49286  -0.48501
 Alpha  occ. eigenvalues --   -0.48104  -0.47330  -0.46894  -0.46678  -0.46179
 Alpha  occ. eigenvalues --   -0.45526  -0.45134  -0.45029  -0.44454  -0.44128
 Alpha  occ. eigenvalues --   -0.43836  -0.43519  -0.42897  -0.42502  -0.42373
 Alpha  occ. eigenvalues --   -0.42039  -0.41704  -0.41370  -0.41228  -0.40860
 Alpha  occ. eigenvalues --   -0.40481  -0.40327  -0.39899  -0.39536  -0.39497
 Alpha  occ. eigenvalues --   -0.38979  -0.38761  -0.38606  -0.38095  -0.37954
 Alpha  occ. eigenvalues --   -0.37613  -0.37380  -0.37081  -0.36563  -0.36426
 Alpha  occ. eigenvalues --   -0.36126  -0.35897  -0.35481  -0.34936  -0.34803
 Alpha  occ. eigenvalues --   -0.34430  -0.34314  -0.34037  -0.34004  -0.33460
 Alpha  occ. eigenvalues --   -0.33177  -0.33081  -0.33032  -0.32675  -0.32663
 Alpha  occ. eigenvalues --   -0.32549  -0.32043  -0.31635  -0.31439  -0.30541
 Alpha  occ. eigenvalues --   -0.30161  -0.29409  -0.28911  -0.28446  -0.28205
 Alpha  occ. eigenvalues --   -0.27878  -0.27605  -0.26167  -0.24002  -0.22709
 Alpha  occ. eigenvalues --   -0.21011  -0.19297  -0.16193
 Alpha virt. eigenvalues --   -0.08590  -0.04923  -0.01919   0.00586   0.02426
 Alpha virt. eigenvalues --    0.03785   0.05845   0.06345   0.06837   0.07345
 Alpha virt. eigenvalues --    0.07531   0.07823   0.08448   0.08973   0.09138

 Mulliken charges:
               1
     1  C    0.004596
     2  C    0.022059
     3  C   -0.171289
     4  C   -0.182142
     5  C   -0.187635
     6  C   -0.172187
     7  C    0.034584
     8  C    0.033850
     9  C   -0.214566
    10  C   -0.211417
    11  C    0.084405
    12  C    0.093708
    13  C   -0.293489
    14  C   -0.316026
    15  C   -0.270391
    16  C   -0.317177
    17  C   -0.102003
    18  C   -0.138255
    19  C   -0.379555
    20  C   -0.364130
    21  C   -0.082891
    22  C   -0.096623
    23  C    0.111289
    24  C    0.122202
    25  C   -0.374323
    26  C   -0.369116
    27  C   -0.154460
    28  C   -0.134930
    29  C   -0.035057
    30  C   -0.066632
    31  C   -0.116906
    32  C   -0.067068
    33  C    0.116656
    34  C    0.110305
    35  C   -0.383681
    36  C   -0.359301
    37  C   -0.103175
    38  C   -0.123084
    39  C   -0.085924
    40  C   -0.095739
    41  H    0.081697
    42  H    0.091082
    43  H    0.087512
    44  H    0.085583
    45  H    0.077423
    46  H    0.094771
    47  H    0.085183
    48  H    0.071638
    49  H    0.101791
    50  H    0.101029
    51  H    0.106417
    52  H    0.106168
    53  H    0.098060
    54  H    0.074028
    55  H    0.098128
    56  H    0.109720
    57  H    0.094429
    58  H    0.104708
    59  H    0.065268
    60  H    0.116976
    61  H    0.095216
    62  H    0.103773
    63  H    0.093498
    64  H    0.083498
    65  H    0.084490
    66  H    0.085521
    67  H    0.114816
    68  H    0.102543
    69  H    0.120080
    70  H    0.121512
    71  H    0.076569
    72  H    0.118329
    73  H    0.082574
    74  H    0.078481
    75  H    0.101284
    76  H    0.100567
    77  H    0.136427
    78  H    0.088030
    79  H    0.131887
    80  H    0.095635
    81  H    0.064541
    82  H    0.073025
    83  H    0.056411
    84  H    0.086064
    85  H    0.078161
    86  H    0.068609
    87  H    0.112703
    88  H    0.120010
    89  H    0.109343
    90  H    0.078801
    91  H    0.107947
    92  H    0.110747
    93  H    0.060864
    94  H    0.076493
    95  H    0.082493
    96  H    0.082958
 Sum of Mulliken charges =  -0.00000

 Dipole moment (field-independent basis, Debye):
    X=             -0.7968    Y=             -0.4581    Z=              0.6039  Tot=              1.0997
 Quadrupole moment (field-independent basis, Debye-Ang):
   XX=           -220.5579   YY=           -233.4879   ZZ=           -254.0154
   XY=             -1.0573   XZ=             -1.7337   YZ=              0.7197

 Normal termination of Gaussian 16 at Sat Jul 27 20:19:55 2019.
