 Gaussian 16, Revision A.03,
 Gaussian 16:  ES64L-G16RevA.03 25-Dec-2016

 ---------------------------------
 # td=(NStates=1) B3LYP/6-31G(d,p)
 ---------------------------------

 --
 TD
 --
 Symbolic Z-matrix:
 Charge =  0 Multiplicity = 1

                         Standard orientation:
 ---------------------------------------------------------------------
 Center     Atomic      Atomic             Coordinates (Angstroms)
 Number     Number       Type             X           Y           Z
 ---------------------------------------------------------------------
      1          6           0       12.113855    0.567437   -0.763578
      2          6           0      -12.270754   -0.084265    0.736932
      3          6           0       13.375655   -0.245192   -0.744336
      4          6           0      -13.172800    1.167403    1.055003
      5          6           0       13.164752   -1.710532   -0.700532
      6          6           0      -13.473126    2.074594   -0.115430
      7          6           0       11.017896   -0.104177    0.213635
      8          6           0      -10.925062    0.406636   -0.029745
      9          6           0       12.356116   -2.088000    0.657551
     10          6           0      -12.093041    2.660141   -0.552903
     11          6           0       11.223722   -1.194730    0.846758
     12          6           0      -10.855735    1.646978   -0.669944
     13          6           0       11.550347    0.527758   -2.154840
     14          6           0       12.460749    2.040395   -0.368690
     15          6           0      -13.009709   -1.048177   -0.060293
     16          6           0      -11.828811   -0.718714    2.097553
     17          6           0        9.812286    0.801169    0.286295
     18          6           0       -9.794873   -0.562477   -0.184699
     19          6           0       10.227458   -1.820480    1.876084
     20          6           0       -9.751174    2.063017   -1.583780
     21          6           0        8.519644    0.390504    0.323216
     22          6           0       -8.527390   -0.331738   -0.161446
     23          6           0        7.386829    1.309347    0.418917
     24          6           0       -7.465771   -1.311696   -0.343498
     25          6           0        7.645512    2.884970    0.504190
     26          6           0       -7.877806   -2.743849   -0.615135
     27          6           0        6.134786    0.769212    0.399042
     28          6           0       -6.208931   -0.917558   -0.190628
     29          6           0        4.858083    1.501626    0.402215
     30          6           0       -4.999265   -1.577137   -0.387887
     31          6           0        3.721309    0.692563    0.241639
     32          6           0       -3.784239   -1.156412   -0.257152
     33          6           0        2.402817    1.223417    0.454766
     34          6           0       -2.506411   -1.854584   -0.384363
     35          6           0        2.247740    2.679510    0.715466
     36          6           0       -2.548174   -3.367455   -0.751567
     37          6           0        1.266846    0.436148    0.338130
     38          6           0       -1.336408   -1.117851   -0.200876
     39          6           0        1.204298   -0.866113    0.017823
     40          6           0        0.062699   -1.586377   -0.181362
     41          1           0       13.858255   -0.233622    0.385932
     42          1           0       14.077885    0.062204   -1.338813
     43          1           0      -12.647091    1.716619    1.804367
     44          1           0      -14.026259    0.811924    1.450294
     45          1           0       14.324826   -2.064750   -0.671108
     46          1           0       12.327842   -1.983505   -1.452045
     47          1           0      -14.097052    2.841175    0.064168
     48          1           0      -13.884787    1.519284   -0.909628
     49          1           0       13.091034   -2.240681    1.596147
     50          1           0       12.108480   -3.184405    0.385258
     51          1           0      -11.840419    3.438807    0.271733
     52          1           0      -12.107342    3.222259   -1.399485
     53          1           0       11.350657   -0.466431   -2.783627
     54          1           0       12.219279    0.978094   -2.874418
     55          1           0       10.657399    1.045793   -2.161175
     56          1           0       12.792006    2.204715    0.694743
     57          1           0       11.536366    2.700883   -0.485756
     58          1           0       13.372682    2.354485   -0.826068
     59          1           0      -13.489589   -0.829271   -1.088138
     60          1           0      -13.922962   -1.349958    0.432526
     61          1           0      -12.260685   -1.760364   -0.486354
     62          1           0      -11.358918   -0.067965    2.934410
     63          1           0      -11.055874   -1.522623    2.032154
     64          1           0      -12.680857   -1.014508    2.840558
     65          1           0       10.028700    1.903781    0.233900
     66          1           0      -10.271542   -1.569012   -0.404728
     67          1           0        9.812662   -1.018636    2.473519
     68          1           0       10.973324   -2.088554    2.671768
     69          1           0        9.689809   -2.363865    1.459953
     70          1           0       -9.174276    1.111710   -1.900669
     71          1           0       -9.103764    2.796540   -1.207860
     72          1           0      -10.386090    2.491052   -2.374006
     73          1           0        8.203575   -0.569149    0.379743
     74          1           0       -8.242573    0.579897    0.067564
     75          1           0        8.358397    3.124170    1.393033
     76          1           0        6.667110    3.484615    0.673881
     77          1           0        8.134643    3.174293   -0.423581
     78          1           0       -8.814744   -2.677150   -1.306395
     79          1           0       -8.201397   -3.124786    0.138563
     80          1           0       -7.094740   -3.422656   -1.175809
     81          1           0        5.849743   -0.336036    0.234745
     82          1           0       -6.365988    0.240252    0.048881
     83          1           0        4.776468    2.516626    0.527411
     84          1           0       -4.974316   -2.489986   -0.831244
     85          1           0        3.839016   -0.376073    0.256477
     86          1           0       -3.594269    0.060322   -0.087493
     87          1           0        2.741514    3.158841    1.526227
     88          1           0        1.161714    3.147036    0.899722
     89          1           0        2.571516    3.377794   -0.246948
     90          1           0       -3.197245   -3.298301   -1.655280
     91          1           0       -3.177425   -3.791105    0.044676
     92          1           0       -1.735567   -3.924578   -0.936696
     93          1           0        0.491178    1.201861    0.421611
     94          1           0       -1.423059   -0.161969    0.185789
     95          1           0        2.196600   -1.385714    0.017516
     96          1           0       -0.027373   -2.561235   -0.615126
 ---------------------------------------------------------------------

 SCF Done:  E(RB3LYP) =  -1557.49915231     A.U. after   15 cycles

 Excitation energies and oscillator strengths:

 Excited State   1:      Singlet-A      2.2700 eV  546.17 nm  f=3.1070  <S**2>=0.000
     148 ->149         0.70616
     148 <-149        -0.10491
 This state for optimization and/or second-order correction.
 Total Energy, E(TD-HF/TD-DFT) =  -1557.41572963
 Copying the excited state density for this state as the 1-particle RhoCI density.

 The electronic state is 1-A.
 Alpha  occ. eigenvalues --  -10.20911 -10.20696 -10.20308 -10.20224 -10.20014
 Alpha  occ. eigenvalues --  -10.19839 -10.19700 -10.19530 -10.19411 -10.19348
 Alpha  occ. eigenvalues --  -10.19273 -10.19129 -10.19071 -10.18996 -10.18942
 Alpha  occ. eigenvalues --  -10.18909 -10.18810 -10.18771 -10.18751 -10.18621
 Alpha  occ. eigenvalues --  -10.18467 -10.18384 -10.18292 -10.18192 -10.18183
 Alpha  occ. eigenvalues --  -10.18052 -10.18036 -10.17924 -10.17868 -10.17738
 Alpha  occ. eigenvalues --  -10.17592 -10.17573 -10.17420 -10.17269 -10.16762
 Alpha  occ. eigenvalues --  -10.16671 -10.16612 -10.16310 -10.16234 -10.15454
 Alpha  occ. eigenvalues --   -0.85153  -0.84577  -0.83901  -0.83470  -0.82099
 Alpha  occ. eigenvalues --   -0.81510  -0.79431  -0.79064  -0.78280  -0.77567
 Alpha  occ. eigenvalues --   -0.76619  -0.75635  -0.74381  -0.73158  -0.71741
 Alpha  occ. eigenvalues --   -0.70649  -0.69872  -0.69060  -0.68132  -0.68004
 Alpha  occ. eigenvalues --   -0.67786  -0.67597  -0.66983  -0.66648  -0.66296
 Alpha  occ. eigenvalues --   -0.63003  -0.61898  -0.60510  -0.58546  -0.57634
 Alpha  occ. eigenvalues --   -0.57057  -0.55851  -0.55233  -0.54819  -0.53726
 Alpha  occ. eigenvalues --   -0.52810  -0.52475  -0.50631  -0.50140  -0.49370
 Alpha  occ. eigenvalues --   -0.48861  -0.47953  -0.47674  -0.47055  -0.46876
 Alpha  occ. eigenvalues --   -0.45933  -0.45791  -0.45505  -0.45066  -0.44461
 Alpha  occ. eigenvalues --   -0.44073  -0.43827  -0.43184  -0.43083  -0.42414
 Alpha  occ. eigenvalues --   -0.42098  -0.41891  -0.41750  -0.41376  -0.41058
 Alpha  occ. eigenvalues --   -0.40788  -0.40562  -0.40385  -0.39982  -0.39820
 Alpha  occ. eigenvalues --   -0.39598  -0.39524  -0.39084  -0.38322  -0.37932
 Alpha  occ. eigenvalues --   -0.37921  -0.37377  -0.37013  -0.36684  -0.36654
 Alpha  occ. eigenvalues --   -0.36460  -0.36035  -0.35624  -0.35369  -0.35206
 Alpha  occ. eigenvalues --   -0.34691  -0.34264  -0.33734  -0.33645  -0.33543
 Alpha  occ. eigenvalues --   -0.33475  -0.33007  -0.32849  -0.32535  -0.32380
 Alpha  occ. eigenvalues --   -0.31944  -0.31820  -0.31640  -0.31531  -0.31385
 Alpha  occ. eigenvalues --   -0.30147  -0.29500  -0.29269  -0.28806  -0.28588
 Alpha  occ. eigenvalues --   -0.28451  -0.26894  -0.26519  -0.24895  -0.23160
 Alpha  occ. eigenvalues --   -0.21292  -0.19320  -0.16492
 Alpha virt. eigenvalues --   -0.08035  -0.04452  -0.01459   0.01164   0.03109
 Alpha virt. eigenvalues --    0.05099   0.06615   0.07515   0.07629   0.07778
 Alpha virt. eigenvalues --    0.08353   0.08825   0.09102   0.09506   0.09656

 Mulliken charges:
               1
     1  C   -0.012595
     2  C    0.011304
     3  C   -0.129555
     4  C   -0.167125
     5  C   -0.191424
     6  C   -0.178247
     7  C    0.103358
     8  C    0.031653
     9  C   -0.231740
    10  C   -0.220042
    11  C    0.022590
    12  C    0.044324
    13  C   -0.289521
    14  C   -0.306807
    15  C   -0.289219
    16  C   -0.310043
    17  C   -0.154458
    18  C   -0.136815
    19  C   -0.317767
    20  C   -0.361336
    21  C   -0.052078
    22  C   -0.078131
    23  C    0.095086
    24  C    0.128905
    25  C   -0.369017
    26  C   -0.354418
    27  C   -0.138219
    28  C   -0.116591
    29  C   -0.053560
    30  C   -0.085406
    31  C   -0.124510
    32  C   -0.089270
    33  C    0.102106
    34  C    0.096547
    35  C   -0.389824
    36  C   -0.371705
    37  C   -0.070493
    38  C   -0.126679
    39  C   -0.091435
    40  C   -0.095592
    41  H    0.049744
    42  H    0.087320
    43  H    0.095958
    44  H    0.083946
    45  H    0.073747
    46  H    0.090008
    47  H    0.099256
    48  H    0.100929
    49  H    0.080195
    50  H    0.097045
    51  H    0.087246
    52  H    0.088920
    53  H    0.084296
    54  H    0.095113
    55  H    0.110972
    56  H    0.101540
    57  H    0.089236
    58  H    0.107613
    59  H    0.089561
    60  H    0.107124
    61  H    0.095602
    62  H    0.093087
    63  H    0.105413
    64  H    0.081568
    65  H    0.078535
    66  H    0.072199
    67  H    0.113495
    68  H    0.099928
    69  H    0.115296
    70  H    0.118058
    71  H    0.125507
    72  H    0.103664
    73  H    0.073704
    74  H    0.080338
    75  H    0.112900
    76  H    0.101967
    77  H    0.131404
    78  H    0.093996
    79  H    0.140995
    80  H    0.094754
    81  H    0.074060
    82  H    0.054588
    83  H    0.082877
    84  H    0.069524
    85  H    0.083282
    86  H    0.053123
    87  H    0.131832
    88  H    0.091374
    89  H    0.092733
    90  H    0.121344
    91  H    0.129544
    92  H    0.122253
    93  H    0.076961
    94  H    0.076392
    95  H    0.085093
    96  H    0.070590
 Sum of Mulliken charges =  -0.00000

 Dipole moment (field-independent basis, Debye):
    X=             -0.7637    Y=              0.6084    Z=             -0.1817  Tot=              0.9932
 Quadrupole moment (field-independent basis, Debye-Ang):
   XX=           -215.8103   YY=           -234.3914   ZZ=           -253.9338
   XY=              2.8446   XZ=              2.4622   YZ=              3.4030

 Normal termination of Gaussian 16 at Mon Jul 29 19:39:44 2019.
