 Gaussian 16, Revision A.03,
 Gaussian 16:  ES64L-G16RevA.03 25-Dec-2016

 ---------------------------------
 # td=(NStates=1) B3LYP/6-31G(d,p)
 ---------------------------------

 --
 TD
 --
 Symbolic Z-matrix:
 Charge =  0 Multiplicity = 1

                         Standard orientation:
 ---------------------------------------------------------------------
 Center     Atomic      Atomic             Coordinates (Angstroms)
 Number     Number       Type             X           Y           Z
 ---------------------------------------------------------------------
      1          6           0      -12.175515   -0.712953   -0.588706
      2          6           0       12.006891   -0.034970    0.939331
      3          6           0      -13.499993    0.081812   -0.390459
      4          6           0       12.957932   -1.165945    1.309209
      5          6           0      -13.290705    1.629529   -0.600576
      6          6           0       13.392067   -2.074099    0.103913
      7          6           0      -11.088501    0.048255    0.143563
      8          6           0       10.937581   -0.488542   -0.132293
      9          6           0      -12.331084    2.116472    0.539193
     10          6           0       12.248479   -2.629150   -0.619181
     11          6           0      -11.099500    1.287176    0.783818
     12          6           0       11.141894   -1.644559   -0.845814
     13          6           0      -11.735041   -0.727617   -2.060966
     14          6           0      -12.573439   -2.110664   -0.027498
     15          6           0       12.846171    1.206023    0.456545
     16          6           0       11.266897    0.409964    2.237916
     17          6           0       -9.824127   -0.823392    0.363076
     18          6           0        9.816939    0.431644   -0.350214
     19          6           0      -10.071545    1.890021    1.591552
     20          6           0       10.158247   -1.986699   -1.935575
     21          6           0       -8.532642   -0.467370    0.236625
     22          6           0        8.547694    0.202660   -0.408501
     23          6           0       -7.357586   -1.295525    0.438483
     24          6           0        7.575377    1.309674   -0.414343
     25          6           0       -7.483923   -2.700173    0.664203
     26          6           0        8.069765    2.778268   -0.500821
     27          6           0       -6.145489   -0.703397    0.305166
     28          6           0        6.234920    0.927721   -0.443249
     29          6           0       -4.826115   -1.363599    0.386090
     30          6           0        5.000089    1.761862   -0.471355
     31          6           0       -3.662836   -0.585449    0.286159
     32          6           0        3.760274    1.163656   -0.456717
     33          6           0       -2.258860   -1.167170    0.340612
     34          6           0        2.498841    1.843737   -0.457654
     35          6           0       -2.187851   -2.588689    0.745520
     36          6           0        2.645473    3.318241   -0.582367
     37          6           0       -1.155875   -0.393326    0.150251
     38          6           0        1.365465    1.168405   -0.207091
     39          6           0       -1.081743    0.953468   -0.184341
     40          6           0        0.029623    1.657561   -0.340845
     41          1           0      -14.065181   -0.264943    0.507308
     42          1           0      -13.994416   -0.253291   -1.216597
     43          1           0       12.305893   -1.939787    1.906724
     44          1           0       13.882059   -0.885349    1.991698
     45          1           0      -14.369393    2.179113   -0.602974
     46          1           0      -12.927866    1.668026   -1.695654
     47          1           0       14.028832   -3.077598    0.569135
     48          1           0       14.059972   -1.584593   -0.786528
     49          1           0      -12.916516    2.006521    1.423205
     50          1           0      -12.012535    3.202143    0.244073
     51          1           0       11.759245   -3.489124   -0.006997
     52          1           0       12.400740   -3.034296   -1.545438
     53          1           0      -11.976003    0.220685   -2.537756
     54          1           0      -12.423598   -1.492659   -2.483296
     55          1           0      -10.718203   -1.061581   -2.170762
     56          1           0      -12.760136   -2.174557    1.022377
     57          1           0      -11.850516   -2.918945   -0.353290
     58          1           0      -13.423866   -2.680557   -0.689570
     59          1           0       13.439576    0.916105   -0.412037
     60          1           0       13.542544    1.763078    1.214273
     61          1           0       12.309825    2.106410    0.242745
     62          1           0       10.690440   -0.599149    2.709312
     63          1           0       10.442349    1.236267    2.090956
     64          1           0       12.075933    0.719606    3.078729
     65          1           0      -10.108660   -1.815490    0.523833
     66          1           0       10.056186    1.496806    0.014956
     67          1           0       -9.317437    1.043982    1.836067
     68          1           0      -10.449479    2.556739    2.423932
     69          1           0       -9.490241    2.705624    1.013959
     70          1           0        9.347641   -1.138910   -2.137609
     71          1           0        9.573217   -2.931387   -1.638514
     72          1           0       10.759541   -2.409002   -2.985523
     73          1           0       -8.454214    0.594790    0.039591
     74          1           0        8.035324   -0.773426   -0.575482
     75          1           0       -8.381375   -2.806511    1.437917
     76          1           0       -6.527957   -3.082296    0.702205
     77          1           0       -7.864723   -3.165920   -0.212220
     78          1           0        8.550917    3.019140   -1.434814
     79          1           0        8.609713    3.011419    0.467751
     80          1           0        7.194016    3.496610   -0.387909
     81          1           0       -6.228135    0.288760   -0.199387
     82          1           0        6.086800   -0.262203   -0.267565
     83          1           0       -4.672597   -2.446256    0.417982
     84          1           0        5.068473    2.853292   -0.551450
     85          1           0       -3.777613    0.359172   -0.126186
     86          1           0        3.643761   -0.040144   -0.628344
     87          1           0       -2.848645   -2.745488    1.743813
     88          1           0       -1.114413   -3.003272    0.978450
     89          1           0       -2.704995   -3.200900   -0.145118
     90          1           0        3.020024    3.450682   -1.387347
     91          1           0        3.018927    3.777986    0.177061
     92          1           0        1.633187    3.966214   -0.822677
     93          1           0       -0.151126   -0.877156   -0.056986
     94          1           0        1.248494    0.074834    0.009759
     95          1           0       -1.929388    1.516314   -0.278722
     96          1           0       -0.033897    2.787323   -0.467019
 ---------------------------------------------------------------------

 SCF Done:  E(RB3LYP) =  -1557.56810402     A.U. after   14 cycles

 Excitation energies and oscillator strengths:

 Excited State   1:      Singlet-A      2.3721 eV  522.67 nm  f=2.8599  <S**2>=0.000
     148 ->149         0.70467
 This state for optimization and/or second-order correction.
 Total Energy, E(TD-HF/TD-DFT) =  -1557.48093055
 Copying the excited state density for this state as the 1-particle RhoCI density.

 The electronic state is 1-A.
 Alpha  occ. eigenvalues --  -10.20872 -10.20814 -10.20773 -10.20332 -10.20322
 Alpha  occ. eigenvalues --  -10.20246 -10.20192 -10.20170 -10.20147 -10.19932
 Alpha  occ. eigenvalues --  -10.19914 -10.19825 -10.19808 -10.19790 -10.19562
 Alpha  occ. eigenvalues --  -10.19553 -10.19297 -10.19043 -10.19026 -10.18946
 Alpha  occ. eigenvalues --  -10.18908 -10.18880 -10.18731 -10.18727 -10.18599
 Alpha  occ. eigenvalues --  -10.18583 -10.18571 -10.18414 -10.18395 -10.18234
 Alpha  occ. eigenvalues --  -10.18127 -10.17927 -10.17838 -10.17605 -10.17602
 Alpha  occ. eigenvalues --  -10.17473 -10.17287 -10.17216 -10.16824 -10.16253
 Alpha  occ. eigenvalues --   -0.84823  -0.84770  -0.84207  -0.83358  -0.82465
 Alpha  occ. eigenvalues --   -0.81703  -0.79290  -0.79046  -0.78247  -0.77174
 Alpha  occ. eigenvalues --   -0.76466  -0.74717  -0.74063  -0.72318  -0.71704
 Alpha  occ. eigenvalues --   -0.71473  -0.68778  -0.68620  -0.68424  -0.67623
 Alpha  occ. eigenvalues --   -0.67324  -0.66925  -0.66421  -0.65818  -0.65678
 Alpha  occ. eigenvalues --   -0.62116  -0.61329  -0.58951  -0.58659  -0.56682
 Alpha  occ. eigenvalues --   -0.56245  -0.55522  -0.54761  -0.53709  -0.52864
 Alpha  occ. eigenvalues --   -0.52256  -0.51696  -0.50514  -0.49720  -0.48502
 Alpha  occ. eigenvalues --   -0.47989  -0.47646  -0.47161  -0.46999  -0.46605
 Alpha  occ. eigenvalues --   -0.45974  -0.45573  -0.44723  -0.44234  -0.43741
 Alpha  occ. eigenvalues --   -0.43649  -0.43367  -0.43215  -0.43126  -0.42742
 Alpha  occ. eigenvalues --   -0.42296  -0.42147  -0.41335  -0.41001  -0.40844
 Alpha  occ. eigenvalues --   -0.40726  -0.40384  -0.40171  -0.39223  -0.39052
 Alpha  occ. eigenvalues --   -0.38678  -0.38220  -0.38176  -0.38019  -0.37709
 Alpha  occ. eigenvalues --   -0.37649  -0.37288  -0.36705  -0.36414  -0.36182
 Alpha  occ. eigenvalues --   -0.36011  -0.35719  -0.35632  -0.35266  -0.35233
 Alpha  occ. eigenvalues --   -0.35204  -0.34727  -0.34480  -0.34153  -0.34071
 Alpha  occ. eigenvalues --   -0.33692  -0.33391  -0.33289  -0.33236  -0.32954
 Alpha  occ. eigenvalues --   -0.32232  -0.31894  -0.31457  -0.30806  -0.30417
 Alpha  occ. eigenvalues --   -0.30148  -0.30023  -0.29891  -0.29338  -0.28830
 Alpha  occ. eigenvalues --   -0.28107  -0.27061  -0.26638  -0.24065  -0.22516
 Alpha  occ. eigenvalues --   -0.20942  -0.18933  -0.16857
 Alpha virt. eigenvalues --   -0.07575  -0.04782  -0.01608   0.00483   0.02352
 Alpha virt. eigenvalues --    0.03915   0.05820   0.06197   0.06920   0.07233
 Alpha virt. eigenvalues --    0.07530   0.07819   0.08030   0.08152   0.09079

 Mulliken charges:
               1
     1  C    0.001169
     2  C    0.009432
     3  C   -0.171756
     4  C   -0.165014
     5  C   -0.193597
     6  C   -0.164485
     7  C    0.047675
     8  C    0.080734
     9  C   -0.212692
    10  C   -0.189791
    11  C    0.104599
    12  C    0.073314
    13  C   -0.303087
    14  C   -0.316962
    15  C   -0.302512
    16  C   -0.273339
    17  C   -0.150541
    18  C   -0.163198
    19  C   -0.381313
    20  C   -0.354542
    21  C   -0.101250
    22  C   -0.053453
    23  C    0.140700
    24  C    0.103640
    25  C   -0.366959
    26  C   -0.376459
    27  C   -0.140012
    28  C   -0.135202
    29  C   -0.107606
    30  C   -0.103722
    31  C   -0.100796
    32  C   -0.101006
    33  C    0.109934
    34  C    0.092405
    35  C   -0.366667
    36  C   -0.342860
    37  C   -0.132940
    38  C   -0.100445
    39  C   -0.044308
    40  C   -0.106698
    41  H    0.089560
    42  H    0.093065
    43  H    0.084449
    44  H    0.089502
    45  H    0.070246
    46  H    0.087740
    47  H    0.054926
    48  H    0.076317
    49  H    0.117737
    50  H    0.083666
    51  H    0.094325
    52  H    0.107418
    53  H    0.108376
    54  H    0.088437
    55  H    0.119296
    56  H    0.121630
    57  H    0.091359
    58  H    0.080297
    59  H    0.106043
    60  H    0.081195
    61  H    0.104153
    62  H    0.067962
    63  H    0.092348
    64  H    0.081615
    65  H    0.069695
    66  H    0.075821
    67  H    0.122865
    68  H    0.106296
    69  H    0.104424
    70  H    0.113320
    71  H    0.104136
    72  H    0.062590
    73  H    0.083801
    74  H    0.086630
    75  H    0.104003
    76  H    0.109383
    77  H    0.130520
    78  H    0.137073
    79  H    0.120454
    80  H    0.098829
    81  H    0.080926
    82  H    0.066249
    83  H    0.094385
    84  H    0.091905
    85  H    0.084981
    86  H    0.070826
    87  H    0.110800
    88  H    0.102544
    89  H    0.103249
    90  H    0.137603
    91  H    0.138732
    92  H    0.065621
    93  H    0.078258
    94  H    0.068626
    95  H    0.073773
    96  H    0.069629
 Sum of Mulliken charges =  -0.00000

 Dipole moment (field-independent basis, Debye):
    X=             -0.9916    Y=              0.1136    Z=             -0.6224  Tot=              1.1763
 Quadrupole moment (field-independent basis, Debye-Ang):
   XX=           -230.6752   YY=           -233.1577   ZZ=           -256.9924
   XY=              7.6150   XZ=              2.4362   YZ=             -0.0995

 Normal termination of Gaussian 16 at Tue Jul 30 01:36:46 2019.
