 Gaussian 16, Revision A.03,
 Gaussian 16:  ES64L-G16RevA.03 25-Dec-2016

 ---------------------------------
 # td=(NStates=1) B3LYP/6-31G(d,p)
 ---------------------------------

 --
 TD
 --
 Symbolic Z-matrix:
 Charge =  0 Multiplicity = 1

                         Standard orientation:
 ---------------------------------------------------------------------
 Center     Atomic      Atomic             Coordinates (Angstroms)
 Number     Number       Type             X           Y           Z
 ---------------------------------------------------------------------
      1          6           0      -12.101088   -0.609071   -0.811637
      2          6           0       12.112792    0.119872    0.818218
      3          6           0      -13.401927    0.214056   -0.704338
      4          6           0       13.108783   -1.121503    1.179417
      5          6           0      -13.216185    1.758814   -0.747031
      6          6           0       13.449568   -2.051131   -0.006207
      7          6           0      -11.049794   -0.009729    0.181676
      8          6           0       11.004972   -0.337808   -0.185166
      9          6           0      -12.335223    2.152200    0.593144
     10          6           0       12.153521   -2.650465   -0.615592
     11          6           0      -11.162557    1.190759    0.844237
     12          6           0       11.013173   -1.614659   -0.772325
     13          6           0      -11.514243   -0.685288   -2.209852
     14          6           0      -12.468132   -2.026805   -0.359741
     15          6           0       12.908035    1.125129    0.101476
     16          6           0       11.462905    0.586613    2.220159
     17          6           0       -9.895534   -0.848888    0.421079
     18          6           0        9.893687    0.510094   -0.358864
     19          6           0      -10.260266    1.751167    1.783623
     20          6           0        9.931813   -2.206789   -1.642036
     21          6           0       -8.554526   -0.443362    0.440747
     22          6           0        8.553682    0.306587   -0.258381
     23          6           0       -7.431039   -1.241454    0.482542
     24          6           0        7.483205    1.299997   -0.367885
     25          6           0       -7.597139   -2.780631    0.715717
     26          6           0        7.866382    2.745393   -0.502476
     27          6           0       -6.143696   -0.700498    0.455280
     28          6           0        6.200365    0.880471   -0.293415
     29          6           0       -4.855709   -1.351368    0.479446
     30          6           0        4.983584    1.534650   -0.571212
     31          6           0       -3.678870   -0.744188    0.483707
     32          6           0        3.769144    1.070468   -0.303629
     33          6           0       -2.397726   -1.259555    0.425064
     34          6           0        2.602057    1.889228   -0.423701
     35          6           0       -2.120794   -2.696906    0.704832
     36          6           0        2.581971    3.368852   -0.572608
     37          6           0       -1.202676   -0.470946    0.169458
     38          6           0        1.352922    1.151701   -0.385817
     39          6           0       -1.126871    0.935328   -0.028438
     40          6           0       -0.046804    1.583285   -0.230651
     41          1           0      -13.874389    0.036718    0.301757
     42          1           0      -14.166852   -0.111308   -1.377815
     43          1           0       12.552057   -1.545730    1.887329
     44          1           0       13.904586   -0.665344    1.640380
     45          1           0      -14.050496    2.359007   -0.976523
     46          1           0      -12.455508    2.055977   -1.643399
     47          1           0       14.267550   -2.692229    0.381429
     48          1           0       13.792848   -1.282859   -0.931997
     49          1           0      -13.053738    2.423306    1.499049
     50          1           0      -11.810886    3.141866    0.434867
     51          1           0       11.853996   -3.423167    0.129972
     52          1           0       12.209055   -3.050709   -1.649696
     53          1           0      -11.351999    0.332788   -2.732753
     54          1           0      -12.171204   -1.025372   -2.776511
     55          1           0      -10.578233   -1.282394   -2.180694
     56          1           0      -12.917943   -2.147397    0.559592
     57          1           0      -11.705318   -2.823056   -0.504358
     58          1           0      -13.267371   -2.415782   -0.872489
     59          1           0       13.587926    0.794223   -0.803981
     60          1           0       13.497039    1.571329    0.897820
     61          1           0       12.057738    1.993753   -0.158219
     62          1           0       10.862442   -0.255325    2.662410
     63          1           0       10.975931    1.628293    2.079951
     64          1           0       12.347330    0.740500    2.963712
     65          1           0      -10.037701   -2.022390    0.593498
     66          1           0       10.109687    1.662931   -0.457882
     67          1           0       -9.413675    1.065789    2.324485
     68          1           0      -10.942390    2.312471    2.415188
     69          1           0       -9.514518    2.532687    1.351425
     70          1           0        9.341757   -1.357738   -2.202653
     71          1           0        9.381329   -2.962904   -1.159242
     72          1           0       10.345382   -2.562480   -2.472736
     73          1           0       -8.365702    0.678468    0.078256
     74          1           0        8.146918   -0.674419   -0.150630
     75          1           0       -8.221820   -2.874584    1.616733
     76          1           0       -6.742355   -3.247648    0.892715
     77          1           0       -8.139256   -3.422512   -0.103267
     78          1           0        8.498208    2.705211   -1.537273
     79          1           0        8.606233    2.991110    0.297726
     80          1           0        7.038915    3.235017   -0.496072
     81          1           0       -6.076137    0.479121    0.020777
     82          1           0        6.081622   -0.134335    0.104675
     83          1           0       -4.776570   -2.432422    0.737408
     84          1           0        5.223230    2.675291   -0.746615
     85          1           0       -3.988291    0.329850    0.260294
     86          1           0        3.620968    0.052100    0.004511
     87          1           0       -2.633667   -2.862129    1.607666
     88          1           0       -1.142582   -3.115145    0.690827
     89          1           0       -2.697154   -3.341780   -0.037510
     90          1           0        2.906362    3.487356   -1.734102
     91          1           0        3.196604    3.840810    0.169461
     92          1           0        1.519895    3.802571   -0.620330
     93          1           0       -0.275024   -1.055271   -0.197498
     94          1           0        1.443082    0.059076   -0.532233
     95          1           0       -2.195378    1.322793   -0.093225
     96          1           0       -0.033096    2.534289   -0.347127
 ---------------------------------------------------------------------

 SCF Done:  E(RB3LYP) =  -1557.55667163     A.U. after   15 cycles

 Excitation energies and oscillator strengths:

 Excited State   1:      Singlet-A      2.0757 eV  597.32 nm  f=3.0438  <S**2>=0.000
     148 ->149         0.70843
     148 <-149        -0.10341
 This state for optimization and/or second-order correction.
 Total Energy, E(TD-HF/TD-DFT) =  -1557.48039178
 Copying the excited state density for this state as the 1-particle RhoCI density.

 The electronic state is 1-A.
 Alpha  occ. eigenvalues --  -10.20552 -10.20508 -10.20325 -10.20318 -10.20234
 Alpha  occ. eigenvalues --  -10.20136 -10.20129 -10.19981 -10.19878 -10.19734
 Alpha  occ. eigenvalues --  -10.19613 -10.19452 -10.19368 -10.19215 -10.19206
 Alpha  occ. eigenvalues --  -10.19187 -10.19087 -10.19038 -10.18976 -10.18917
 Alpha  occ. eigenvalues --  -10.18787 -10.18617 -10.18606 -10.18553 -10.18498
 Alpha  occ. eigenvalues --  -10.18443 -10.18411 -10.18248 -10.18092 -10.18081
 Alpha  occ. eigenvalues --  -10.18030 -10.17919 -10.17833 -10.17728 -10.17635
 Alpha  occ. eigenvalues --  -10.16683 -10.16608 -10.16286 -10.16062 -10.15948
 Alpha  occ. eigenvalues --   -0.84683  -0.84270  -0.83686  -0.83297  -0.82003
 Alpha  occ. eigenvalues --   -0.81303  -0.79849  -0.79466  -0.78244  -0.77243
 Alpha  occ. eigenvalues --   -0.76366  -0.75030  -0.74542  -0.72379  -0.72144
 Alpha  occ. eigenvalues --   -0.69745  -0.69722  -0.69146  -0.68672  -0.68349
 Alpha  occ. eigenvalues --   -0.67604  -0.67308  -0.66723  -0.66178  -0.65665
 Alpha  occ. eigenvalues --   -0.62858  -0.61563  -0.59744  -0.58912  -0.57301
 Alpha  occ. eigenvalues --   -0.56597  -0.55728  -0.54994  -0.53309  -0.52559
 Alpha  occ. eigenvalues --   -0.52336  -0.51331  -0.50216  -0.49862  -0.48480
 Alpha  occ. eigenvalues --   -0.48158  -0.47399  -0.46913  -0.46581  -0.45942
 Alpha  occ. eigenvalues --   -0.45448  -0.45115  -0.44772  -0.44303  -0.44074
 Alpha  occ. eigenvalues --   -0.43643  -0.43397  -0.43275  -0.43100  -0.42513
 Alpha  occ. eigenvalues --   -0.41994  -0.41739  -0.41442  -0.41314  -0.41004
 Alpha  occ. eigenvalues --   -0.40758  -0.40562  -0.40139  -0.39824  -0.39574
 Alpha  occ. eigenvalues --   -0.39416  -0.39195  -0.38858  -0.38783  -0.38428
 Alpha  occ. eigenvalues --   -0.38086  -0.37987  -0.37338  -0.37313  -0.37077
 Alpha  occ. eigenvalues --   -0.36584  -0.36218  -0.35752  -0.35154  -0.35081
 Alpha  occ. eigenvalues --   -0.34684  -0.34367  -0.34147  -0.34040  -0.33498
 Alpha  occ. eigenvalues --   -0.33312  -0.33217  -0.32998  -0.32575  -0.32441
 Alpha  occ. eigenvalues --   -0.32019  -0.31503  -0.31094  -0.30927  -0.30822
 Alpha  occ. eigenvalues --   -0.30263  -0.30202  -0.30018  -0.29993  -0.28630
 Alpha  occ. eigenvalues --   -0.27841  -0.27459  -0.25317  -0.24126  -0.22389
 Alpha  occ. eigenvalues --   -0.20742  -0.18351  -0.16021
 Alpha virt. eigenvalues --   -0.08210  -0.05437  -0.01740   0.00354   0.02763
 Alpha virt. eigenvalues --    0.03595   0.06211   0.06391   0.07059   0.07690
 Alpha virt. eigenvalues --    0.08228   0.08382   0.08600   0.08758   0.09454

 Mulliken charges:
               1
     1  C   -0.002860
     2  C   -0.024308
     3  C   -0.181721
     4  C   -0.164097
     5  C   -0.191326
     6  C   -0.182629
     7  C    0.080051
     8  C    0.099947
     9  C   -0.244795
    10  C   -0.201828
    11  C    0.111401
    12  C    0.018694
    13  C   -0.277191
    14  C   -0.315089
    15  C   -0.267402
    16  C   -0.308132
    17  C   -0.148760
    18  C   -0.157102
    19  C   -0.369077
    20  C   -0.358662
    21  C   -0.105742
    22  C   -0.062421
    23  C    0.129974
    24  C    0.100051
    25  C   -0.365886
    26  C   -0.337996
    27  C   -0.143379
    28  C   -0.128823
    29  C   -0.081470
    30  C   -0.084513
    31  C   -0.088734
    32  C   -0.094828
    33  C    0.095126
    34  C    0.109345
    35  C   -0.377506
    36  C   -0.366458
    37  C   -0.134083
    38  C   -0.143786
    39  C   -0.064268
    40  C   -0.048112
    41  H    0.093700
    42  H    0.087273
    43  H    0.099064
    44  H    0.091740
    45  H    0.100059
    46  H    0.072400
    47  H    0.095591
    48  H    0.061611
    49  H    0.089573
    50  H    0.101708
    51  H    0.103166
    52  H    0.099083
    53  H    0.084707
    54  H    0.111164
    55  H    0.107100
    56  H    0.110187
    57  H    0.092696
    58  H    0.100460
    59  H    0.104101
    60  H    0.094932
    61  H    0.064337
    62  H    0.117730
    63  H    0.099946
    64  H    0.087087
    65  H    0.080719
    66  H    0.057451
    67  H    0.108202
    68  H    0.108331
    69  H    0.105256
    70  H    0.101549
    71  H    0.124391
    72  H    0.115697
    73  H    0.073732
    74  H    0.070992
    75  H    0.119168
    76  H    0.117507
    77  H    0.102107
    78  H    0.102356
    79  H    0.123908
    80  H    0.102233
    81  H    0.054348
    82  H    0.065197
    83  H    0.069448
    84  H    0.065359
    85  H    0.070096
    86  H    0.090834
    87  H    0.130687
    88  H    0.119132
    89  H    0.101612
    90  H    0.112425
    91  H    0.128435
    92  H    0.114890
    93  H    0.075958
    94  H    0.063267
    95  H    0.085798
    96  H    0.047894
 Sum of Mulliken charges =  -0.00000

 Dipole moment (field-independent basis, Debye):
    X=             -0.4041    Y=             -0.7619    Z=              0.0739  Tot=              0.8656
 Quadrupole moment (field-independent basis, Debye-Ang):
   XX=           -207.1745   YY=           -234.2668   ZZ=           -253.9558
   XY=             -3.3028   XZ=              9.5965   YZ=             -1.2941

 Normal termination of Gaussian 16 at Sun Jul 28 07:46:47 2019.
