 Gaussian 16, Revision A.03,
 Gaussian 16:  ES64L-G16RevA.03 25-Dec-2016

 ---------------------------------
 # td=(NStates=1) B3LYP/6-31G(d,p)
 ---------------------------------

 --
 TD
 --
 Symbolic Z-matrix:
 Charge =  0 Multiplicity = 1

                         Standard orientation:
 ---------------------------------------------------------------------
 Center     Atomic      Atomic             Coordinates (Angstroms)
 Number     Number       Type             X           Y           Z
 ---------------------------------------------------------------------
      1          6           0       12.162057    0.597337   -0.654765
      2          6           0      -12.169724   -0.159469    0.792656
      3          6           0       13.466690   -0.264740   -0.507317
      4          6           0      -13.025494    1.038570    1.349528
      5          6           0       13.293615   -1.792744   -0.512580
      6          6           0      -13.481207    1.927491    0.247145
      7          6           0       11.109901   -0.062033    0.204668
      8          6           0      -11.021198    0.412920    0.003103
      9          6           0       12.463204   -2.198253    0.723285
     10          6           0      -12.276383    2.599211   -0.364133
     11          6           0       11.238305   -1.191583    0.931650
     12          6           0      -11.143379    1.570912   -0.637101
     13          6           0       11.771507    0.631251   -2.207012
     14          6           0       12.533857    1.939133   -0.306983
     15          6           0      -13.053101   -1.154107    0.036630
     16          6           0      -11.602227   -0.838772    2.107060
     17          6           0        9.968545    0.810998    0.402758
     18          6           0       -9.881187   -0.480366   -0.323326
     19          6           0       10.216733   -1.704745    1.886689
     20          6           0      -10.075820    2.229735   -1.587488
     21          6           0        8.700147    0.419789    0.142081
     22          6           0       -8.570463   -0.340293   -0.213723
     23          6           0        7.461748    1.254652    0.325283
     24          6           0       -7.529282   -1.264766   -0.542047
     25          6           0        7.657975    2.656169    0.715067
     26          6           0       -7.998551   -2.744594   -0.864251
     27          6           0        6.255390    0.651111    0.188139
     28          6           0       -6.208194   -0.796219   -0.422465
     29          6           0        4.871939    1.267914    0.406319
     30          6           0       -5.052726   -1.614029   -0.594090
     31          6           0        3.716152    0.700957    0.203635
     32          6           0       -3.830497   -1.082389   -0.341304
     33          6           0        2.353044    1.394607    0.311099
     34          6           0       -2.478273   -1.718341   -0.423536
     35          6           0        2.272811    2.963111    0.406338
     36          6           0       -2.666905   -3.250230   -0.637205
     37          6           0        1.281465    0.565445    0.136505
     38          6           0       -1.443180   -0.972096   -0.127138
     39          6           0        1.050808   -0.845669   -0.157871
     40          6           0       -0.109364   -1.512138   -0.237615
     41          1           0       13.978124   -0.062441    0.349339
     42          1           0       14.156633    0.054228   -1.323432
     43          1           0      -12.356518    1.476593    2.179079
     44          1           0      -13.617102    0.452255    2.213899
     45          1           0       14.297347   -2.370410   -0.438529
     46          1           0       12.896529   -2.017695   -1.486835
     47          1           0      -14.097823    2.768913    0.484375
     48          1           0      -13.957498    1.349404   -0.683223
     49          1           0       13.079272   -2.345718    1.617941
     50          1           0       11.970346   -3.178163    0.776435
     51          1           0      -11.912138    3.368987    0.315836
     52          1           0      -12.730446    2.939837   -1.398055
     53          1           0       11.754792   -0.471067   -2.782853
     54          1           0       12.698256    1.190546   -2.760717
     55          1           0       10.612405    1.014167   -2.364934
     56          1           0       12.402966    1.947799    0.781958
     57          1           0       11.802923    2.646027   -0.825130
     58          1           0       13.449475    2.318492   -0.713848
     59          1           0      -13.441675   -0.676152   -0.928576
     60          1           0      -14.012132   -1.367682    0.787053
     61          1           0      -12.521711   -2.015065   -0.333341
     62          1           0      -10.654537   -0.305310    2.490227
     63          1           0      -11.077848   -1.722655    1.852401
     64          1           0      -12.307444   -0.948088    2.711161
     65          1           0       10.253974    1.828491    0.890957
     66          1           0      -10.174086   -1.411460   -0.328831
     67          1           0        9.917768   -0.788014    2.467307
     68          1           0       10.669425   -2.542713    2.695386
     69          1           0        9.269604   -2.164051    1.368004
     70          1           0       -9.328550    1.652181   -2.146375
     71          1           0       -9.483071    2.935813   -0.936537
     72          1           0      -10.537897    2.752230   -2.333188
     73          1           0        8.672899   -0.734056   -0.122125
     74          1           0       -8.268952    0.829736    0.020102
     75          1           0        7.732836    2.565433    1.993298
     76          1           0        6.692845    3.170826    0.545278
     77          1           0        8.563095    3.282280    0.347062
     78          1           0       -9.007532   -2.269081   -1.428605
     79          1           0       -8.322390   -3.194551    0.189811
     80          1           0       -7.166080   -3.136694   -1.560444
     81          1           0        6.176446   -0.344894   -0.108166
     82          1           0       -6.228468    0.178626   -0.069559
     83          1           0        5.149715    2.287471    0.539801
     84          1           0       -5.274806   -2.640586   -0.778373
     85          1           0        3.865354   -0.290676    0.097951
     86          1           0       -3.778355   -0.095176    0.093547
     87          1           0        2.888687    3.177293    1.329821
     88          1           0        1.332414    3.291566    0.539965
     89          1           0        2.690731    3.459139   -0.477639
     90          1           0       -3.397893   -3.553987   -1.457615
     91          1           0       -2.994814   -3.663021    0.531434
     92          1           0       -1.727055   -3.805936   -0.920462
     93          1           0        0.144437    1.181398   -0.082442
     94          1           0       -1.922739    0.129685    0.269954
     95          1           0        1.903967   -1.387891   -0.441056
     96          1           0       -0.096137   -2.608594   -0.394602
 ---------------------------------------------------------------------

 SCF Done:  E(RB3LYP) =  -1557.50004256     A.U. after   14 cycles

 Excitation energies and oscillator strengths:

 Excited State   1:      Singlet-A      2.6487 eV  468.10 nm  f=2.7272  <S**2>=0.000
     148 ->149         0.69681
 This state for optimization and/or second-order correction.
 Total Energy, E(TD-HF/TD-DFT) =  -1557.40270481
 Copying the excited state density for this state as the 1-particle RhoCI density.

 The electronic state is 1-A.
 Alpha  occ. eigenvalues --  -10.21511 -10.21471 -10.21369 -10.20787 -10.20756
 Alpha  occ. eigenvalues --  -10.20482 -10.20373 -10.20082 -10.19944 -10.19932
 Alpha  occ. eigenvalues --  -10.19900 -10.19645 -10.19566 -10.19495 -10.19485
 Alpha  occ. eigenvalues --  -10.19312 -10.19054 -10.18967 -10.18924 -10.18919
 Alpha  occ. eigenvalues --  -10.18836 -10.18804 -10.18778 -10.18725 -10.18653
 Alpha  occ. eigenvalues --  -10.18643 -10.18594 -10.18540 -10.18276 -10.18243
 Alpha  occ. eigenvalues --  -10.18144 -10.18128 -10.18065 -10.17850 -10.17785
 Alpha  occ. eigenvalues --  -10.17061 -10.16998 -10.16613 -10.16577 -10.15679
 Alpha  occ. eigenvalues --   -0.85288  -0.85231  -0.83597  -0.82664  -0.82099
 Alpha  occ. eigenvalues --   -0.80919  -0.79157  -0.78609  -0.77999  -0.77534
 Alpha  occ. eigenvalues --   -0.76860  -0.75387  -0.74362  -0.72081  -0.71693
 Alpha  occ. eigenvalues --   -0.69634  -0.68747  -0.68107  -0.67677  -0.67581
 Alpha  occ. eigenvalues --   -0.67355  -0.66895  -0.66538  -0.66398  -0.65401
 Alpha  occ. eigenvalues --   -0.62789  -0.60910  -0.59636  -0.58449  -0.57271
 Alpha  occ. eigenvalues --   -0.56480  -0.56198  -0.54797  -0.54403  -0.53426
 Alpha  occ. eigenvalues --   -0.51840  -0.51139  -0.49870  -0.49470  -0.48563
 Alpha  occ. eigenvalues --   -0.48396  -0.47675  -0.47419  -0.47188  -0.45653
 Alpha  occ. eigenvalues --   -0.44943  -0.44825  -0.44497  -0.44432  -0.43938
 Alpha  occ. eigenvalues --   -0.43693  -0.43429  -0.42391  -0.42295  -0.41914
 Alpha  occ. eigenvalues --   -0.41707  -0.41472  -0.41139  -0.40804  -0.40770
 Alpha  occ. eigenvalues --   -0.40583  -0.40311  -0.39980  -0.39804  -0.39345
 Alpha  occ. eigenvalues --   -0.38830  -0.38628  -0.38346  -0.38276  -0.38030
 Alpha  occ. eigenvalues --   -0.37920  -0.37696  -0.37420  -0.37151  -0.36617
 Alpha  occ. eigenvalues --   -0.36123  -0.35743  -0.35570  -0.35277  -0.35197
 Alpha  occ. eigenvalues --   -0.34717  -0.34625  -0.34201  -0.33983  -0.33852
 Alpha  occ. eigenvalues --   -0.33258  -0.33040  -0.32820  -0.32225  -0.32192
 Alpha  occ. eigenvalues --   -0.31548  -0.31489  -0.30903  -0.30771  -0.30589
 Alpha  occ. eigenvalues --   -0.30481  -0.29491  -0.29347  -0.28747  -0.28289
 Alpha  occ. eigenvalues --   -0.27772  -0.27186  -0.26524  -0.23992  -0.22972
 Alpha  occ. eigenvalues --   -0.21591  -0.19400  -0.17488
 Alpha virt. eigenvalues --   -0.07075  -0.04415  -0.01533   0.01336   0.02594
 Alpha virt. eigenvalues --    0.03861   0.05392   0.05903   0.06474   0.06788
 Alpha virt. eigenvalues --    0.06965   0.07140   0.07786   0.08069   0.08569

 Mulliken charges:
               1
     1  C    0.026493
     2  C   -0.029408
     3  C   -0.172551
     4  C   -0.163488
     5  C   -0.189142
     6  C   -0.181989
     7  C    0.041254
     8  C    0.087832
     9  C   -0.218810
    10  C   -0.208715
    11  C    0.079716
    12  C    0.029274
    13  C   -0.284183
    14  C   -0.298375
    15  C   -0.274710
    16  C   -0.300093
    17  C   -0.138446
    18  C   -0.144303
    19  C   -0.355046
    20  C   -0.352687
    21  C   -0.095607
    22  C   -0.062558
    23  C    0.127425
    24  C    0.054193
    25  C   -0.364409
    26  C   -0.352882
    27  C   -0.138507
    28  C   -0.092247
    29  C   -0.059096
    30  C   -0.077336
    31  C   -0.091942
    32  C   -0.128058
    33  C    0.067952
    34  C    0.163147
    35  C   -0.351360
    36  C   -0.356925
    37  C   -0.108139
    38  C   -0.117959
    39  C   -0.066053
    40  C   -0.122097
    41  H    0.099005
    42  H    0.071518
    43  H    0.090012
    44  H    0.061239
    45  H    0.072963
    46  H    0.103868
    47  H    0.096171
    48  H    0.085952
    49  H    0.102584
    50  H    0.099726
    51  H    0.114392
    52  H    0.085455
    53  H    0.069648
    54  H    0.081746
    55  H    0.095190
    56  H    0.101985
    57  H    0.090026
    58  H    0.109546
    59  H    0.094540
    60  H    0.078425
    61  H    0.108158
    62  H    0.095386
    63  H    0.097708
    64  H    0.100352
    65  H    0.087595
    66  H    0.069486
    67  H    0.123243
    68  H    0.073853
    69  H    0.111557
    70  H    0.112919
    71  H    0.105704
    72  H    0.109633
    73  H    0.076385
    74  H    0.054789
    75  H    0.090309
    76  H    0.116854
    77  H    0.121493
    78  H    0.105819
    79  H    0.128535
    80  H    0.116990
    81  H    0.066419
    82  H    0.074048
    83  H    0.053124
    84  H    0.084257
    85  H    0.077050
    86  H    0.072514
    87  H    0.116972
    88  H    0.125616
    89  H    0.127744
    90  H    0.119379
    91  H    0.102455
    92  H    0.101449
    93  H    0.034500
    94  H    0.080339
    95  H    0.079703
    96  H    0.093509
 Sum of Mulliken charges =  -0.00000

 Dipole moment (field-independent basis, Debye):
    X=              0.0211    Y=              0.1371    Z=              0.4481  Tot=              0.4691
 Quadrupole moment (field-independent basis, Debye-Ang):
   XX=           -234.4423   YY=           -235.6199   ZZ=           -254.7847
   XY=              0.1117   XZ=              3.9639   YZ=              1.3781

 Normal termination of Gaussian 16 at Fri Aug  2 00:59:36 2019.
