 Gaussian 16, Revision A.03,
 Gaussian 16:  ES64L-G16RevA.03 25-Dec-2016

 ---------------------------------
 # td=(NStates=1) B3LYP/6-31G(d,p)
 ---------------------------------

 --
 TD
 --
 Symbolic Z-matrix:
 Charge =  0 Multiplicity = 1

                         Standard orientation:
 ---------------------------------------------------------------------
 Center     Atomic      Atomic             Coordinates (Angstroms)
 Number     Number       Type             X           Y           Z
 ---------------------------------------------------------------------
      1          6           0      -12.117903   -0.510310   -0.662273
      2          6           0       12.036180   -0.035408    1.052446
      3          6           0      -13.527904    0.353026   -0.456216
      4          6           0       12.739737   -1.277920    1.548365
      5          6           0      -13.126753    1.881175   -0.387509
      6          6           0       13.206004   -2.128118    0.335978
      7          6           0      -10.990957   -0.077261    0.311853
      8          6           0       10.915115   -0.466927   -0.044730
      9          6           0      -12.249655    2.079348    0.884338
     10          6           0       12.127664   -2.701120   -0.419089
     11          6           0      -11.130011    1.058240    1.032072
     12          6           0       11.040897   -1.659731   -0.715507
     13          6           0      -11.624726   -0.511301   -2.201794
     14          6           0      -12.552906   -1.934147   -0.316585
     15          6           0       13.001139    1.054765    0.452774
     16          6           0       11.348699    0.570742    2.255778
     17          6           0       -9.886276   -1.026341    0.375033
     18          6           0        9.934642    0.658833   -0.336885
     19          6           0      -10.231599    1.473704    2.155427
     20          6           0       10.149461   -2.011050   -1.897190
     21          6           0       -8.610868   -0.565189    0.328332
     22          6           0        8.583051    0.330167   -0.403886
     23          6           0       -7.384158   -1.328885    0.413125
     24          6           0        7.556325    1.404631   -0.460737
     25          6           0       -7.518904   -2.811208    0.605521
     26          6           0        8.022106    2.825411   -0.753001
     27          6           0       -6.164806   -0.745848    0.190986
     28          6           0        6.201145    0.988131   -0.271979
     29          6           0       -4.869675   -1.363348    0.218372
     30          6           0        5.031097    1.869083   -0.414291
     31          6           0       -3.717104   -0.644261    0.105105
     32          6           0        3.813079    1.184688   -0.341116
     33          6           0       -2.401604   -1.280829    0.080701
     34          6           0        2.539021    1.949215   -0.471260
     35          6           0       -2.276080   -2.741781    0.230093
     36          6           0        2.538030    3.397776   -0.795973
     37          6           0       -1.297742   -0.470250   -0.177079
     38          6           0        1.483457    1.157867   -0.380189
     39          6           0       -1.155903    1.032774   -0.321056
     40          6           0        0.031593    1.508295   -0.478521
     41          1           0      -14.029465    0.065072    0.456249
     42          1           0      -14.098150    0.222049   -1.344352
     43          1           0       12.161731   -1.857735    2.367223
     44          1           0       13.883228   -1.040632    1.931266
     45          1           0      -14.060213    2.550952   -0.266348
     46          1           0      -12.553471    2.405521   -1.205720
     47          1           0       13.925901   -2.963859    0.589692
     48          1           0       13.876756   -1.569551   -0.226060
     49          1           0      -12.887764    2.220020    1.773597
     50          1           0      -11.443837    3.058668    0.795360
     51          1           0       11.984684   -3.605820    0.042691
     52          1           0       12.302954   -3.291369   -1.505411
     53          1           0      -11.105117    0.463280   -2.382221
     54          1           0      -12.339210   -0.862156   -2.931373
     55          1           0      -10.772717   -1.394041   -2.189924
     56          1           0      -12.987664   -1.941607    0.851170
     57          1           0      -11.653518   -2.822615   -0.138383
     58          1           0      -13.268137   -2.439744   -1.316154
     59          1           0       13.541703    0.462143   -0.455099
     60          1           0       13.600213    1.315144    1.327910
     61          1           0       12.450985    2.064078    0.162497
     62          1           0       10.859329   -0.339736    2.765192
     63          1           0       10.793662    1.445117    2.089343
     64          1           0       12.217936    0.874446    3.010550
     65          1           0      -10.031151   -2.121976    0.438583
     66          1           0       10.303794    1.630000   -0.399393
     67          1           0       -9.520533    0.641360    2.491574
     68          1           0      -10.960995    1.739536    2.866713
     69          1           0       -9.659246    2.410728    1.988034
     70          1           0        9.548696   -1.234794   -2.159296
     71          1           0        9.532701   -2.958665   -1.676568
     72          1           0       10.819243   -2.309888   -2.691927
     73          1           0       -8.451538    0.694266    0.233076
     74          1           0        8.335526   -0.794430   -0.123474
     75          1           0       -7.787227   -2.968706    1.710632
     76          1           0       -6.623799   -3.327079    0.481261
     77          1           0       -8.343361   -3.295582   -0.053200
     78          1           0        8.629899    2.731333   -1.707237
     79          1           0        8.588041    3.214456    0.151436
     80          1           0        7.243916    3.449572   -0.876243
     81          1           0       -6.026791    0.541439    0.452175
     82          1           0        6.268810   -0.093837   -0.444071
     83          1           0       -4.827089   -2.501400    0.116685
     84          1           0        5.246562    2.832268   -0.903444
     85          1           0       -3.553628    0.544483    0.047738
     86          1           0        3.797454    0.079636   -0.219864
     87          1           0       -2.357209   -3.154619    1.375143
     88          1           0       -1.219453   -2.928597   -0.170095
     89          1           0       -3.050599   -3.378829   -0.606226
     90          1           0        3.209761    3.425281   -1.681718
     91          1           0        3.033754    3.950122   -0.023821
     92          1           0        1.673289    3.887338   -0.931249
     93          1           0       -0.468204   -0.998090   -0.176091
     94          1           0        1.555355   -0.000180   -0.150247
     95          1           0       -2.101673    1.598748   -0.303503
     96          1           0        0.018422    2.758652   -0.473691
 ---------------------------------------------------------------------

 SCF Done:  E(RB3LYP) =  -1557.51169618     A.U. after   14 cycles

 Excitation energies and oscillator strengths:

 Excited State   1:      Singlet-A      2.4374 eV  508.68 nm  f=2.5240  <S**2>=0.000
     148 ->149         0.70644
 This state for optimization and/or second-order correction.
 Total Energy, E(TD-HF/TD-DFT) =  -1557.42212409
 Copying the excited state density for this state as the 1-particle RhoCI density.

 The electronic state is 1-A.
 Alpha  occ. eigenvalues --  -10.21738 -10.21523 -10.20714 -10.20618 -10.20516
 Alpha  occ. eigenvalues --  -10.20353 -10.20203 -10.20159 -10.20127 -10.20071
 Alpha  occ. eigenvalues --  -10.19995 -10.19942 -10.19925 -10.19819 -10.19735
 Alpha  occ. eigenvalues --  -10.19719 -10.19610 -10.19578 -10.19550 -10.19452
 Alpha  occ. eigenvalues --  -10.19255 -10.19215 -10.19094 -10.19077 -10.19039
 Alpha  occ. eigenvalues --  -10.18983 -10.18890 -10.18829 -10.18789 -10.18617
 Alpha  occ. eigenvalues --  -10.18533 -10.18332 -10.18270 -10.18194 -10.18182
 Alpha  occ. eigenvalues --  -10.18089 -10.17609 -10.17158 -10.17083 -10.16718
 Alpha  occ. eigenvalues --   -0.84505  -0.83997  -0.83778  -0.82723  -0.81540
 Alpha  occ. eigenvalues --   -0.81177  -0.78742  -0.78498  -0.77409  -0.77282
 Alpha  occ. eigenvalues --   -0.76610  -0.75102  -0.74241  -0.72038  -0.71666
 Alpha  occ. eigenvalues --   -0.70978  -0.68645  -0.67632  -0.67061  -0.66925
 Alpha  occ. eigenvalues --   -0.66863  -0.66793  -0.66195  -0.65969  -0.64473
 Alpha  occ. eigenvalues --   -0.62193  -0.61741  -0.59109  -0.58432  -0.56989
 Alpha  occ. eigenvalues --   -0.55549  -0.54917  -0.54147  -0.53719  -0.52275
 Alpha  occ. eigenvalues --   -0.51482  -0.50642  -0.50212  -0.49619  -0.48928
 Alpha  occ. eigenvalues --   -0.48107  -0.47312  -0.46547  -0.46149  -0.45527
 Alpha  occ. eigenvalues --   -0.44966  -0.44496  -0.44320  -0.43826  -0.43554
 Alpha  occ. eigenvalues --   -0.43200  -0.42855  -0.42750  -0.42713  -0.42268
 Alpha  occ. eigenvalues --   -0.42198  -0.41593  -0.41558  -0.40953  -0.40612
 Alpha  occ. eigenvalues --   -0.40542  -0.40399  -0.40243  -0.40190  -0.39598
 Alpha  occ. eigenvalues --   -0.39277  -0.38852  -0.38807  -0.38076  -0.37919
 Alpha  occ. eigenvalues --   -0.37656  -0.37475  -0.37377  -0.36904  -0.36739
 Alpha  occ. eigenvalues --   -0.36194  -0.36135  -0.35730  -0.35432  -0.34379
 Alpha  occ. eigenvalues --   -0.34107  -0.33750  -0.33653  -0.33576  -0.33513
 Alpha  occ. eigenvalues --   -0.33015  -0.32836  -0.32666  -0.32533  -0.31975
 Alpha  occ. eigenvalues --   -0.31537  -0.31193  -0.31155  -0.30908  -0.30726
 Alpha  occ. eigenvalues --   -0.30260  -0.29455  -0.29256  -0.29079  -0.28280
 Alpha  occ. eigenvalues --   -0.27507  -0.27185  -0.26070  -0.24260  -0.22672
 Alpha  occ. eigenvalues --   -0.21499  -0.18562  -0.17116
 Alpha virt. eigenvalues --   -0.07364  -0.05244  -0.01751   0.00700   0.02748
 Alpha virt. eigenvalues --    0.03641   0.05145   0.05674   0.05952   0.06098
 Alpha virt. eigenvalues --    0.06258   0.06774   0.07136   0.07369   0.07592

 Mulliken charges:
               1
     1  C   -0.004316
     2  C    0.005589
     3  C   -0.169112
     4  C   -0.170669
     5  C   -0.197488
     6  C   -0.200258
     7  C    0.077697
     8  C    0.038973
     9  C   -0.212244
    10  C   -0.185701
    11  C    0.062760
    12  C    0.064577
    13  C   -0.298863
    14  C   -0.251359
    15  C   -0.286128
    16  C   -0.279578
    17  C   -0.130598
    18  C   -0.127228
    19  C   -0.354247
    20  C   -0.356710
    21  C   -0.082099
    22  C   -0.109727
    23  C    0.117078
    24  C    0.066478
    25  C   -0.368054
    26  C   -0.359256
    27  C   -0.117535
    28  C   -0.123584
    29  C   -0.103632
    30  C   -0.114855
    31  C   -0.073281
    32  C   -0.101533
    33  C    0.119787
    34  C    0.128238
    35  C   -0.357830
    36  C   -0.364369
    37  C   -0.117454
    38  C   -0.118064
    39  C   -0.082959
    40  C   -0.073328
    41  H    0.104380
    42  H    0.102324
    43  H    0.092482
    44  H    0.068283
    45  H    0.075815
    46  H    0.102947
    47  H    0.069128
    48  H    0.107587
    49  H    0.108772
    50  H    0.064735
    51  H    0.120019
    52  H    0.047579
    53  H    0.109323
    54  H    0.108568
    55  H    0.082145
    56  H    0.077300
    57  H    0.056011
    58  H    0.057031
    59  H    0.093666
    60  H    0.108612
    61  H    0.086560
    62  H    0.092073
    63  H    0.103610
    64  H    0.068815
    65  H    0.090383
    66  H    0.093431
    67  H    0.111077
    68  H    0.112767
    69  H    0.106566
    70  H    0.120660
    71  H    0.093786
    72  H    0.108330
    73  H    0.061297
    74  H    0.097395
    75  H    0.118114
    76  H    0.114082
    77  H    0.105741
    78  H    0.122433
    79  H    0.116569
    80  H    0.111415
    81  H    0.045968
    82  H    0.087262
    83  H    0.086184
    84  H    0.104206
    85  H    0.066481
    86  H    0.102361
    87  H    0.111675
    88  H    0.103286
    89  H    0.081410
    90  H    0.121992
    91  H    0.129074
    92  H    0.125033
    93  H    0.054851
    94  H    0.069296
    95  H    0.099202
    96  H    0.030794
 Sum of Mulliken charges =  -0.00000

 Dipole moment (field-independent basis, Debye):
    X=              1.2003    Y=              0.6562    Z=              0.0334  Tot=              1.3684
 Quadrupole moment (field-independent basis, Debye-Ang):
   XX=           -236.3821   YY=           -233.4407   ZZ=           -256.7755
   XY=              0.4482   XZ=             -5.2479   YZ=             -2.2249

 Normal termination of Gaussian 16 at Mon Jul 29 14:15:21 2019.
