 Gaussian 16, Revision A.03,
 Gaussian 16:  ES64L-G16RevA.03 25-Dec-2016

 ---------------------------------
 # td=(NStates=1) B3LYP/6-31G(d,p)
 ---------------------------------

 --
 TD
 --
 Symbolic Z-matrix:
 Charge =  0 Multiplicity = 1

                         Standard orientation:
 ---------------------------------------------------------------------
 Center     Atomic      Atomic             Coordinates (Angstroms)
 Number     Number       Type             X           Y           Z
 ---------------------------------------------------------------------
      1          6           0       12.075754    0.481880   -0.898134
      2          6           0      -12.190111   -0.082904    0.778630
      3          6           0       13.340765   -0.390947   -0.874589
      4          6           0      -13.029011    1.103260    1.165071
      5          6           0       13.057147   -1.925880   -0.611360
      6          6           0      -13.390245    2.054233    0.028029
      7          6           0       11.077753   -0.017323    0.183598
      8          6           0      -10.928677    0.411975   -0.139013
      9          6           0       12.395373   -2.127196    0.750311
     10          6           0      -12.080952    2.630243   -0.567050
     11          6           0       11.243200   -1.092956    0.929849
     12          6           0      -11.015143    1.641822   -0.790134
     13          6           0       11.390534    0.322766   -2.336316
     14          6           0       12.536486    1.953730   -0.640510
     15          6           0      -13.097468   -1.118603    0.031576
     16          6           0      -11.666974   -0.768786    2.088722
     17          6           0        9.827480    0.844236    0.353903
     18          6           0       -9.948960   -0.577081   -0.257886
     19          6           0       10.308019   -1.544611    2.064921
     20          6           0      -10.021468    2.140374   -1.763741
     21          6           0        8.581063    0.426305    0.284718
     22          6           0       -8.633658   -0.393001   -0.263840
     23          6           0        7.421077    1.259633    0.531365
     24          6           0       -7.589865   -1.366229   -0.328727
     25          6           0        7.640423    2.746565    0.777673
     26          6           0       -7.882505   -2.871805   -0.721801
     27          6           0        6.165109    0.788442    0.465060
     28          6           0       -6.230077   -0.928188   -0.212372
     29          6           0        4.870586    1.491304    0.555833
     30          6           0       -5.015849   -1.725020   -0.322187
     31          6           0        3.733714    0.877683    0.262869
     32          6           0       -3.737893   -1.065566   -0.250459
     33          6           0        2.347509    1.367124    0.318709
     34          6           0       -2.405116   -1.808618   -0.350573
     35          6           0        2.291244    2.823450    0.697811
     36          6           0       -2.487537   -3.209264   -0.540469
     37          6           0        1.169851    0.689120    0.155816
     38          6           0       -1.311197   -1.082013   -0.305229
     39          6           0        1.225429   -0.720085   -0.005070
     40          6           0        0.059542   -1.497607   -0.267616
     41          1           0       14.301457    0.034196   -0.231768
     42          1           0       13.906574   -0.179585   -2.028222
     43          1           0      -12.147075    1.618708    1.853219
     44          1           0      -13.905123    0.747478    1.827023
     45          1           0       13.874855   -2.498385   -0.522487
     46          1           0       12.514701   -2.340988   -1.338156
     47          1           0      -13.948284    2.941735    0.370092
     48          1           0      -13.913526    1.601739   -0.706658
     49          1           0       13.100973   -1.912289    1.534830
     50          1           0       11.959939   -3.095777    0.848942
     51          1           0      -11.742083    3.395857    0.175529
     52          1           0      -12.210711    2.946024   -1.409803
     53          1           0       11.251453   -0.800161   -2.526798
     54          1           0       12.087539    0.653439   -3.173209
     55          1           0       10.452550    0.695177   -2.357592
     56          1           0       13.019328    2.264286    0.290600
     57          1           0       11.652730    2.649623   -0.711322
     58          1           0       13.402046    2.129974   -1.418243
     59          1           0      -13.698545   -0.496310   -0.815597
     60          1           0      -13.980435   -1.439632    0.674036
     61          1           0      -12.562183   -2.063028   -0.484158
     62          1           0      -10.998190   -0.171880    2.538032
     63          1           0      -11.176935   -1.658445    1.970744
     64          1           0      -12.453356   -1.027909    2.827651
     65          1           0       10.249564    1.915623    0.370412
     66          1           0      -10.663444   -1.518705   -0.338363
     67          1           0        9.685553   -0.658064    2.285925
     68          1           0       10.999218   -1.571839    3.010791
     69          1           0        9.573348   -2.553248    2.126900
     70          1           0       -9.157615    1.438192   -1.826083
     71          1           0       -9.714674    3.095741   -1.433471
     72          1           0      -10.467566    2.244086   -2.753475
     73          1           0        8.495257   -0.599264    0.267303
     74          1           0       -8.398340    0.573631    0.228046
     75          1           0        8.246854    2.837796    1.620138
     76          1           0        6.608328    3.327012    0.841094
     77          1           0        8.460381    3.251458    0.121572
     78          1           0       -8.272994   -2.904114   -1.660432
     79          1           0       -8.441962   -3.367746    0.055851
     80          1           0       -6.951135   -3.536535   -1.084623
     81          1           0        5.888139   -0.428556    0.418776
     82          1           0       -6.010892    0.058837   -0.010963
     83          1           0        4.965274    2.449167    0.921175
     84          1           0       -5.204471   -2.864260   -0.629394
     85          1           0        3.712910   -0.111935    0.038278
     86          1           0       -3.730181   -0.177870    0.211004
     87          1           0        2.485067    3.167140    1.717472
     88          1           0        1.260259    3.542764    0.356924
     89          1           0        3.058841    3.320492   -0.079068
     90          1           0       -2.818163   -3.563799   -1.517301
     91          1           0       -3.316790   -3.720235    0.222895
     92          1           0       -1.377887   -3.632839   -0.394522
     93          1           0        0.364571    1.314626    0.377146
     94          1           0       -1.523908   -0.004232   -0.260675
     95          1           0        2.256701   -1.116865   -0.008524
     96          1           0        0.379959   -2.643077   -0.245837
 ---------------------------------------------------------------------

 SCF Done:  E(RB3LYP) =  -1557.53160493     A.U. after   15 cycles

 Excitation energies and oscillator strengths:

 Excited State   1:      Singlet-A      2.2426 eV  552.87 nm  f=2.6864  <S**2>=0.000
     148 ->149         0.70285
 This state for optimization and/or second-order correction.
 Total Energy, E(TD-HF/TD-DFT) =  -1557.44919252
 Copying the excited state density for this state as the 1-particle RhoCI density.

 The electronic state is 1-A.
 Alpha  occ. eigenvalues --  -10.21124 -10.20972 -10.20853 -10.20456 -10.20396
 Alpha  occ. eigenvalues --  -10.20380 -10.20111 -10.20095 -10.19976 -10.19815
 Alpha  occ. eigenvalues --  -10.19773 -10.19683 -10.19337 -10.19332 -10.19299
 Alpha  occ. eigenvalues --  -10.19264 -10.19242 -10.19070 -10.18848 -10.18834
 Alpha  occ. eigenvalues --  -10.18795 -10.18750 -10.18745 -10.18724 -10.18694
 Alpha  occ. eigenvalues --  -10.18605 -10.18475 -10.18445 -10.18377 -10.18364
 Alpha  occ. eigenvalues --  -10.18152 -10.18143 -10.17987 -10.17629 -10.17523
 Alpha  occ. eigenvalues --  -10.17383 -10.17004 -10.16365 -10.16265 -10.15428
 Alpha  occ. eigenvalues --   -0.85166  -0.84553  -0.83777  -0.83051  -0.82032
 Alpha  occ. eigenvalues --   -0.81436  -0.79383  -0.78746  -0.77942  -0.77717
 Alpha  occ. eigenvalues --   -0.76573  -0.75141  -0.74028  -0.72459  -0.72001
 Alpha  occ. eigenvalues --   -0.69688  -0.68757  -0.68292  -0.68029  -0.67945
 Alpha  occ. eigenvalues --   -0.67297  -0.67091  -0.66670  -0.65597  -0.65436
 Alpha  occ. eigenvalues --   -0.62958  -0.62602  -0.60411  -0.59889  -0.57719
 Alpha  occ. eigenvalues --   -0.57080  -0.55805  -0.54701  -0.53446  -0.53188
 Alpha  occ. eigenvalues --   -0.52179  -0.52110  -0.50901  -0.49323  -0.48998
 Alpha  occ. eigenvalues --   -0.48522  -0.47558  -0.47284  -0.46616  -0.46127
 Alpha  occ. eigenvalues --   -0.45782  -0.45329  -0.45002  -0.44584  -0.44147
 Alpha  occ. eigenvalues --   -0.43787  -0.43750  -0.42953  -0.42800  -0.42318
 Alpha  occ. eigenvalues --   -0.41741  -0.41249  -0.40843  -0.40696  -0.40591
 Alpha  occ. eigenvalues --   -0.40432  -0.39946  -0.39871  -0.39768  -0.39575
 Alpha  occ. eigenvalues --   -0.39362  -0.38740  -0.38560  -0.38378  -0.38053
 Alpha  occ. eigenvalues --   -0.37906  -0.37693  -0.37524  -0.37286  -0.36880
 Alpha  occ. eigenvalues --   -0.36167  -0.35953  -0.35593  -0.35379  -0.35033
 Alpha  occ. eigenvalues --   -0.34598  -0.34353  -0.33976  -0.33866  -0.33601
 Alpha  occ. eigenvalues --   -0.33393  -0.33344  -0.33048  -0.32814  -0.32419
 Alpha  occ. eigenvalues --   -0.32131  -0.31891  -0.31549  -0.30957  -0.30412
 Alpha  occ. eigenvalues --   -0.30382  -0.29955  -0.29802  -0.29436  -0.29064
 Alpha  occ. eigenvalues --   -0.28182  -0.27443  -0.26764  -0.24197  -0.23054
 Alpha  occ. eigenvalues --   -0.21314  -0.19076  -0.16543
 Alpha virt. eigenvalues --   -0.07955  -0.05173  -0.02099   0.00721   0.02477
 Alpha virt. eigenvalues --    0.04342   0.05930   0.06506   0.06966   0.07208
 Alpha virt. eigenvalues --    0.07594   0.07686   0.08380   0.08531   0.08967

 Mulliken charges:
               1
     1  C    0.017953
     2  C   -0.006272
     3  C   -0.162961
     4  C   -0.158077
     5  C   -0.180242
     6  C   -0.189609
     7  C    0.060006
     8  C    0.044769
     9  C   -0.219076
    10  C   -0.183112
    11  C    0.046383
    12  C    0.046885
    13  C   -0.297039
    14  C   -0.308572
    15  C   -0.292233
    16  C   -0.299297
    17  C   -0.143668
    18  C   -0.076833
    19  C   -0.360791
    20  C   -0.372231
    21  C   -0.064612
    22  C   -0.148732
    23  C    0.126567
    24  C    0.086057
    25  C   -0.372976
    26  C   -0.364645
    27  C   -0.136318
    28  C   -0.112590
    29  C   -0.055841
    30  C   -0.076529
    31  C   -0.078021
    32  C   -0.139410
    33  C    0.083628
    34  C    0.166144
    35  C   -0.367994
    36  C   -0.376849
    37  C   -0.067971
    38  C   -0.107393
    39  C   -0.111461
    40  C   -0.112483
    41  H    0.069515
    42  H    0.036827
    43  H    0.062821
    44  H    0.076721
    45  H    0.097686
    46  H    0.110457
    47  H    0.089537
    48  H    0.108104
    49  H    0.109134
    50  H    0.106016
    51  H    0.106478
    52  H    0.092909
    53  H    0.094408
    54  H    0.097554
    55  H    0.120997
    56  H    0.111453
    57  H    0.092835
    58  H    0.088450
    59  H    0.074686
    60  H    0.098816
    61  H    0.088644
    62  H    0.110545
    63  H    0.105075
    64  H    0.088511
    65  H    0.069442
    66  H    0.076956
    67  H    0.117196
    68  H    0.091006
    69  H    0.089457
    70  H    0.116791
    71  H    0.118004
    72  H    0.111178
    73  H    0.092163
    74  H    0.097661
    75  H    0.134539
    76  H    0.098657
    77  H    0.103927
    78  H    0.138639
    79  H    0.127629
    80  H    0.082017
    81  H    0.053108
    82  H    0.071238
    83  H    0.081802
    84  H    0.073000
    85  H    0.062087
    86  H    0.087211
    87  H    0.130014
    88  H    0.055985
    89  H    0.096566
    90  H    0.133235
    91  H    0.093146
    92  H    0.089124
    93  H    0.089408
    94  H    0.080996
    95  H    0.093803
    96  H    0.071279
 Sum of Mulliken charges =  -0.00000

 Dipole moment (field-independent basis, Debye):
    X=             -0.6042    Y=              0.2870    Z=              0.3331  Tot=              0.7473
 Quadrupole moment (field-independent basis, Debye-Ang):
   XX=           -210.1016   YY=           -236.0251   ZZ=           -254.9977
   XY=             -5.1313   XZ=              6.7817   YZ=              3.4047

 Normal termination of Gaussian 16 at Sat Jul 27 10:17:29 2019.
