 Gaussian 16, Revision A.03,
 Gaussian 16:  ES64L-G16RevA.03 25-Dec-2016

 ---------------------------------
 # td=(NStates=1) B3LYP/6-31G(d,p)
 ---------------------------------

 --
 TD
 --
 Symbolic Z-matrix:
 Charge =  0 Multiplicity = 1

                         Standard orientation:
 ---------------------------------------------------------------------
 Center     Atomic      Atomic             Coordinates (Angstroms)
 Number     Number       Type             X           Y           Z
 ---------------------------------------------------------------------
      1          6           0       12.178662    0.423909   -0.629796
      2          6           0      -12.080034   -0.124192    0.916398
      3          6           0       13.450201   -0.403982   -0.538788
      4          6           0      -13.141481    0.961557    1.360706
      5          6           0       13.138184   -1.926096   -0.493488
      6          6           0      -13.518671    1.862426    0.110727
      7          6           0       11.055612   -0.010682    0.354954
      8          6           0      -11.019790    0.420550   -0.029077
      9          6           0       12.323263   -2.301060    0.828715
     10          6           0      -12.225877    2.502103   -0.389626
     11          6           0       11.165186   -1.217902    0.986841
     12          6           0      -11.098522    1.481493   -0.726522
     13          6           0       11.709924    0.516870   -2.176836
     14          6           0       12.584484    1.874348   -0.186483
     15          6           0      -12.942419   -1.254825    0.150400
     16          6           0      -11.512127   -0.710572    2.195268
     17          6           0        9.940197    0.757742    0.352098
     18          6           0       -9.890881   -0.581378   -0.195548
     19          6           0       10.161263   -1.668527    2.087924
     20          6           0      -10.129696    1.995429   -1.644146
     21          6           0        8.568810    0.390750    0.346860
     22          6           0       -8.559453   -0.235806   -0.208691
     23          6           0        7.445503    1.344858    0.319041
     24          6           0       -7.385752   -1.262038   -0.323431
     25          6           0        7.664336    2.829960    0.454988
     26          6           0       -7.781373   -2.689258   -0.584341
     27          6           0        6.189398    0.819900    0.113707
     28          6           0       -6.203894   -0.703474   -0.358490
     29          6           0        4.923044    1.599732    0.199740
     30          6           0       -5.013480   -1.592283   -0.333439
     31          6           0        3.737305    0.826064    0.195369
     32          6           0       -3.768781   -1.036407   -0.285680
     33          6           0        2.388868    1.374685    0.330874
     34          6           0       -2.576475   -1.659960   -0.609423
     35          6           0        2.224883    2.892475    0.444855
     36          6           0       -2.595051   -3.110287   -1.090066
     37          6           0        1.222184    0.636459    0.112711
     38          6           0       -1.304513   -1.025516   -0.352994
     39          6           0        1.086386   -0.696303   -0.205865
     40          6           0       -0.027552   -1.548057   -0.461282
     41          1           0       13.937650   -0.183966    0.467783
     42          1           0       14.120118   -0.133247   -1.250534
     43          1           0      -12.784477    1.588287    2.129203
     44          1           0      -14.078992    0.413607    1.869870
     45          1           0       14.069146   -2.568057   -0.516774
     46          1           0       12.265331   -2.400985   -1.282000
     47          1           0      -14.422837    2.476994    0.510968
     48          1           0      -14.083668    1.175113   -0.594796
     49          1           0       13.025244   -2.175709    1.588403
     50          1           0       11.915901   -3.298994    0.624385
     51          1           0      -11.992694    3.276994    0.323388
     52          1           0      -12.464183    3.237423   -1.403928
     53          1           0       11.781131   -0.461957   -2.568346
     54          1           0       12.464018    1.110009   -2.620355
     55          1           0       10.744754    1.010759   -2.272333
     56          1           0       12.912245    1.942089    0.880033
     57          1           0       11.858938    2.577029   -0.407221
     58          1           0       13.391439    2.329501   -1.094192
     59          1           0      -13.655299   -0.772820   -0.661914
     60          1           0      -13.572733   -1.645429    0.836830
     61          1           0      -12.303617   -2.107681   -0.276176
     62          1           0      -10.984103   -0.033439    2.944143
     63          1           0      -10.672388   -1.359733    1.921231
     64          1           0      -12.285267   -1.078119    2.656932
     65          1           0       10.169694    1.831233    0.316052
     66          1           0      -10.473984   -1.671867   -0.125376
     67          1           0        9.471837   -0.967680    2.540538
     68          1           0       10.611840   -2.038652    2.940271
     69          1           0        9.496594   -2.396583    1.570283
     70          1           0       -9.371802    1.282777   -2.317078
     71          1           0       -9.474559    2.846617   -1.343020
     72          1           0      -10.669570    2.534326   -2.380107
     73          1           0        8.264285   -0.693361    0.246360
     74          1           0       -8.320912    0.754209   -0.274293
     75          1           0        7.771904    2.969756    1.620766
     76          1           0        6.581785    3.325403    0.540094
     77          1           0        8.750444    3.108324   -0.139834
     78          1           0       -8.454957   -2.772654   -1.401141
     79          1           0       -8.372598   -2.871889    0.408943
     80          1           0       -6.855007   -3.418141   -0.644313
     81          1           0        6.161891   -0.225714    0.083123
     82          1           0       -6.017751    0.328166   -0.182364
     83          1           0        4.991970    2.677564    0.315055
     84          1           0       -4.992084   -2.502790   -0.684570
     85          1           0        3.865164   -0.170433    0.044610
     86          1           0       -3.675458    0.127836   -0.118864
     87          1           0        2.738428    3.246322    1.328983
     88          1           0        1.104071    2.964321    0.723973
     89          1           0        2.708096    3.547904   -0.357823
     90          1           0       -3.418396   -3.197677   -1.995208
     91          1           0       -3.071652   -3.745172   -0.387059
     92          1           0       -1.709015   -3.491228   -1.344075
     93          1           0        0.309596    1.058839   -0.079885
     94          1           0       -1.669560   -0.044052   -0.080753
     95          1           0        2.039225   -1.231058   -0.098979
     96          1           0        0.033604   -2.598536   -0.757892
 ---------------------------------------------------------------------

 SCF Done:  E(RB3LYP) =  -1557.54833329     A.U. after   17 cycles

 Excitation energies and oscillator strengths:

 Excited State   1:      Singlet-A      1.9914 eV  622.59 nm  f=3.1100  <S**2>=0.000
     148 ->149         0.71218
     148 <-149        -0.14913
 This state for optimization and/or second-order correction.
 Total Energy, E(TD-HF/TD-DFT) =  -1557.47515001
 Copying the excited state density for this state as the 1-particle RhoCI density.

 The electronic state is 1-A.
 Alpha  occ. eigenvalues --  -10.21665 -10.20739 -10.20378 -10.20211 -10.20092
 Alpha  occ. eigenvalues --  -10.20014 -10.19989 -10.19980 -10.19907 -10.19886
 Alpha  occ. eigenvalues --  -10.19850 -10.19714 -10.19623 -10.19587 -10.19486
 Alpha  occ. eigenvalues --  -10.19097 -10.19053 -10.18968 -10.18806 -10.18791
 Alpha  occ. eigenvalues --  -10.18724 -10.18714 -10.18579 -10.18536 -10.18493
 Alpha  occ. eigenvalues --  -10.18470 -10.18362 -10.18198 -10.17997 -10.17990
 Alpha  occ. eigenvalues --  -10.17961 -10.17947 -10.17943 -10.17830 -10.17824
 Alpha  occ. eigenvalues --  -10.17447 -10.17319 -10.16877 -10.16580 -10.15854
 Alpha  occ. eigenvalues --   -0.85093  -0.84724  -0.83519  -0.82798  -0.81836
 Alpha  occ. eigenvalues --   -0.81037  -0.78861  -0.78526  -0.77703  -0.77037
 Alpha  occ. eigenvalues --   -0.76420  -0.74830  -0.73516  -0.71819  -0.71337
 Alpha  occ. eigenvalues --   -0.70351  -0.68897  -0.68634  -0.68238  -0.67982
 Alpha  occ. eigenvalues --   -0.67798  -0.67417  -0.67069  -0.66294  -0.65815
 Alpha  occ. eigenvalues --   -0.63009  -0.61177  -0.59546  -0.58739  -0.57759
 Alpha  occ. eigenvalues --   -0.56866  -0.55932  -0.55252  -0.54697  -0.53776
 Alpha  occ. eigenvalues --   -0.52772  -0.51505  -0.50323  -0.49345  -0.48949
 Alpha  occ. eigenvalues --   -0.48146  -0.47790  -0.47329  -0.46574  -0.46354
 Alpha  occ. eigenvalues --   -0.45773  -0.45215  -0.44657  -0.44501  -0.43965
 Alpha  occ. eigenvalues --   -0.43508  -0.43128  -0.42692  -0.42388  -0.41991
 Alpha  occ. eigenvalues --   -0.41836  -0.41705  -0.41205  -0.41042  -0.40880
 Alpha  occ. eigenvalues --   -0.40567  -0.40531  -0.40379  -0.40205  -0.39828
 Alpha  occ. eigenvalues --   -0.39700  -0.39006  -0.38621  -0.38346  -0.38270
 Alpha  occ. eigenvalues --   -0.37790  -0.37666  -0.37405  -0.37104  -0.36888
 Alpha  occ. eigenvalues --   -0.36411  -0.35703  -0.35622  -0.35527  -0.35147
 Alpha  occ. eigenvalues --   -0.34928  -0.34588  -0.34511  -0.33885  -0.33618
 Alpha  occ. eigenvalues --   -0.33134  -0.33080  -0.32912  -0.32570  -0.32348
 Alpha  occ. eigenvalues --   -0.32267  -0.32051  -0.31444  -0.31101  -0.30893
 Alpha  occ. eigenvalues --   -0.30670  -0.29863  -0.29759  -0.28900  -0.28486
 Alpha  occ. eigenvalues --   -0.27807  -0.27108  -0.26310  -0.24559  -0.23111
 Alpha  occ. eigenvalues --   -0.21300  -0.18936  -0.15721
 Alpha virt. eigenvalues --   -0.08857  -0.04743  -0.01890   0.00380   0.03126
 Alpha virt. eigenvalues --    0.04072   0.04754   0.06011   0.06648   0.07247
 Alpha virt. eigenvalues --    0.07550   0.07879   0.08010   0.08506   0.08868

 Mulliken charges:
               1
     1  C   -0.013203
     2  C   -0.037971
     3  C   -0.151052
     4  C   -0.179948
     5  C   -0.187205
     6  C   -0.187595
     7  C    0.131031
     8  C    0.112548
     9  C   -0.219935
    10  C   -0.207871
    11  C   -0.002255
    12  C    0.094572
    13  C   -0.308889
    14  C   -0.296943
    15  C   -0.298741
    16  C   -0.283119
    17  C   -0.136197
    18  C   -0.142796
    19  C   -0.358525
    20  C   -0.381072
    21  C   -0.104302
    22  C   -0.107301
    23  C    0.131674
    24  C    0.119595
    25  C   -0.364073
    26  C   -0.354595
    27  C   -0.120920
    28  C   -0.120398
    29  C   -0.088819
    30  C   -0.079006
    31  C   -0.094186
    32  C   -0.120004
    33  C    0.090835
    34  C    0.094216
    35  C   -0.373686
    36  C   -0.371253
    37  C   -0.093963
    38  C   -0.075013
    39  C   -0.092425
    40  C   -0.114835
    41  H    0.083511
    42  H    0.099870
    43  H    0.100589
    44  H    0.060684
    45  H    0.082245
    46  H    0.059749
    47  H    0.078570
    48  H    0.092538
    49  H    0.118001
    50  H    0.110820
    51  H    0.118699
    52  H    0.048109
    53  H    0.112951
    54  H    0.101988
    55  H    0.108147
    56  H    0.106288
    57  H    0.113066
    58  H    0.044304
    59  H    0.094176
    60  H    0.114665
    61  H    0.091426
    62  H    0.089830
    63  H    0.097719
    64  H    0.104256
    65  H    0.065748
    66  H    0.071754
    67  H    0.114694
    68  H    0.110141
    69  H    0.106403
    70  H    0.094968
    71  H    0.111351
    72  H    0.108385
    73  H    0.079732
    74  H    0.094055
    75  H    0.114878
    76  H    0.100054
    77  H    0.111104
    78  H    0.138191
    79  H    0.114728
    80  H    0.098768
    81  H    0.074957
    82  H    0.083359
    83  H    0.086411
    84  H    0.066480
    85  H    0.081262
    86  H    0.058479
    87  H    0.118173
    88  H    0.104920
    89  H    0.119879
    90  H    0.086083
    91  H    0.129212
    92  H    0.110933
    93  H    0.078975
    94  H    0.069998
    95  H    0.061825
    96  H    0.095520
 Sum of Mulliken charges =  -0.00000

 Dipole moment (field-independent basis, Debye):
    X=              0.8119    Y=             -0.1168    Z=              0.6164  Tot=              1.0260
 Quadrupole moment (field-independent basis, Debye-Ang):
   XX=           -219.6573   YY=           -236.0969   ZZ=           -255.7558
   XY=             -0.8651   XZ=              0.9344   YZ=              2.7955

 Normal termination of Gaussian 16 at Wed Jul 31 08:36:22 2019.
