 Gaussian 16, Revision A.03,
 Gaussian 16:  ES64L-G16RevA.03 25-Dec-2016

 ---------------------------------
 # td=(NStates=1) B3LYP/6-31G(d,p)
 ---------------------------------

 --
 TD
 --
 Symbolic Z-matrix:
 Charge =  0 Multiplicity = 1

                         Standard orientation:
 ---------------------------------------------------------------------
 Center     Atomic      Atomic             Coordinates (Angstroms)
 Number     Number       Type             X           Y           Z
 ---------------------------------------------------------------------
      1          6           0       12.100974    0.577300   -0.845328
      2          6           0      -12.094838    0.010716    0.862182
      3          6           0       13.391459   -0.222773   -0.708161
      4          6           0      -12.987793    1.219987    1.241780
      5          6           0       13.211020   -1.779889   -0.563589
      6          6           0      -13.329411    2.149576    0.106076
      7          6           0       11.069246    0.079990    0.214600
      8          6           0      -10.955745    0.394115   -0.190899
      9          6           0       12.418585   -1.916796    0.690914
     10          6           0      -12.171950    2.722510   -0.480941
     11          6           0       11.208491   -1.106642    0.975535
     12          6           0      -10.946468    1.686573   -0.788642
     13          6           0       11.480161    0.449700   -2.273269
     14          6           0       12.410428    2.051219   -0.451986
     15          6           0      -13.098498   -1.062196    0.248176
     16          6           0      -11.552397   -0.718497    2.124855
     17          6           0        9.871812    0.857914    0.371355
     18          6           0       -9.960383   -0.596276   -0.395643
     19          6           0       10.284232   -1.604352    2.011786
     20          6           0      -10.030362    2.126508   -1.799975
     21          6           0        8.550841    0.411280    0.272931
     22          6           0       -8.614916   -0.338137   -0.269542
     23          6           0        7.371791    1.298531    0.505099
     24          6           0       -7.554550   -1.341261   -0.406347
     25          6           0        7.636262    2.709973    0.773598
     26          6           0       -7.904704   -2.746205   -0.619808
     27          6           0        6.084523    0.786026    0.453099
     28          6           0       -6.241334   -0.922419   -0.334599
     29          6           0        4.839550    1.349283    0.535167
     30          6           0       -4.978000   -1.647087   -0.420209
     31          6           0        3.711705    0.527649    0.301671
     32          6           0       -3.756812   -1.074646   -0.333816
     33          6           0        2.459782    1.173566    0.389678
     34          6           0       -2.533889   -1.778147   -0.422071
     35          6           0        2.339826    2.660467    0.511353
     36          6           0       -2.480364   -3.380719   -0.734311
     37          6           0        1.211586    0.392470    0.291712
     38          6           0       -1.272677   -1.178508   -0.195517
     39          6           0        1.120256   -0.944731   -0.050435
     40          6           0       -0.073544   -1.631393   -0.335067
     41          1           0       13.989519    0.224707    0.102996
     42          1           0       14.019119    0.085357   -1.715261
     43          1           0      -12.250321    1.866960    2.075847
     44          1           0      -13.686140    0.916320    1.639580
     45          1           0       14.167374   -2.369466   -0.548346
     46          1           0       12.732694   -2.164038   -1.426389
     47          1           0      -14.044469    2.910139    0.373656
     48          1           0      -13.938007    1.426963   -0.488032
     49          1           0       12.976083   -1.847972    1.644634
     50          1           0       11.998720   -2.867689    0.718829
     51          1           0      -11.805488    3.377980    0.404484
     52          1           0      -12.185797    3.070243   -1.488775
     53          1           0       11.025460   -0.568572   -2.585932
     54          1           0       12.131740    0.568658   -3.249894
     55          1           0       10.505592    0.996643   -2.541696
     56          1           0       12.894357    2.426449    0.456749
     57          1           0       11.645686    2.650711   -0.586773
     58          1           0       13.070161    2.462230   -1.476237
     59          1           0      -13.453581   -0.576923   -0.838833
     60          1           0      -13.928132   -1.171577    0.974990
     61          1           0      -12.535668   -1.951951    0.061257
     62          1           0      -10.681266   -0.189909    2.504567
     63          1           0      -11.277662   -1.926526    2.195290
     64          1           0      -12.408576   -0.818155    2.801171
     65          1           0        9.879185    1.958041    0.351610
     66          1           0      -10.585618   -1.583621   -0.534525
     67          1           0        9.416385   -0.870649    2.082864
     68          1           0       10.920690   -1.504622    3.034183
     69          1           0        9.904180   -2.605491    1.682827
     70          1           0       -9.268421    1.525145   -2.303453
     71          1           0       -9.114613    2.847394   -1.462308
     72          1           0      -10.506102    2.687592   -2.571267
     73          1           0        8.279065   -0.560820   -0.071166
     74          1           0       -8.344579    0.631516   -0.150623
     75          1           0        8.443665    2.856259    1.417718
     76          1           0        6.591312    3.359244    0.935414
     77          1           0        8.072123    3.122929   -0.166426
     78          1           0       -8.370067   -2.979830   -1.484610
     79          1           0       -8.599326   -2.986902    0.030689
     80          1           0       -6.993748   -3.432876   -0.849673
     81          1           0        6.151784   -0.458314    0.192495
     82          1           0       -6.235693    0.118567   -0.023646
     83          1           0        4.822432    2.406644    0.763363
     84          1           0       -5.144845   -2.684273   -0.493039
     85          1           0        3.622850   -0.525153    0.462671
     86          1           0       -3.722371    0.052998   -0.289349
     87          1           0        2.944046    2.936322    1.414340
     88          1           0        1.390615    2.843661    0.698982
     89          1           0        2.695312    3.175127   -0.534729
     90          1           0       -2.733718   -3.575854   -1.838073
     91          1           0       -3.459420   -3.730695   -0.071458
     92          1           0       -1.500529   -3.880674   -0.426522
     93          1           0        0.254025    1.007667    0.333493
     94          1           0       -1.417507   -0.137710   -0.127553
     95          1           0        2.062808   -1.654403    0.052103
     96          1           0        0.181314   -2.755855   -0.630682
 ---------------------------------------------------------------------

 SCF Done:  E(RB3LYP) =  -1557.47695940     A.U. after   17 cycles

 Excitation energies and oscillator strengths:

 Excited State   1:      Singlet-A      1.7761 eV  698.05 nm  f=3.3544  <S**2>=0.000
     148 ->149         0.72290
     148 <-149        -0.19522
 This state for optimization and/or second-order correction.
 Total Energy, E(TD-HF/TD-DFT) =  -1557.41168737
 Copying the excited state density for this state as the 1-particle RhoCI density.

 The electronic state is 1-A.
 Alpha  occ. eigenvalues --  -10.21638 -10.20593 -10.20423 -10.20207 -10.19904
 Alpha  occ. eigenvalues --  -10.19886 -10.19561 -10.19498 -10.19446 -10.19440
 Alpha  occ. eigenvalues --  -10.19423 -10.19398 -10.19353 -10.19248 -10.19200
 Alpha  occ. eigenvalues --  -10.19188 -10.19092 -10.19035 -10.19022 -10.18773
 Alpha  occ. eigenvalues --  -10.18749 -10.18693 -10.18666 -10.18654 -10.18648
 Alpha  occ. eigenvalues --  -10.18512 -10.18506 -10.18504 -10.18492 -10.18486
 Alpha  occ. eigenvalues --  -10.18400 -10.18382 -10.18177 -10.18175 -10.18118
 Alpha  occ. eigenvalues --  -10.17452 -10.17310 -10.17275 -10.16987 -10.16241
 Alpha  occ. eigenvalues --   -0.85017  -0.84695  -0.83565  -0.82948  -0.82313
 Alpha  occ. eigenvalues --   -0.81233  -0.79405  -0.79027  -0.78367  -0.78104
 Alpha  occ. eigenvalues --   -0.77353  -0.75412  -0.74046  -0.73048  -0.71987
 Alpha  occ. eigenvalues --   -0.70422  -0.69013  -0.68455  -0.68080  -0.68048
 Alpha  occ. eigenvalues --   -0.67249  -0.66837  -0.66704  -0.66485  -0.65017
 Alpha  occ. eigenvalues --   -0.63361  -0.61904  -0.60529  -0.59541  -0.56765
 Alpha  occ. eigenvalues --   -0.56230  -0.55918  -0.55087  -0.54021  -0.53037
 Alpha  occ. eigenvalues --   -0.52684  -0.51756  -0.49929  -0.49663  -0.49138
 Alpha  occ. eigenvalues --   -0.48469  -0.47830  -0.47201  -0.46970  -0.46287
 Alpha  occ. eigenvalues --   -0.45857  -0.45627  -0.45296  -0.45107  -0.44546
 Alpha  occ. eigenvalues --   -0.44123  -0.43428  -0.42878  -0.42701  -0.42289
 Alpha  occ. eigenvalues --   -0.42240  -0.41668  -0.41342  -0.41142  -0.40895
 Alpha  occ. eigenvalues --   -0.40765  -0.40438  -0.40084  -0.39779  -0.39614
 Alpha  occ. eigenvalues --   -0.39199  -0.38963  -0.38769  -0.38182  -0.38025
 Alpha  occ. eigenvalues --   -0.37674  -0.37556  -0.37359  -0.36738  -0.36409
 Alpha  occ. eigenvalues --   -0.36240  -0.35889  -0.35799  -0.35642  -0.35536
 Alpha  occ. eigenvalues --   -0.34946  -0.34546  -0.34067  -0.33935  -0.33507
 Alpha  occ. eigenvalues --   -0.33258  -0.33075  -0.32819  -0.32577  -0.32416
 Alpha  occ. eigenvalues --   -0.32125  -0.31948  -0.31877  -0.31241  -0.31111
 Alpha  occ. eigenvalues --   -0.30316  -0.30095  -0.29716  -0.28864  -0.28572
 Alpha  occ. eigenvalues --   -0.27844  -0.27415  -0.26029  -0.23612  -0.22131
 Alpha  occ. eigenvalues --   -0.20240  -0.18646  -0.14818
 Alpha virt. eigenvalues --   -0.09217  -0.04919  -0.02029   0.00207   0.02232
 Alpha virt. eigenvalues --    0.04055   0.05466   0.06470   0.06851   0.07087
 Alpha virt. eigenvalues --    0.07489   0.07532   0.08480   0.08796   0.09019

 Mulliken charges:
               1
     1  C    0.029041
     2  C   -0.021069
     3  C   -0.172128
     4  C   -0.080479
     5  C   -0.188680
     6  C   -0.184781
     7  C    0.068579
     8  C    0.049476
     9  C   -0.203232
    10  C   -0.182964
    11  C    0.055948
    12  C    0.047031
    13  C   -0.315650
    14  C   -0.299214
    15  C   -0.294579
    16  C   -0.291641
    17  C   -0.153757
    18  C   -0.119523
    19  C   -0.351784
    20  C   -0.379754
    21  C   -0.097995
    22  C   -0.103967
    23  C    0.131198
    24  C    0.125859
    25  C   -0.387719
    26  C   -0.371940
    27  C   -0.113042
    28  C   -0.143119
    29  C   -0.087479
    30  C   -0.072287
    31  C   -0.088912
    32  C   -0.103273
    33  C    0.074241
    34  C    0.085741
    35  C   -0.345441
    36  C   -0.353396
    37  C   -0.127025
    38  C   -0.082134
    39  C   -0.083543
    40  C   -0.091985
    41  H    0.098801
    42  H    0.056265
    43  H    0.031453
    44  H    0.060610
    45  H    0.093589
    46  H    0.111154
    47  H    0.097166
    48  H    0.087910
    49  H    0.101275
    50  H    0.097719
    51  H    0.101508
    52  H    0.097295
    53  H    0.097164
    54  H    0.091534
    55  H    0.103293
    56  H    0.113823
    57  H    0.121548
    58  H    0.048530
    59  H    0.076162
    60  H    0.101438
    61  H    0.107274
    62  H    0.114740
    63  H    0.068178
    64  H    0.098760
    65  H    0.069940
    66  H    0.078258
    67  H    0.127098
    68  H    0.093500
    69  H    0.116904
    70  H    0.128593
    71  H    0.082432
    72  H    0.109861
    73  H    0.080629
    74  H    0.086329
    75  H    0.135258
    76  H    0.083123
    77  H    0.123857
    78  H    0.129781
    79  H    0.128026
    80  H    0.092560
    81  H    0.037230
    82  H    0.062168
    83  H    0.090764
    84  H    0.074970
    85  H    0.093830
    86  H    0.081174
    87  H    0.113853
    88  H    0.114027
    89  H    0.106533
    90  H    0.117537
    91  H    0.089460
    92  H    0.112833
    93  H    0.076763
    94  H    0.070949
    95  H    0.075278
    96  H    0.064671
 Sum of Mulliken charges =  -0.00000

 Dipole moment (field-independent basis, Debye):
    X=              0.4194    Y=              0.1708    Z=             -0.1033  Tot=              0.4644
 Quadrupole moment (field-independent basis, Debye-Ang):
   XX=           -210.7146   YY=           -237.1582   ZZ=           -254.3913
   XY=             -3.0806   XZ=              2.1739   YZ=              2.3861

 Normal termination of Gaussian 16 at Sun Jul 28 03:28:33 2019.
