 Gaussian 16, Revision A.03,
 Gaussian 16:  ES64L-G16RevA.03 25-Dec-2016

 ---------------------------------
 # td=(NStates=1) B3LYP/6-31G(d,p)
 ---------------------------------

 --
 TD
 --
 Symbolic Z-matrix:
 Charge =  0 Multiplicity = 1

                         Standard orientation:
 ---------------------------------------------------------------------
 Center     Atomic      Atomic             Coordinates (Angstroms)
 Number     Number       Type             X           Y           Z
 ---------------------------------------------------------------------
      1          6           0      -12.037661    0.381782    1.028785
      2          6           0       12.051641   -0.120931   -0.758131
      3          6           0      -13.353840   -0.507442    0.861455
      4          6           0       12.952158    0.996491   -1.235487
      5          6           0      -12.901260   -2.035911    0.671758
      6          6           0       13.441805    1.858855    0.036973
      7          6           0      -10.986384   -0.101499   -0.207553
      8          6           0       10.967880    0.326140    0.205628
      9          6           0      -12.174085   -2.229701   -0.606527
     10          6           0       12.122645    2.566003    0.704035
     11          6           0      -11.136674   -1.214263   -0.916370
     12          6           0       11.071671    1.499040    0.920678
     13          6           0      -11.512758    0.305233    2.472218
     14          6           0      -12.495823    1.857240    0.626622
     15          6           0       12.915773   -1.267655   -0.170741
     16          6           0       11.523061   -0.624370   -2.059147
     17          6           0       -9.837110    0.822779   -0.476332
     18          6           0        9.902428   -0.604630    0.387946
     19          6           0      -10.134052   -1.540484   -2.046962
     20          6           0        9.953050    2.095367    1.931223
     21          6           0       -8.548994    0.566799   -0.231659
     22          6           0        8.582226   -0.378851    0.289744
     23          6           0       -7.420024    1.421315   -0.408583
     24          6           0        7.415189   -1.342324    0.408633
     25          6           0       -7.678504    2.878201   -0.705482
     26          6           0        7.700018   -2.786774    0.821737
     27          6           0       -6.168374    0.891525   -0.229961
     28          6           0        6.117241   -0.881482    0.229789
     29          6           0       -4.906388    1.505863   -0.480580
     30          6           0        4.938345   -1.565827    0.372381
     31          6           0       -3.673183    0.848431   -0.431714
     32          6           0        3.724710   -1.049730    0.053819
     33          6           0       -2.400163    1.384029   -0.543502
     34          6           0        2.485131   -1.739928    0.124512
     35          6           0       -2.283504    2.917054   -0.894962
     36          6           0        2.445934   -3.208864    0.466720
     37          6           0       -1.251159    0.673736   -0.373378
     38          6           0        1.352715   -0.952691   -0.068507
     39          6           0       -1.134514   -0.698800   -0.062485
     40          6           0        0.029919   -1.397691    0.069815
     41          1           0      -13.705482   -0.023890    0.053140
     42          1           0      -13.907793   -0.343441    1.784972
     43          1           0       12.279868    1.655266   -1.857266
     44          1           0       13.780638    0.649144   -1.706608
     45          1           0      -13.712699   -2.775228    0.694508
     46          1           0      -12.231098   -2.314516    1.483302
     47          1           0       13.958466    2.726454   -0.371210
     48          1           0       14.098010    1.534600    0.799263
     49          1           0      -13.066113   -2.072915   -1.395649
     50          1           0      -11.621522   -3.333959   -0.820001
     51          1           0       11.744935    3.312094    0.151339
     52          1           0       12.552246    3.158790    1.713393
     53          1           0      -11.284751   -0.719387    2.666547
     54          1           0      -12.271214    0.763851    3.176148
     55          1           0      -10.676890    0.891144    2.723907
     56          1           0      -13.002925    2.036709   -0.299878
     57          1           0      -11.526652    2.661172    0.619960
     58          1           0      -13.190776    2.221913    1.265927
     59          1           0       13.553006   -0.804525    0.656441
     60          1           0       13.719253   -1.703937   -0.779478
     61          1           0       12.253721   -2.016037    0.096033
     62          1           0       11.041003    0.202122   -2.624199
     63          1           0       10.862022   -1.451397   -1.677958
     64          1           0       12.481396   -0.980592   -2.719780
     65          1           0      -10.064826    1.845404   -0.756544
     66          1           0       10.314290   -1.651972    0.744165
     67          1           0       -9.740018   -0.786440   -2.498694
     68          1           0      -10.557818   -2.144267   -2.848915
     69          1           0       -9.354708   -2.020688   -1.595549
     70          1           0        9.460848    1.174564    2.273620
     71          1           0        9.296440    2.664823    1.447522
     72          1           0       10.783298    2.718804    2.656575
     73          1           0       -8.253895   -0.375947    0.040927
     74          1           0        8.064111    0.740238   -0.002678
     75          1           0       -8.072220    3.049550   -1.794656
     76          1           0       -6.764729    3.313913   -0.963520
     77          1           0       -8.309021    3.317262    0.037764
     78          1           0        8.157422   -2.814980    1.833612
     79          1           0        8.477786   -3.083725    0.155217
     80          1           0        6.730260   -3.510835    0.693963
     81          1           0       -6.006764   -0.122490    0.258225
     82          1           0        6.209630    0.131114   -0.053008
     83          1           0       -4.744319    2.561858   -0.629608
     84          1           0        4.887889   -2.625494    0.888413
     85          1           0       -3.654245   -0.226442   -0.108394
     86          1           0        3.791515   -0.023960   -0.128365
     87          1           0       -2.909669    3.272523   -1.697953
     88          1           0       -1.365092    3.380725   -1.372704
     89          1           0       -2.730245    3.684528    0.011427
     90          1           0        2.886505   -3.573157    1.408558
     91          1           0        2.931336   -3.800066   -0.276096
     92          1           0        1.411408   -3.454548    0.184964
     93          1           0       -0.332077    1.262269   -0.428809
     94          1           0        1.442654    0.162627   -0.141529
     95          1           0       -2.071392   -1.063287    0.173411
     96          1           0        0.004478   -2.551548    0.197367
 ---------------------------------------------------------------------

 SCF Done:  E(RB3LYP) =  -1557.59134329     A.U. after   15 cycles

 Excitation energies and oscillator strengths:

 Excited State   1:      Singlet-A      2.1335 eV  581.12 nm  f=3.3047  <S**2>=0.000
     148 ->149         0.71218
     148 <-149        -0.12648
 This state for optimization and/or second-order correction.
 Total Energy, E(TD-HF/TD-DFT) =  -1557.51293705
 Copying the excited state density for this state as the 1-particle RhoCI density.

 The electronic state is 1-A.
 Alpha  occ. eigenvalues --  -10.21309 -10.21183 -10.20484 -10.20465 -10.20193
 Alpha  occ. eigenvalues --  -10.20047 -10.20012 -10.19767 -10.19696 -10.19588
 Alpha  occ. eigenvalues --  -10.19379 -10.19312 -10.19211 -10.19094 -10.19076
 Alpha  occ. eigenvalues --  -10.19070 -10.18813 -10.18807 -10.18596 -10.18576
 Alpha  occ. eigenvalues --  -10.18483 -10.18462 -10.18321 -10.18300 -10.18255
 Alpha  occ. eigenvalues --  -10.18202 -10.18193 -10.18161 -10.18158 -10.17984
 Alpha  occ. eigenvalues --  -10.17893 -10.17790 -10.17779 -10.17637 -10.17533
 Alpha  occ. eigenvalues --  -10.17347 -10.17038 -10.16944 -10.16881 -10.15140
 Alpha  occ. eigenvalues --   -0.85187  -0.84234  -0.83951  -0.83349  -0.82337
 Alpha  occ. eigenvalues --   -0.81484  -0.79155  -0.78318  -0.78037  -0.77264
 Alpha  occ. eigenvalues --   -0.76529  -0.75062  -0.74062  -0.72210  -0.71352
 Alpha  occ. eigenvalues --   -0.70470  -0.69025  -0.68869  -0.68685  -0.67978
 Alpha  occ. eigenvalues --   -0.67897  -0.67665  -0.66745  -0.66333  -0.66005
 Alpha  occ. eigenvalues --   -0.63488  -0.62257  -0.60436  -0.59532  -0.57422
 Alpha  occ. eigenvalues --   -0.56204  -0.55595  -0.54949  -0.53969  -0.53289
 Alpha  occ. eigenvalues --   -0.52710  -0.52095  -0.50599  -0.49455  -0.49094
 Alpha  occ. eigenvalues --   -0.48684  -0.47780  -0.47111  -0.46855  -0.46116
 Alpha  occ. eigenvalues --   -0.45772  -0.45053  -0.44808  -0.44090  -0.43823
 Alpha  occ. eigenvalues --   -0.43642  -0.43473  -0.42684  -0.42602  -0.42484
 Alpha  occ. eigenvalues --   -0.42118  -0.41785  -0.41521  -0.41171  -0.41111
 Alpha  occ. eigenvalues --   -0.40959  -0.40612  -0.40080  -0.39842  -0.39287
 Alpha  occ. eigenvalues --   -0.39150  -0.38813  -0.38777  -0.38326  -0.38014
 Alpha  occ. eigenvalues --   -0.37850  -0.37664  -0.37427  -0.37189  -0.36640
 Alpha  occ. eigenvalues --   -0.36301  -0.36022  -0.35722  -0.35550  -0.35475
 Alpha  occ. eigenvalues --   -0.35324  -0.34747  -0.34643  -0.34264  -0.34093
 Alpha  occ. eigenvalues --   -0.34006  -0.33748  -0.33599  -0.33039  -0.32564
 Alpha  occ. eigenvalues --   -0.32044  -0.31917  -0.31787  -0.31410  -0.30861
 Alpha  occ. eigenvalues --   -0.30722  -0.30221  -0.29395  -0.28676  -0.27812
 Alpha  occ. eigenvalues --   -0.27408  -0.27225  -0.26261  -0.24021  -0.22765
 Alpha  occ. eigenvalues --   -0.21890  -0.19390  -0.16298
 Alpha virt. eigenvalues --   -0.08670  -0.05018  -0.01349   0.01251   0.02646
 Alpha virt. eigenvalues --    0.03929   0.05722   0.05894   0.07003   0.07407
 Alpha virt. eigenvalues --    0.07607   0.07814   0.08440   0.08531   0.09177

 Mulliken charges:
               1
     1  C    0.003087
     2  C   -0.030007
     3  C   -0.171945
     4  C   -0.153514
     5  C   -0.189312
     6  C   -0.216617
     7  C    0.026821
     8  C    0.103124
     9  C   -0.203749
    10  C   -0.215182
    11  C    0.078558
    12  C    0.027815
    13  C   -0.303831
    14  C   -0.315677
    15  C   -0.296704
    16  C   -0.259904
    17  C   -0.166830
    18  C   -0.181219
    19  C   -0.352850
    20  C   -0.333272
    21  C   -0.047759
    22  C   -0.076357
    23  C    0.124227
    24  C    0.100335
    25  C   -0.373918
    26  C   -0.368238
    27  C   -0.137682
    28  C   -0.102343
    29  C   -0.081842
    30  C   -0.079939
    31  C   -0.122875
    32  C   -0.090923
    33  C    0.134919
    34  C    0.099493
    35  C   -0.381504
    36  C   -0.379110
    37  C   -0.120245
    38  C   -0.090768
    39  C   -0.072753
    40  C   -0.106370
    41  H    0.108457
    42  H    0.092552
    43  H    0.084847
    44  H    0.095716
    45  H    0.092038
    46  H    0.100197
    47  H    0.081161
    48  H    0.108168
    49  H    0.083731
    50  H    0.069889
    51  H    0.126955
    52  H    0.058272
    53  H    0.109462
    54  H    0.090884
    55  H    0.112649
    56  H    0.108597
    57  H    0.060753
    58  H    0.108045
    59  H    0.093116
    60  H    0.097611
    61  H    0.100902
    62  H    0.094742
    63  H    0.088022
    64  H    0.073072
    65  H    0.081273
    66  H    0.091809
    67  H    0.126615
    68  H    0.094747
    69  H    0.126023
    70  H    0.118899
    71  H    0.132437
    72  H    0.076631
    73  H    0.062184
    74  H    0.060297
    75  H    0.099445
    76  H    0.114810
    77  H    0.134102
    78  H    0.122199
    79  H    0.124561
    80  H    0.091944
    81  H    0.081656
    82  H    0.066095
    83  H    0.081728
    84  H    0.068958
    85  H    0.067383
    86  H    0.074411
    87  H    0.123513
    88  H    0.104768
    89  H    0.082273
    90  H    0.131094
    91  H    0.129952
    92  H    0.107649
    93  H    0.076081
    94  H    0.082891
    95  H    0.078595
    96  H    0.070000
 Sum of Mulliken charges =  -0.00000

 Dipole moment (field-independent basis, Debye):
    X=             -0.4851    Y=              0.1851    Z=              0.0395  Tot=              0.5207
 Quadrupole moment (field-independent basis, Debye-Ang):
   XX=           -224.2812   YY=           -235.2347   ZZ=           -255.4234
   XY=             -2.7944   XZ=             -3.9359   YZ=             -5.8763

 Normal termination of Gaussian 16 at Tue Jul 30 12:08:56 2019.
