 Gaussian 16, Revision A.03,
 Gaussian 16:  ES64L-G16RevA.03 25-Dec-2016

 ---------------------------------
 # td=(NStates=1) B3LYP/6-31G(d,p)
 ---------------------------------

 --
 TD
 --
 Symbolic Z-matrix:
 Charge =  0 Multiplicity = 1

                         Standard orientation:
 ---------------------------------------------------------------------
 Center     Atomic      Atomic             Coordinates (Angstroms)
 Number     Number       Type             X           Y           Z
 ---------------------------------------------------------------------
      1          6           0      -12.134414   -0.523001   -0.634695
      2          6           0       12.035086   -0.089597    1.084436
      3          6           0      -13.405677    0.424662   -0.523881
      4          6           0       12.994279   -1.263276    1.363697
      5          6           0      -13.068801    1.829444   -0.569341
      6          6           0       13.392419   -1.959368    0.092631
      7          6           0      -11.034779   -0.034552    0.396597
      8          6           0       10.966379   -0.364940   -0.117789
      9          6           0      -12.213132    2.190041    0.647426
     10          6           0       12.156924   -2.413745   -0.635113
     11          6           0      -11.111410    1.281627    0.987846
     12          6           0       11.012223   -1.461358   -0.814222
     13          6           0      -11.599831   -0.552953   -1.996664
     14          6           0      -12.730068   -1.848391   -0.144914
     15          6           0       12.983951    1.079326    0.451920
     16          6           0       11.436513    0.311047    2.334473
     17          6           0       -9.894649   -0.893386    0.442496
     18          6           0        9.899500    0.641537   -0.167667
     19          6           0      -10.042844    1.702946    1.880511
     20          6           0        9.984234   -1.887426   -1.900646
     21          6           0       -8.521998   -0.480174    0.324314
     22          6           0        8.612578    0.347399   -0.184868
     23          6           0       -7.402907   -1.429299    0.369980
     24          6           0        7.530141    1.351416   -0.315758
     25          6           0       -7.618062   -2.860663    0.689065
     26          6           0        7.967261    2.780734   -0.729398
     27          6           0       -6.108109   -0.915877    0.185804
     28          6           0        6.312650    0.882957   -0.383647
     29          6           0       -4.856478   -1.531976    0.154509
     30          6           0        5.042341    1.662767   -0.544489
     31          6           0       -3.671278   -0.819888    0.034493
     32          6           0        3.750742    1.214983   -0.400967
     33          6           0       -2.411758   -1.387031    0.088183
     34          6           0        2.503273    1.955645   -0.336531
     35          6           0       -2.255783   -2.905805    0.326899
     36          6           0        2.443194    3.281949   -0.660182
     37          6           0       -1.201638   -0.605932   -0.127133
     38          6           0        1.302333    1.162161   -0.250143
     39          6           0       -1.182328    0.840938   -0.229018
     40          6           0       -0.116942    1.605955   -0.273104
     41          1           0      -14.055215    0.165500    0.364133
     42          1           0      -13.810606    0.023302   -1.538243
     43          1           0       12.406737   -2.092229    1.823087
     44          1           0       13.709698   -1.008897    2.218690
     45          1           0      -13.911167    2.282280   -0.435922
     46          1           0      -12.706921    2.217407   -1.504808
     47          1           0       14.109804   -2.648637    0.260207
     48          1           0       13.877580   -1.215434   -0.553198
     49          1           0      -13.023502    1.935825    1.426013
     50          1           0      -11.892092    3.398471    0.596013
     51          1           0       11.906186   -3.397429   -0.265000
     52          1           0       12.536305   -2.752216   -1.630624
     53          1           0      -11.122969    0.464489   -2.147617
     54          1           0      -12.511031   -0.729870   -2.664208
     55          1           0      -10.723926   -1.393537   -2.077357
     56          1           0      -12.747905   -1.843519    1.081629
     57          1           0      -11.897603   -2.597021   -0.372389
     58          1           0      -13.540819   -2.179841   -0.755618
     59          1           0       13.652473    0.631469   -0.520709
     60          1           0       13.660438    1.353697    1.308156
     61          1           0       12.571478    1.940663    0.276400
     62          1           0       10.739012   -0.455886    2.780781
     63          1           0       10.686192    0.999778    2.091232
     64          1           0       12.028923    0.831110    3.014001
     65          1           0       -9.857600   -1.930644    0.515250
     66          1           0       10.069244    1.702500   -0.172067
     67          1           0       -9.421680    0.914800    2.353096
     68          1           0      -10.464528    2.219319    2.806995
     69          1           0       -9.424689    2.594439    1.564581
     70          1           0        9.279310   -1.228927   -2.168844
     71          1           0        9.470563   -2.780572   -1.461326
     72          1           0       10.586142   -2.121897   -2.770024
     73          1           0       -8.150749    0.497107    0.009813
     74          1           0        8.221715   -0.728706   -0.008060
     75          1           0       -7.998896   -2.913985    1.582449
     76          1           0       -6.396307   -3.489362    0.800132
     77          1           0       -8.172341   -3.278305   -0.103995
     78          1           0        8.348046    2.730314   -1.653637
     79          1           0        8.851509    3.148147   -0.202317
     80          1           0        6.983906    3.468569   -0.651166
     81          1           0       -6.149269    0.135800    0.178340
     82          1           0        6.255674   -0.110522   -0.347549
     83          1           0       -4.681210   -2.553117    0.095078
     84          1           0        5.255451    2.770678   -0.810594
     85          1           0       -3.817189    0.261840   -0.137337
     86          1           0        3.573389    0.110748   -0.121349
     87          1           0       -2.741033   -3.034549    1.269923
     88          1           0       -1.198075   -3.270626    0.320910
     89          1           0       -3.014003   -3.317115   -0.446904
     90          1           0        2.951931    3.646553   -1.610586
     91          1           0        2.980557    3.736722    0.210164
     92          1           0        1.560887    3.769576   -0.704118
     93          1           0       -0.145431   -1.075619    0.026544
     94          1           0        1.595506    0.207699   -0.171210
     95          1           0       -2.186602    1.323249   -0.241705
     96          1           0       -0.564113    2.753014   -0.215803
 ---------------------------------------------------------------------

 SCF Done:  E(RB3LYP) =  -1557.54169187     A.U. after   16 cycles

 Excitation energies and oscillator strengths:

 Excited State   1:      Singlet-A      2.0827 eV  595.29 nm  f=2.8758  <S**2>=0.000
     148 ->149         0.70536
     148 <-149        -0.12145
 This state for optimization and/or second-order correction.
 Total Energy, E(TD-HF/TD-DFT) =  -1557.46515234
 Copying the excited state density for this state as the 1-particle RhoCI density.

 The electronic state is 1-A.
 Alpha  occ. eigenvalues --  -10.20451 -10.20412 -10.20081 -10.20055 -10.20029
 Alpha  occ. eigenvalues --  -10.19868 -10.19853 -10.19777 -10.19631 -10.19589
 Alpha  occ. eigenvalues --  -10.19380 -10.19294 -10.19173 -10.19082 -10.19059
 Alpha  occ. eigenvalues --  -10.18953 -10.18901 -10.18894 -10.18838 -10.18675
 Alpha  occ. eigenvalues --  -10.18609 -10.18501 -10.18405 -10.18362 -10.18332
 Alpha  occ. eigenvalues --  -10.18281 -10.18201 -10.18178 -10.18126 -10.17867
 Alpha  occ. eigenvalues --  -10.17772 -10.17658 -10.17469 -10.17459 -10.17171
 Alpha  occ. eigenvalues --  -10.16928 -10.16774 -10.16221 -10.16066 -10.15442
 Alpha  occ. eigenvalues --   -0.85373  -0.84913  -0.83647  -0.83318  -0.82499
 Alpha  occ. eigenvalues --   -0.81619  -0.79238  -0.79154  -0.78538  -0.78104
 Alpha  occ. eigenvalues --   -0.77873  -0.75170  -0.74737  -0.72452  -0.72365
 Alpha  occ. eigenvalues --   -0.70210  -0.69684  -0.68942  -0.68433  -0.67955
 Alpha  occ. eigenvalues --   -0.67690  -0.67552  -0.66950  -0.66655  -0.65739
 Alpha  occ. eigenvalues --   -0.62855  -0.61946  -0.60074  -0.59535  -0.56961
 Alpha  occ. eigenvalues --   -0.56232  -0.54881  -0.54524  -0.53698  -0.52949
 Alpha  occ. eigenvalues --   -0.52356  -0.51915  -0.50415  -0.50270  -0.49979
 Alpha  occ. eigenvalues --   -0.48461  -0.48157  -0.47427  -0.46814  -0.46336
 Alpha  occ. eigenvalues --   -0.45789  -0.45408  -0.45344  -0.45060  -0.44952
 Alpha  occ. eigenvalues --   -0.44479  -0.42991  -0.42874  -0.42707  -0.42539
 Alpha  occ. eigenvalues --   -0.41829  -0.41686  -0.41472  -0.41374  -0.41221
 Alpha  occ. eigenvalues --   -0.40852  -0.40662  -0.40552  -0.40002  -0.39802
 Alpha  occ. eigenvalues --   -0.39573  -0.39259  -0.38971  -0.38793  -0.38742
 Alpha  occ. eigenvalues --   -0.38254  -0.37980  -0.37828  -0.37385  -0.36996
 Alpha  occ. eigenvalues --   -0.36439  -0.35993  -0.35503  -0.35157  -0.35067
 Alpha  occ. eigenvalues --   -0.34532  -0.34490  -0.34127  -0.34016  -0.33979
 Alpha  occ. eigenvalues --   -0.33883  -0.33228  -0.32957  -0.32840  -0.32761
 Alpha  occ. eigenvalues --   -0.32519  -0.32059  -0.31931  -0.31402  -0.30919
 Alpha  occ. eigenvalues --   -0.30648  -0.30408  -0.29070  -0.28901  -0.28277
 Alpha  occ. eigenvalues --   -0.27587  -0.27102  -0.25375  -0.24089  -0.22451
 Alpha  occ. eigenvalues --   -0.20960  -0.18802  -0.15981
 Alpha virt. eigenvalues --   -0.08398  -0.05116  -0.01758   0.00200   0.02970
 Alpha virt. eigenvalues --    0.04469   0.05503   0.05929   0.06481   0.06666
 Alpha virt. eigenvalues --    0.07448   0.07879   0.08357   0.09148   0.09565

 Mulliken charges:
               1
     1  C   -0.006438
     2  C    0.005192
     3  C   -0.174464
     4  C   -0.160381
     5  C   -0.161707
     6  C   -0.177225
     7  C    0.044325
     8  C    0.073494
     9  C   -0.237073
    10  C   -0.236847
    11  C    0.125404
    12  C    0.050400
    13  C   -0.273419
    14  C   -0.289018
    15  C   -0.291730
    16  C   -0.309326
    17  C   -0.150309
    18  C   -0.151358
    19  C   -0.379886
    20  C   -0.347573
    21  C   -0.091718
    22  C   -0.078983
    23  C    0.092681
    24  C    0.115495
    25  C   -0.345732
    26  C   -0.373529
    27  C   -0.126267
    28  C   -0.096074
    29  C   -0.067893
    30  C   -0.112016
    31  C   -0.086554
    32  C   -0.116967
    33  C    0.072907
    34  C    0.136781
    35  C   -0.368190
    36  C   -0.374041
    37  C   -0.132649
    38  C   -0.119853
    39  C   -0.055766
    40  C   -0.096646
    41  H    0.092111
    42  H    0.066848
    43  H    0.079229
    44  H    0.077247
    45  H    0.106547
    46  H    0.097167
    47  H    0.092859
    48  H    0.086711
    49  H    0.102081
    50  H    0.075661
    51  H    0.102333
    52  H    0.089060
    53  H    0.109197
    54  H    0.088427
    55  H    0.089493
    56  H    0.090398
    57  H    0.076444
    58  H    0.104783
    59  H    0.078202
    60  H    0.080059
    61  H    0.108168
    62  H    0.097658
    63  H    0.101994
    64  H    0.104470
    65  H    0.082174
    66  H    0.074839
    67  H    0.127099
    68  H    0.088214
    69  H    0.107614
    70  H    0.125168
    71  H    0.107962
    72  H    0.106352
    73  H    0.081820
    74  H    0.074280
    75  H    0.143996
    76  H    0.048018
    77  H    0.130746
    78  H    0.147688
    79  H    0.113858
    80  H    0.093107
    81  H    0.066207
    82  H    0.065691
    83  H    0.067845
    84  H    0.069371
    85  H    0.079163
    86  H    0.069422
    87  H    0.134447
    88  H    0.113792
    89  H    0.115939
    90  H    0.114451
    91  H    0.110315
    92  H    0.121149
    93  H    0.075967
    94  H    0.070179
    95  H    0.077695
    96  H    0.071234
 Sum of Mulliken charges =  -0.00000

 Dipole moment (field-independent basis, Debye):
    X=             -1.3145    Y=              0.4596    Z=             -0.0461  Tot=              1.3933
 Quadrupole moment (field-independent basis, Debye-Ang):
   XX=           -222.3173   YY=           -235.3772   ZZ=           -254.9012
   XY=             -6.6057   XZ=             -1.0342   YZ=             -1.5253

 Normal termination of Gaussian 16 at Sat Jul 27 14:07:32 2019.
