 Gaussian 16, Revision A.03,
 Gaussian 16:  ES64L-G16RevA.03 25-Dec-2016

 ---------------------------------
 # td=(NStates=1) B3LYP/6-31G(d,p)
 ---------------------------------

 --
 TD
 --
 Symbolic Z-matrix:
 Charge =  0 Multiplicity = 1

                         Standard orientation:
 ---------------------------------------------------------------------
 Center     Atomic      Atomic             Coordinates (Angstroms)
 Number     Number       Type             X           Y           Z
 ---------------------------------------------------------------------
      1          6           0      -12.182556   -0.585331   -0.582130
      2          6           0       11.999472   -0.027974    0.888453
      3          6           0      -13.438422    0.258410   -0.551035
      4          6           0       12.933871   -1.285465    1.446934
      5          6           0      -13.104471    1.756099   -0.588426
      6          6           0       13.388158   -2.058999    0.274013
      7          6           0      -11.066269   -0.022700    0.310390
      8          6           0       10.925697   -0.389452   -0.117565
      9          6           0      -12.383287    2.162495    0.638546
     10          6           0       12.112209   -2.607271   -0.545664
     11          6           0      -11.127506    1.277257    0.866777
     12          6           0       11.065376   -1.573555   -0.869430
     13          6           0      -11.643874   -0.591381   -2.030601
     14          6           0      -12.650104   -2.014962   -0.165692
     15          6           0       12.895079    1.049702    0.433517
     16          6           0       11.479518    0.467366    2.250987
     17          6           0       -9.895734   -0.837489    0.453497
     18          6           0        9.890801    0.608520   -0.246028
     19          6           0      -10.118780    1.920407    1.873068
     20          6           0       10.168301   -1.996589   -1.964280
     21          6           0       -8.629945   -0.577714    0.288753
     22          6           0        8.563328    0.394923   -0.217633
     23          6           0       -7.371286   -1.372405    0.426009
     24          6           0        7.567790    1.340695   -0.399021
     25          6           0       -7.595774   -2.766322    0.706102
     26          6           0        8.023991    2.788924   -0.649417
     27          6           0       -6.174738   -0.717185    0.312710
     28          6           0        6.316867    0.929706   -0.345706
     29          6           0       -4.865752   -1.466687    0.444533
     30          6           0        5.059371    1.697042   -0.609410
     31          6           0       -3.623817   -0.772709    0.111225
     32          6           0        3.806009    1.212160   -0.402770
     33          6           0       -2.342505   -1.377225    0.143733
     34          6           0        2.543657    1.877962   -0.466604
     35          6           0       -2.286375   -2.801713    0.335909
     36          6           0        2.534019    3.409556   -0.582538
     37          6           0       -1.201922   -0.649714   -0.054953
     38          6           0        1.390292    1.070092   -0.289048
     39          6           0       -1.103991    0.836146   -0.219820
     40          6           0        0.085881    1.514252   -0.358305
     41          1           0      -13.944326    0.194109    0.446208
     42          1           0      -14.072754    0.156774   -1.476816
     43          1           0       12.374694   -1.817884    2.041617
     44          1           0       13.787393   -0.597792    1.771495
     45          1           0      -13.944444    2.529588   -0.704502
     46          1           0      -12.339231    1.987900   -1.460653
     47          1           0       13.912828   -2.890393    0.767267
     48          1           0       14.000329   -1.270779   -0.360500
     49          1           0      -12.901022    2.269115    1.558316
     50          1           0      -11.866471    3.138016    0.613124
     51          1           0       11.772301   -3.449274    0.057881
     52          1           0       12.415447   -3.069158   -1.423947
     53          1           0      -11.361767    0.611833   -2.412064
     54          1           0      -12.418022   -0.911076   -2.814112
     55          1           0      -10.813095   -1.196017   -2.027085
     56          1           0      -13.118052   -2.023243    0.716002
     57          1           0      -11.762805   -2.805491   -0.204546
     58          1           0      -13.536411   -2.343442   -0.763124
     59          1           0       13.551888    1.072750   -0.444861
     60          1           0       13.448530    1.427211    1.444284
     61          1           0       12.324477    2.040041    0.029766
     62          1           0       10.768808   -0.435646    2.690707
     63          1           0       10.732430    1.429726    2.167251
     64          1           0       12.129798    0.687654    3.033211
     65          1           0      -10.152870   -1.870928    0.633879
     66          1           0       10.148289    1.563148   -0.152963
     67          1           0       -9.496470    1.015314    2.241479
     68          1           0      -10.893373    2.306865    2.598404
     69          1           0       -9.504687    2.652822    1.426697
     70          1           0        9.495624   -1.410523   -2.342125
     71          1           0        9.605685   -3.006482   -1.905175
     72          1           0       10.762369   -2.144616   -2.941165
     73          1           0       -8.355624    0.418552   -0.013411
     74          1           0        8.169315   -0.494418   -0.356975
     75          1           0       -7.799103   -2.795832    1.738573
     76          1           0       -6.800686   -3.732306    0.415968
     77          1           0       -8.562544   -3.149371    0.128951
     78          1           0        8.278486    3.090900   -1.781067
     79          1           0        8.832938    3.017650    0.142128
     80          1           0        7.122062    3.582021   -0.536243
     81          1           0       -6.097701    0.339843    0.076232
     82          1           0        6.042645   -0.148316   -0.110954
     83          1           0       -4.819877   -2.511589    0.532879
     84          1           0        4.968856    2.734354   -0.771875
     85          1           0       -3.526518    0.346819   -0.058828
     86          1           0        3.820513   -0.013340   -0.110510
     87          1           0       -2.732102   -2.967952    1.249166
     88          1           0       -1.303679   -3.481651    0.342034
     89          1           0       -2.885690   -3.289858   -0.549473
     90          1           0        3.259031    3.855788   -1.530271
     91          1           0        2.685888    4.013819    0.524916
     92          1           0        1.602179    3.827214   -0.711399
     93          1           0       -0.352835   -1.003222   -0.116351
     94          1           0        1.514185    0.031073    0.177909
     95          1           0       -1.761625    1.550563   -0.460230
     96          1           0       -0.058686    2.465890   -0.719588
 ---------------------------------------------------------------------

 SCF Done:  E(RB3LYP) =  -1557.49288096     A.U. after   16 cycles

 Excitation energies and oscillator strengths:

 Excited State   1:      Singlet-A      2.1684 eV  571.77 nm  f=2.9349  <S**2>=0.000
     148 ->149         0.70547
     148 <-149        -0.10078
 This state for optimization and/or second-order correction.
 Total Energy, E(TD-HF/TD-DFT) =  -1557.41319235
 Copying the excited state density for this state as the 1-particle RhoCI density.

 The electronic state is 1-A.
 Alpha  occ. eigenvalues --  -10.21546 -10.21197 -10.20632 -10.20188 -10.20119
 Alpha  occ. eigenvalues --  -10.20114 -10.20052 -10.19686 -10.19666 -10.19663
 Alpha  occ. eigenvalues --  -10.19646 -10.19636 -10.19491 -10.19389 -10.19304
 Alpha  occ. eigenvalues --  -10.19091 -10.19061 -10.18910 -10.18698 -10.18657
 Alpha  occ. eigenvalues --  -10.18608 -10.18583 -10.18575 -10.18511 -10.18420
 Alpha  occ. eigenvalues --  -10.18335 -10.18334 -10.18330 -10.18208 -10.17893
 Alpha  occ. eigenvalues --  -10.17743 -10.17667 -10.17662 -10.17494 -10.17474
 Alpha  occ. eigenvalues --  -10.17425 -10.17267 -10.16897 -10.16860 -10.16171
 Alpha  occ. eigenvalues --   -0.85086  -0.84980  -0.83774  -0.83285  -0.82579
 Alpha  occ. eigenvalues --   -0.82006  -0.79116  -0.78490  -0.78283  -0.77789
 Alpha  occ. eigenvalues --   -0.77179  -0.74786  -0.73902  -0.72418  -0.71998
 Alpha  occ. eigenvalues --   -0.70050  -0.68485  -0.68416  -0.68052  -0.67701
 Alpha  occ. eigenvalues --   -0.67343  -0.67197  -0.66806  -0.66706  -0.66384
 Alpha  occ. eigenvalues --   -0.62960  -0.62349  -0.59788  -0.59352  -0.57002
 Alpha  occ. eigenvalues --   -0.56888  -0.56259  -0.55259  -0.53678  -0.52613
 Alpha  occ. eigenvalues --   -0.52338  -0.51908  -0.51306  -0.50229  -0.49450
 Alpha  occ. eigenvalues --   -0.48958  -0.47742  -0.47511  -0.46788  -0.46251
 Alpha  occ. eigenvalues --   -0.45793  -0.45606  -0.44906  -0.44764  -0.44422
 Alpha  occ. eigenvalues --   -0.43847  -0.43282  -0.43207  -0.42783  -0.42649
 Alpha  occ. eigenvalues --   -0.42384  -0.41826  -0.41795  -0.41045  -0.40768
 Alpha  occ. eigenvalues --   -0.40369  -0.39876  -0.39785  -0.39225  -0.39183
 Alpha  occ. eigenvalues --   -0.39025  -0.38870  -0.38520  -0.38321  -0.37653
 Alpha  occ. eigenvalues --   -0.37426  -0.37212  -0.37033  -0.36909  -0.36403
 Alpha  occ. eigenvalues --   -0.35912  -0.35616  -0.34933  -0.34904  -0.34735
 Alpha  occ. eigenvalues --   -0.34494  -0.34155  -0.34011  -0.33713  -0.33690
 Alpha  occ. eigenvalues --   -0.33360  -0.33281  -0.33126  -0.32753  -0.32515
 Alpha  occ. eigenvalues --   -0.32307  -0.32115  -0.32057  -0.31581  -0.31058
 Alpha  occ. eigenvalues --   -0.30764  -0.30600  -0.29688  -0.29068  -0.28627
 Alpha  occ. eigenvalues --   -0.28061  -0.26373  -0.26100  -0.24302  -0.22345
 Alpha  occ. eigenvalues --   -0.20719  -0.18861  -0.16431
 Alpha virt. eigenvalues --   -0.08245  -0.04992  -0.02085   0.00091   0.02551
 Alpha virt. eigenvalues --    0.03941   0.06321   0.06461   0.06781   0.07090
 Alpha virt. eigenvalues --    0.07137   0.07357   0.08336   0.08507   0.08815

 Mulliken charges:
               1
     1  C   -0.001652
     2  C   -0.036146
     3  C   -0.166231
     4  C   -0.138398
     5  C   -0.188794
     6  C   -0.188960
     7  C    0.077233
     8  C    0.077969
     9  C   -0.215235
    10  C   -0.225478
    11  C    0.021950
    12  C    0.073826
    13  C   -0.268729
    14  C   -0.301884
    15  C   -0.280980
    16  C   -0.277985
    17  C   -0.146561
    18  C   -0.126217
    19  C   -0.351606
    20  C   -0.364213
    21  C   -0.081922
    22  C   -0.060317
    23  C    0.148630
    24  C    0.169371
    25  C   -0.373574
    26  C   -0.367333
    27  C   -0.135526
    28  C   -0.160315
    29  C   -0.108090
    30  C   -0.080500
    31  C   -0.117664
    32  C   -0.090227
    33  C    0.150353
    34  C    0.103874
    35  C   -0.383048
    36  C   -0.352313
    37  C   -0.095700
    38  C   -0.102298
    39  C   -0.061484
    40  C   -0.125730
    41  H    0.090470
    42  H    0.094080
    43  H    0.097897
    44  H    0.087373
    45  H    0.077159
    46  H    0.082944
    47  H    0.086492
    48  H    0.083484
    49  H    0.107092
    50  H    0.095775
    51  H    0.104808
    52  H    0.105058
    53  H    0.062310
    54  H    0.089933
    55  H    0.116316
    56  H    0.118271
    57  H    0.080449
    58  H    0.094941
    59  H    0.107731
    60  H    0.079126
    61  H    0.071612
    62  H    0.066475
    63  H    0.064016
    64  H    0.116423
    65  H    0.067746
    66  H    0.070535
    67  H    0.114848
    68  H    0.104825
    69  H    0.128148
    70  H    0.125723
    71  H    0.098791
    72  H    0.090876
    73  H    0.067636
    74  H    0.066868
    75  H    0.144667
    76  H    0.078328
    77  H    0.102415
    78  H    0.110462
    79  H    0.117146
    80  H    0.088962
    81  H    0.087516
    82  H    0.076564
    83  H    0.094014
    84  H    0.072848
    85  H    0.081831
    86  H    0.042629
    87  H    0.136188
    88  H    0.092958
    89  H    0.106909
    90  H    0.091888
    91  H    0.096736
    92  H    0.129356
    93  H    0.053586
    94  H    0.086453
    95  H    0.072683
    96  H    0.071534
 Sum of Mulliken charges =  -0.00000

 Dipole moment (field-independent basis, Debye):
    X=             -1.1343    Y=              0.0857    Z=              0.1027  Tot=              1.1422
 Quadrupole moment (field-independent basis, Debye-Ang):
   XX=           -225.3730   YY=           -232.8776   ZZ=           -254.4553
   XY=             -2.4156   XZ=             -4.5432   YZ=             -3.0583

 Normal termination of Gaussian 16 at Tue Jul 23 06:21:41 2019.
