 Gaussian 16, Revision A.03,
 Gaussian 16:  ES64L-G16RevA.03 25-Dec-2016

 ---------------------------------
 # td=(NStates=1) B3LYP/6-31G(d,p)
 ---------------------------------

 --
 TD
 --
 Symbolic Z-matrix:
 Charge =  0 Multiplicity = 1

                         Standard orientation:
 ---------------------------------------------------------------------
 Center     Atomic      Atomic             Coordinates (Angstroms)
 Number     Number       Type             X           Y           Z
 ---------------------------------------------------------------------
      1          6           0       12.146202    0.531264   -0.787918
      2          6           0      -12.144773    0.023019    0.834842
      3          6           0       13.391766   -0.371176   -0.666923
      4          6           0      -13.013898    1.292462    1.175592
      5          6           0       13.096450   -1.805679   -0.714031
      6          6           0      -13.361914    2.038868   -0.090476
      7          6           0       11.055205    0.087379    0.199038
      8          6           0      -11.034146    0.400760   -0.100071
      9          6           0       12.377781   -2.111131    0.570011
     10          6           0      -12.008765    2.607451   -0.593911
     11          6           0       11.167059   -1.106055    0.862229
     12          6           0      -11.033468    1.533365   -0.848713
     13          6           0       11.579603    0.572795   -2.215076
     14          6           0       12.471064    2.120554   -0.580954
     15          6           0      -13.047545   -1.052686    0.064480
     16          6           0      -11.654245   -0.724170    2.016421
     17          6           0        9.856134    0.924463    0.384465
     18          6           0       -9.942295   -0.559814   -0.251209
     19          6           0       10.248867   -1.647992    1.898389
     20          6           0      -10.019531    2.061887   -1.707795
     21          6           0        8.591410    0.513148    0.328723
     22          6           0       -8.580521   -0.249932   -0.249167
     23          6           0        7.442788    1.259624    0.522222
     24          6           0       -7.415248   -1.337963   -0.382249
     25          6           0        7.572840    2.719880    0.963094
     26          6           0       -7.895850   -2.652298   -0.668317
     27          6           0        6.193697    0.665762    0.365142
     28          6           0       -6.167015   -0.858319   -0.242214
     29          6           0        4.832427    1.234308    0.557991
     30          6           0       -4.941840   -1.602705   -0.262998
     31          6           0        3.590347    0.596038    0.226850
     32          6           0       -3.727519   -1.103760   -0.209074
     33          6           0        2.319840    1.210654    0.320746
     34          6           0       -2.520923   -1.852566   -0.271619
     35          6           0        2.261911    2.719603    0.634056
     36          6           0       -2.516723   -3.308807   -0.552130
     37          6           0        1.208093    0.523329    0.240868
     38          6           0       -1.351013   -1.169741   -0.186459
     39          6           0        1.093100   -0.921242   -0.118246
     40          6           0       -0.022439   -1.683324   -0.249533
     41          1           0       14.021950   -0.212149    0.212896
     42          1           0       14.071920    0.047810   -1.644972
     43          1           0      -12.399137    2.036204    2.013387
     44          1           0      -13.977844    0.832751    1.883232
     45          1           0       14.048826   -2.251957   -0.744885
     46          1           0       12.503402   -2.033265   -1.806889
     47          1           0      -13.975830    2.892573    0.239953
     48          1           0      -13.783626    1.514992   -0.860929
     49          1           0       13.113434   -1.884782    1.465114
     50          1           0       12.007451   -3.078085    0.731951
     51          1           0      -11.642777    3.156418    0.197562
     52          1           0      -12.180095    3.344781   -1.533049
     53          1           0       11.280315   -0.313561   -2.422194
     54          1           0       12.313398    0.928077   -2.954823
     55          1           0       10.721988    1.183155   -2.248676
     56          1           0       12.841995    2.261056    0.417530
     57          1           0       11.635491    2.754028   -1.165732
     58          1           0       13.383575    2.399101   -1.209673
     59          1           0      -13.526373   -0.602143   -0.699791
     60          1           0      -13.956562   -1.400090    0.528593
     61          1           0      -12.321476   -1.842465   -0.171771
     62          1           0      -10.951946   -0.139309    2.667951
     63          1           0      -10.930240   -1.674529    1.776015
     64          1           0      -12.491730   -1.041613    2.549347
     65          1           0       10.279654    2.022234    0.626582
     66          1           0      -10.132915   -1.803448   -0.555525
     67          1           0        9.396406   -0.901144    2.192832
     68          1           0       10.849824   -1.735361    2.728941
     69          1           0        9.863999   -2.669082    1.536555
     70          1           0       -9.500098    1.074628   -2.220280
     71          1           0       -9.289062    2.789310   -1.202447
     72          1           0      -10.681189    2.457621   -2.448175
     73          1           0        8.385184   -0.543418   -0.223526
     74          1           0       -8.200007    0.717208    0.223954
     75          1           0        8.060991    2.910366    1.870967
     76          1           0        6.687829    3.382532    0.917214
     77          1           0        8.139069    3.022038    0.109219
     78          1           0       -8.569622   -2.685698   -1.677693
     79          1           0       -8.639766   -3.049988    0.081099
     80          1           0       -7.003022   -3.380339   -0.811116
     81          1           0        6.262019   -0.252744    0.122964
     82          1           0       -6.050693    0.164674    0.137080
     83          1           0        4.864651    2.360843    0.681342
     84          1           0       -5.243645   -2.629614   -0.524450
     85          1           0        3.693118   -0.406197   -0.016014
     86          1           0       -3.680937    0.024809   -0.095463
     87          1           0        2.836391    3.049090    1.463988
     88          1           0        1.197697    3.038947    0.716703
     89          1           0        2.978840    3.194633   -0.114130
     90          1           0       -3.441638   -3.398144   -1.446693
     91          1           0       -3.004745   -3.656917    0.361605
     92          1           0       -1.612656   -3.795845   -0.863634
     93          1           0        0.359152    1.102351    0.425980
     94          1           0       -1.500455   -0.081891   -0.235000
     95          1           0        2.052516   -1.584945    0.031223
     96          1           0        0.255543   -2.717042   -0.310716
 ---------------------------------------------------------------------

 SCF Done:  E(RB3LYP) =  -1557.55466843     A.U. after   15 cycles

 Excitation energies and oscillator strengths:

 Excited State   1:      Singlet-A      2.4057 eV  515.39 nm  f=2.8442  <S**2>=0.000
     148 ->149         0.70585
 This state for optimization and/or second-order correction.
 Total Energy, E(TD-HF/TD-DFT) =  -1557.46626231
 Copying the excited state density for this state as the 1-particle RhoCI density.

 The electronic state is 1-A.
 Alpha  occ. eigenvalues --  -10.21260 -10.20461 -10.20237 -10.20193 -10.20110
 Alpha  occ. eigenvalues --  -10.19892 -10.19865 -10.19694 -10.19687 -10.19578
 Alpha  occ. eigenvalues --  -10.19545 -10.19305 -10.19271 -10.19257 -10.19073
 Alpha  occ. eigenvalues --  -10.19071 -10.19055 -10.18961 -10.18902 -10.18752
 Alpha  occ. eigenvalues --  -10.18636 -10.18586 -10.18577 -10.18480 -10.18384
 Alpha  occ. eigenvalues --  -10.18178 -10.18166 -10.18162 -10.18083 -10.18014
 Alpha  occ. eigenvalues --  -10.17924 -10.17902 -10.17866 -10.17842 -10.17619
 Alpha  occ. eigenvalues --  -10.17616 -10.17358 -10.17160 -10.15991 -10.14864
 Alpha  occ. eigenvalues --   -0.85845  -0.84927  -0.84202  -0.83302  -0.82568
 Alpha  occ. eigenvalues --   -0.81749  -0.79588  -0.78600  -0.77952  -0.77905
 Alpha  occ. eigenvalues --   -0.77228  -0.75370  -0.74473  -0.72337  -0.72135
 Alpha  occ. eigenvalues --   -0.69777  -0.69201  -0.68746  -0.68149  -0.67995
 Alpha  occ. eigenvalues --   -0.67587  -0.67273  -0.66951  -0.66465  -0.65515
 Alpha  occ. eigenvalues --   -0.62670  -0.61600  -0.59508  -0.58873  -0.56607
 Alpha  occ. eigenvalues --   -0.56223  -0.55545  -0.54730  -0.53664  -0.53115
 Alpha  occ. eigenvalues --   -0.52304  -0.51591  -0.50417  -0.49332  -0.48767
 Alpha  occ. eigenvalues --   -0.48218  -0.47713  -0.47092  -0.46608  -0.46216
 Alpha  occ. eigenvalues --   -0.45675  -0.45605  -0.45002  -0.44364  -0.44190
 Alpha  occ. eigenvalues --   -0.43955  -0.43435  -0.43106  -0.42744  -0.42668
 Alpha  occ. eigenvalues --   -0.42495  -0.42249  -0.41605  -0.40979  -0.40700
 Alpha  occ. eigenvalues --   -0.40492  -0.40290  -0.39944  -0.39860  -0.39671
 Alpha  occ. eigenvalues --   -0.39026  -0.39019  -0.38742  -0.38676  -0.38350
 Alpha  occ. eigenvalues --   -0.38240  -0.37265  -0.37147  -0.36744  -0.36598
 Alpha  occ. eigenvalues --   -0.36411  -0.36083  -0.35708  -0.35662  -0.35144
 Alpha  occ. eigenvalues --   -0.35048  -0.34320  -0.34302  -0.34075  -0.33783
 Alpha  occ. eigenvalues --   -0.33336  -0.33182  -0.32794  -0.32571  -0.32477
 Alpha  occ. eigenvalues --   -0.32016  -0.31740  -0.31654  -0.31323  -0.31112
 Alpha  occ. eigenvalues --   -0.30771  -0.30158  -0.29715  -0.29097  -0.28272
 Alpha  occ. eigenvalues --   -0.27976  -0.26919  -0.25827  -0.23916  -0.22375
 Alpha  occ. eigenvalues --   -0.21078  -0.19022  -0.16909
 Alpha virt. eigenvalues --   -0.07509  -0.05020  -0.01537   0.00604   0.02114
 Alpha virt. eigenvalues --    0.04155   0.05170   0.06231   0.06715   0.07164
 Alpha virt. eigenvalues --    0.07207   0.07825   0.08023   0.08489   0.08526

 Mulliken charges:
               1
     1  C   -0.002031
     2  C   -0.011429
     3  C   -0.164655
     4  C   -0.155364
     5  C   -0.154714
     6  C   -0.177939
     7  C    0.073248
     8  C    0.107967
     9  C   -0.213189
    10  C   -0.221188
    11  C    0.038286
    12  C    0.059217
    13  C   -0.284996
    14  C   -0.319776
    15  C   -0.295740
    16  C   -0.281851
    17  C   -0.150875
    18  C   -0.143749
    19  C   -0.352686
    20  C   -0.334886
    21  C   -0.103528
    22  C   -0.103595
    23  C    0.121221
    24  C    0.144754
    25  C   -0.370587
    26  C   -0.394569
    27  C   -0.107216
    28  C   -0.123416
    29  C   -0.100870
    30  C   -0.074702
    31  C   -0.103641
    32  C   -0.111586
    33  C    0.150082
    34  C    0.135272
    35  C   -0.377789
    36  C   -0.349947
    37  C   -0.123734
    38  C   -0.122327
    39  C   -0.106162
    40  C   -0.087712
    41  H    0.092374
    42  H    0.044629
    43  H    0.057516
    44  H    0.044958
    45  H    0.103667
    46  H    0.069709
    47  H    0.091566
    48  H    0.115305
    49  H    0.089151
    50  H    0.101866
    51  H    0.124303
    52  H    0.067015
    53  H    0.102492
    54  H    0.093146
    55  H    0.105828
    56  H    0.106343
    57  H    0.096237
    58  H    0.088291
    59  H    0.100477
    60  H    0.092226
    61  H    0.103800
    62  H    0.090030
    63  H    0.077379
    64  H    0.104494
    65  H    0.090316
    66  H    0.054690
    67  H    0.110249
    68  H    0.121458
    69  H    0.102060
    70  H    0.091632
    71  H    0.113749
    72  H    0.107398
    73  H    0.080829
    74  H    0.078928
    75  H    0.128114
    76  H    0.101837
    77  H    0.127147
    78  H    0.109758
    79  H    0.131984
    80  H    0.097996
    81  H    0.048702
    82  H    0.069039
    83  H    0.062531
    84  H    0.065203
    85  H    0.079464
    86  H    0.078526
    87  H    0.129521
    88  H    0.103290
    89  H    0.112855
    90  H    0.080354
    91  H    0.131221
    92  H    0.121167
    93  H    0.070300
    94  H    0.078453
    95  H    0.074145
    96  H    0.080688
 Sum of Mulliken charges =  -0.00000

 Dipole moment (field-independent basis, Debye):
    X=              0.6646    Y=             -0.0076    Z=              0.2876  Tot=              0.7242
 Quadrupole moment (field-independent basis, Debye-Ang):
   XX=           -217.6636   YY=           -235.8457   ZZ=           -256.6843
   XY=             -5.8784   XZ=              4.8538   YZ=              2.4402

 Normal termination of Gaussian 16 at Sat Jul 27 09:01:51 2019.
