 Gaussian 16, Revision A.03,
 Gaussian 16:  ES64L-G16RevA.03 25-Dec-2016

 ---------------------------------
 # td=(NStates=1) B3LYP/6-31G(d,p)
 ---------------------------------

 --
 TD
 --
 Symbolic Z-matrix:
 Charge =  0 Multiplicity = 1

                         Standard orientation:
 ---------------------------------------------------------------------
 Center     Atomic      Atomic             Coordinates (Angstroms)
 Number     Number       Type             X           Y           Z
 ---------------------------------------------------------------------
      1          6           0      -11.950990   -0.628946   -0.732216
      2          6           0       12.067705   -0.022790    0.854931
      3          6           0      -13.304319    0.024160   -0.611315
      4          6           0       12.985038   -1.209069    1.266518
      5          6           0      -13.328095    1.573317   -0.692936
      6          6           0       13.237651   -2.163947    0.157056
      7          6           0      -10.938756   -0.038155    0.234829
      8          6           0       10.923791   -0.535576   -0.097811
      9          6           0      -12.449343    2.058673    0.481241
     10          6           0       12.024708   -2.631190   -0.650331
     11          6           0      -11.260072    1.231040    0.770557
     12          6           0       10.922476   -1.650507   -0.801523
     13          6           0      -11.504118   -0.618922   -2.151314
     14          6           0      -12.238126   -2.113469   -0.402311
     15          6           0       12.980247    1.029961    0.106389
     16          6           0       11.594176    0.720467    2.170467
     17          6           0       -9.757107   -0.816382    0.475840
     18          6           0        9.853817    0.419040   -0.176471
     19          6           0      -10.404095    1.869240    1.890535
     20          6           0        9.851931   -2.021371   -1.725099
     21          6           0       -8.406670   -0.439060    0.481027
     22          6           0        8.530846    0.244620   -0.324685
     23          6           0       -7.258674   -1.343120    0.586932
     24          6           0        7.390681    1.308138   -0.436768
     25          6           0       -7.467869   -2.788470    0.861505
     26          6           0        7.823690    2.651091   -0.758375
     27          6           0       -6.072085   -0.722287    0.390945
     28          6           0        6.116494    0.937736   -0.226501
     29          6           0       -4.708230   -1.428487    0.412179
     30          6           0        4.966396    1.727464   -0.390211
     31          6           0       -3.564051   -0.681753    0.081918
     32          6           0        3.711031    1.299734   -0.330728
     33          6           0       -2.309948   -1.274724    0.224593
     34          6           0        2.439582    1.995851   -0.450496
     35          6           0       -2.141186   -2.720975    0.609416
     36          6           0        2.512940    3.484277   -0.405536
     37          6           0       -1.198075   -0.429924    0.019989
     38          6           0        1.276594    1.296618   -0.367513
     39          6           0       -1.127100    0.952496   -0.186524
     40          6           0       -0.007990    1.703865   -0.323032
     41          1           0      -13.678505   -0.350220    0.415554
     42          1           0      -13.843977   -0.454118   -1.437873
     43          1           0       12.550727   -1.504068    2.296929
     44          1           0       14.061353   -0.734615    1.363484
     45          1           0      -14.465511    2.056731   -0.713590
     46          1           0      -13.004225    1.921058   -1.675820
     47          1           0       13.676746   -2.982218    0.474298
     48          1           0       13.863637   -1.564057   -0.581518
     49          1           0      -13.041268    2.180824    1.526837
     50          1           0      -12.191738    3.204949    0.335901
     51          1           0       11.808005   -3.498950    0.080749
     52          1           0       12.411618   -2.847839   -1.722116
     53          1           0      -10.798063    0.310189   -2.506489
     54          1           0      -12.267578   -0.802263   -2.707719
     55          1           0      -10.622007   -1.241628   -2.206413
     56          1           0      -12.479658   -2.040351    0.641555
     57          1           0      -11.399466   -2.696883   -0.498224
     58          1           0      -13.273422   -2.499454   -0.890149
     59          1           0       13.280808    0.593142   -0.776838
     60          1           0       13.871206    1.324281    0.959440
     61          1           0       12.566677    1.959334    0.116371
     62          1           0       10.736151    0.070779    2.672854
     63          1           0       11.034189    1.463957    1.964706
     64          1           0       12.541728    0.787765    2.867796
     65          1           0       -9.840746   -1.890060    0.638203
     66          1           0       10.090841    1.429176   -0.135621
     67          1           0       -9.661753    1.291106    2.402336
     68          1           0      -11.096109    2.322778    2.561719
     69          1           0       -9.736999    2.598673    1.513531
     70          1           0        9.195401   -1.185893   -2.330404
     71          1           0        9.051089   -2.595707   -1.168572
     72          1           0       10.254604   -2.774571   -2.674955
     73          1           0       -8.082458    0.622438    0.172903
     74          1           0        8.216181   -0.814254   -0.254500
     75          1           0       -8.103091   -2.930603    1.700439
     76          1           0       -6.591006   -3.270271    1.183919
     77          1           0       -7.790209   -3.174419   -0.172206
     78          1           0        8.393663    2.839435   -1.559982
     79          1           0        8.503315    3.062402    0.023561
     80          1           0        7.113864    3.453292   -0.800321
     81          1           0       -6.065379    0.329599    0.533429
     82          1           0        5.771513   -0.203706   -0.217344
     83          1           0       -4.755811   -2.546356    0.578690
     84          1           0        4.723051    3.019229   -0.429157
     85          1           0       -3.682954    0.346721   -0.439752
     86          1           0        3.508813    0.160523   -0.255384
     87          1           0       -2.346980   -3.061505    1.726453
     88          1           0       -1.111043   -2.986136    0.485428
     89          1           0       -2.814345   -3.379664   -0.009397
     90          1           0        3.023211    3.946805   -1.294922
     91          1           0        2.913421    3.889580    0.588355
     92          1           0        1.578207    3.890866   -0.623595
     93          1           0       -0.246735   -0.967778    0.331503
     94          1           0        1.565437    0.228621   -0.178097
     95          1           0       -2.095878    1.458638   -0.387001
     96          1           0       -0.095921    2.742703   -0.520013
 ---------------------------------------------------------------------

 SCF Done:  E(RB3LYP) =  -1557.55865419     A.U. after   15 cycles

 Excitation energies and oscillator strengths:

 Excited State   1:      Singlet-A      2.1393 eV  579.55 nm  f=3.0806  <S**2>=0.000
     148 ->149         0.70532
     148 <-149        -0.11312
 This state for optimization and/or second-order correction.
 Total Energy, E(TD-HF/TD-DFT) =  -1557.48003546
 Copying the excited state density for this state as the 1-particle RhoCI density.

 The electronic state is 1-A.
 Alpha  occ. eigenvalues --  -10.20663 -10.20458 -10.20313 -10.20199 -10.20109
 Alpha  occ. eigenvalues --  -10.19972 -10.19889 -10.19709 -10.19655 -10.19641
 Alpha  occ. eigenvalues --  -10.19616 -10.19541 -10.19534 -10.19518 -10.19516
 Alpha  occ. eigenvalues --  -10.19055 -10.18988 -10.18862 -10.18836 -10.18810
 Alpha  occ. eigenvalues --  -10.18783 -10.18550 -10.18531 -10.18528 -10.18472
 Alpha  occ. eigenvalues --  -10.18439 -10.18418 -10.18251 -10.18139 -10.18019
 Alpha  occ. eigenvalues --  -10.17935 -10.17740 -10.17615 -10.17505 -10.17266
 Alpha  occ. eigenvalues --  -10.17041 -10.16904 -10.16870 -10.16420 -10.15921
 Alpha  occ. eigenvalues --   -0.85339  -0.85309  -0.84246  -0.83189  -0.82439
 Alpha  occ. eigenvalues --   -0.81836  -0.79398  -0.78816  -0.78636  -0.78043
 Alpha  occ. eigenvalues --   -0.76626  -0.75523  -0.73681  -0.72906  -0.72077
 Alpha  occ. eigenvalues --   -0.70874  -0.69617  -0.69395  -0.68520  -0.68033
 Alpha  occ. eigenvalues --   -0.67757  -0.67444  -0.66792  -0.66644  -0.66370
 Alpha  occ. eigenvalues --   -0.63077  -0.61712  -0.60244  -0.59046  -0.57292
 Alpha  occ. eigenvalues --   -0.56060  -0.55585  -0.54785  -0.53392  -0.52653
 Alpha  occ. eigenvalues --   -0.52148  -0.51164  -0.50184  -0.50025  -0.49008
 Alpha  occ. eigenvalues --   -0.48467  -0.48171  -0.47330  -0.47170  -0.46626
 Alpha  occ. eigenvalues --   -0.46068  -0.45636  -0.45355  -0.44615  -0.44140
 Alpha  occ. eigenvalues --   -0.43758  -0.43623  -0.43339  -0.42981  -0.42879
 Alpha  occ. eigenvalues --   -0.42597  -0.42299  -0.41882  -0.41552  -0.41178
 Alpha  occ. eigenvalues --   -0.40815  -0.40656  -0.40522  -0.40008  -0.39657
 Alpha  occ. eigenvalues --   -0.39164  -0.39135  -0.38572  -0.38118  -0.37905
 Alpha  occ. eigenvalues --   -0.37614  -0.37489  -0.37259  -0.37005  -0.36857
 Alpha  occ. eigenvalues --   -0.36225  -0.35747  -0.35539  -0.35082  -0.34991
 Alpha  occ. eigenvalues --   -0.34668  -0.34470  -0.34188  -0.33975  -0.33859
 Alpha  occ. eigenvalues --   -0.33796  -0.33422  -0.32632  -0.32367  -0.32255
 Alpha  occ. eigenvalues --   -0.31746  -0.31679  -0.31189  -0.30846  -0.30811
 Alpha  occ. eigenvalues --   -0.30586  -0.29837  -0.29338  -0.28975  -0.28709
 Alpha  occ. eigenvalues --   -0.28461  -0.27655  -0.26482  -0.24506  -0.22811
 Alpha  occ. eigenvalues --   -0.20884  -0.19074  -0.16261
 Alpha virt. eigenvalues --   -0.08393  -0.04686  -0.02196   0.00337   0.02553
 Alpha virt. eigenvalues --    0.04147   0.05942   0.06038   0.06377   0.07187
 Alpha virt. eigenvalues --    0.07298   0.07943   0.08003   0.08446   0.08974

 Mulliken charges:
               1
     1  C   -0.030470
     2  C   -0.018131
     3  C   -0.166945
     4  C   -0.172188
     5  C   -0.178904
     6  C   -0.178917
     7  C    0.087842
     8  C    0.094890
     9  C   -0.223554
    10  C   -0.222353
    11  C    0.072107
    12  C    0.103068
    13  C   -0.255362
    14  C   -0.296955
    15  C   -0.274569
    16  C   -0.294531
    17  C   -0.164865
    18  C   -0.117093
    19  C   -0.362362
    20  C   -0.364478
    21  C   -0.100895
    22  C   -0.118094
    23  C    0.124180
    24  C    0.132036
    25  C   -0.371107
    26  C   -0.392079
    27  C   -0.144808
    28  C   -0.159627
    29  C   -0.119448
    30  C   -0.049673
    31  C   -0.104652
    32  C   -0.104831
    33  C    0.128064
    34  C    0.127463
    35  C   -0.372025
    36  C   -0.399298
    37  C   -0.128699
    38  C   -0.082326
    39  C   -0.070096
    40  C   -0.101898
    41  H    0.080551
    42  H    0.077403
    43  H    0.083985
    44  H    0.078400
    45  H    0.063545
    46  H    0.110847
    47  H    0.102774
    48  H    0.084852
    49  H    0.091402
    50  H    0.093582
    51  H    0.097251
    52  H    0.092984
    53  H    0.065725
    54  H    0.101004
    55  H    0.101150
    56  H    0.105229
    57  H    0.105619
    58  H    0.079661
    59  H    0.111410
    60  H    0.054930
    61  H    0.113108
    62  H    0.077555
    63  H    0.110369
    64  H    0.098273
    65  H    0.083838
    66  H    0.069180
    67  H    0.115376
    68  H    0.102182
    69  H    0.116709
    70  H    0.110838
    71  H    0.121787
    72  H    0.059160
    73  H    0.072721
    74  H    0.068247
    75  H    0.130944
    76  H    0.113161
    77  H    0.124315
    78  H    0.136913
    79  H    0.108149
    80  H    0.117146
    81  H    0.088194
    82  H    0.084098
    83  H    0.089246
    84  H    0.054417
    85  H    0.095299
    86  H    0.046722
    87  H    0.107104
    88  H    0.116568
    89  H    0.116289
    90  H    0.115857
    91  H    0.129127
    92  H    0.111227
    93  H    0.067753
    94  H    0.067828
    95  H    0.073809
    96  H    0.075770
 Sum of Mulliken charges =  -0.00000

 Dipole moment (field-independent basis, Debye):
    X=              0.1003    Y=              0.0816    Z=              0.1564  Tot=              0.2030
 Quadrupole moment (field-independent basis, Debye-Ang):
   XX=           -238.8372   YY=           -232.8336   ZZ=           -255.1869
   XY=              3.4146   XZ=             -1.2900   YZ=             -3.7559

 Normal termination of Gaussian 16 at Mon Jul 29 12:11:45 2019.
