 Gaussian 16, Revision A.03,
 Gaussian 16:  ES64L-G16RevA.03 25-Dec-2016

 ---------------------------------
 # td=(NStates=1) B3LYP/6-31G(d,p)
 ---------------------------------

 --
 TD
 --
 Symbolic Z-matrix:
 Charge =  0 Multiplicity = 1

                         Standard orientation:
 ---------------------------------------------------------------------
 Center     Atomic      Atomic             Coordinates (Angstroms)
 Number     Number       Type             X           Y           Z
 ---------------------------------------------------------------------
      1          6           0       12.174701    0.534145   -0.546768
      2          6           0      -12.031160   -0.063046    0.939458
      3          6           0       13.339077   -0.351245   -0.420204
      4          6           0      -12.852553    1.192796    1.426382
      5          6           0       13.083667   -1.848561   -0.546467
      6          6           0      -13.315967    2.080945    0.375071
      7          6           0       11.019097    0.000817    0.359693
      8          6           0      -10.869193    0.522170   -0.030264
      9          6           0       12.199911   -2.240428    0.647976
     10          6           0      -12.167576    2.622167   -0.564459
     11          6           0       10.971577   -1.291296    0.903886
     12          6           0      -11.004847    1.638335   -0.781317
     13          6           0       11.651004    0.571491   -2.090438
     14          6           0       12.645759    1.916481   -0.183303
     15          6           0      -12.868526   -1.140557    0.422320
     16          6           0      -11.301434   -0.619468    2.184544
     17          6           0        9.802103    0.909769    0.448667
     18          6           0       -9.866304   -0.454398   -0.399691
     19          6           0        9.922460   -1.767910    1.801600
     20          6           0       -9.982401    2.054185   -1.825274
     21          6           0        8.466098    0.512024    0.187642
     22          6           0       -8.476772   -0.347993   -0.344985
     23          6           0        7.385476    1.497852    0.367236
     24          6           0       -7.540111   -1.382080   -0.514008
     25          6           0        7.632102    3.017941    0.654763
     26          6           0       -7.954433   -2.833876   -0.628959
     27          6           0        6.192390    0.803913    0.359882
     28          6           0       -6.237423   -0.952838   -0.457073
     29          6           0        4.861880    1.490874    0.365181
     30          6           0       -5.008294   -1.667127   -0.488397
     31          6           0        3.726890    0.769299    0.234527
     32          6           0       -3.737025   -1.112726   -0.409585
     33          6           0        2.285704    1.349626    0.088163
     34          6           0       -2.567529   -1.900809   -0.511507
     35          6           0        2.130817    2.860659    0.263360
     36          6           0       -2.559729   -3.331589   -0.766108
     37          6           0        1.149836    0.525740    0.047140
     38          6           0       -1.355137   -1.197464   -0.261351
     39          6           0        1.115383   -0.877457   -0.105902
     40          6           0        0.047224   -1.677205   -0.203988
     41          1           0       13.876487   -0.191962    0.648344
     42          1           0       14.236328    0.117271   -1.095224
     43          1           0      -12.220299    1.818203    2.046275
     44          1           0      -13.787167    0.833913    2.002470
     45          1           0       14.043347   -2.356296   -0.516896
     46          1           0       12.501203   -1.736494   -1.492991
     47          1           0      -14.069615    3.010941    0.757126
     48          1           0      -14.019673    1.747201   -0.284921
     49          1           0       12.697045   -2.361737    1.689114
     50          1           0       11.890413   -3.363689    0.427827
     51          1           0      -11.699975    3.559960   -0.106166
     52          1           0      -12.404053    2.938998   -1.467951
     53          1           0       11.388089   -0.429332   -2.411941
     54          1           0       12.410694    0.756433   -2.816653
     55          1           0       10.661980    1.148592   -2.301304
     56          1           0       12.783507    2.024451    0.870731
     57          1           0       11.987904    2.725314   -0.443645
     58          1           0       13.838748    2.167305   -0.700808
     59          1           0      -13.422136   -1.007824   -0.634933
     60          1           0      -13.572520   -1.520323    1.055239
     61          1           0      -12.480466   -1.976450    0.007347
     62          1           0      -10.718158   -0.063282    2.688746
     63          1           0      -10.882940   -1.476449    1.625209
     64          1           0      -12.055135   -0.843704    2.907455
     65          1           0       10.045194    1.947458    0.695153
     66          1           0      -10.361389   -1.531777   -0.220120
     67          1           0        9.323644   -0.934421    2.068472
     68          1           0       10.288238   -2.380728    2.716034
     69          1           0        9.348049   -2.551552    1.291929
     70          1           0       -9.312119    1.059154   -2.045468
     71          1           0       -9.139434    2.848212   -1.450887
     72          1           0      -10.595942    2.354424   -2.761627
     73          1           0        8.273532   -0.477821   -0.158177
     74          1           0       -8.242104    0.723431    0.039792
     75          1           0        8.153408    2.856267    1.493471
     76          1           0        6.641147    3.589492    0.475716
     77          1           0        8.257511    3.403706   -0.186063
     78          1           0       -8.662947   -3.201681   -1.466245
     79          1           0       -8.445194   -3.086663    0.310381
     80          1           0       -7.047967   -3.401780   -0.867996
     81          1           0        6.184255   -0.239306   -0.063251
     82          1           0       -6.134029    0.106165   -0.403144
     83          1           0        4.942176    2.387007    0.437125
     84          1           0       -5.147658   -2.740371   -0.460351
     85          1           0        3.833611   -0.376966    0.181989
     86          1           0       -3.617508    0.072785   -0.530273
     87          1           0        2.555687    3.130722    1.161999
     88          1           0        1.022319    3.080666    0.242313
     89          1           0        2.665230    3.387442   -0.589439
     90          1           0       -3.229427   -3.750128   -1.414418
     91          1           0       -2.679910   -3.750424    0.331109
     92          1           0       -1.487030   -3.579952   -0.966761
     93          1           0        0.195216    1.123623   -0.039666
     94          1           0       -1.546746    0.028564    0.088476
     95          1           0        2.115765   -1.660755   -0.009868
     96          1           0        0.180357   -2.834803   -0.337316
 ---------------------------------------------------------------------

 SCF Done:  E(RB3LYP) =  -1557.52340382     A.U. after   16 cycles

 Excitation energies and oscillator strengths:

 Excited State   1:      Singlet-A      2.2042 eV  562.50 nm  f=2.8607  <S**2>=0.000
     148 ->149         0.69640
     148 ->150        -0.10258
 This state for optimization and/or second-order correction.
 Total Energy, E(TD-HF/TD-DFT) =  -1557.44240178
 Copying the excited state density for this state as the 1-particle RhoCI density.

 The electronic state is 1-A.
 Alpha  occ. eigenvalues --  -10.21273 -10.20638 -10.20632 -10.20393 -10.20389
 Alpha  occ. eigenvalues --  -10.20228 -10.20135 -10.20035 -10.19994 -10.19969
 Alpha  occ. eigenvalues --  -10.19929 -10.19802 -10.19749 -10.19719 -10.19698
 Alpha  occ. eigenvalues --  -10.19603 -10.19497 -10.19313 -10.19245 -10.19131
 Alpha  occ. eigenvalues --  -10.19047 -10.18953 -10.18933 -10.18870 -10.18781
 Alpha  occ. eigenvalues --  -10.18730 -10.18647 -10.18617 -10.18475 -10.18163
 Alpha  occ. eigenvalues --  -10.18045 -10.18019 -10.17980 -10.17800 -10.17656
 Alpha  occ. eigenvalues --  -10.17585 -10.17499 -10.17455 -10.16540 -10.15093
 Alpha  occ. eigenvalues --   -0.84607  -0.84521  -0.83369  -0.82687  -0.82101
 Alpha  occ. eigenvalues --   -0.81093  -0.78903  -0.78598  -0.78080  -0.77249
 Alpha  occ. eigenvalues --   -0.76366  -0.75217  -0.74533  -0.71965  -0.71816
 Alpha  occ. eigenvalues --   -0.69718  -0.69640  -0.69454  -0.68972  -0.67964
 Alpha  occ. eigenvalues --   -0.67860  -0.66776  -0.66549  -0.65754  -0.65467
 Alpha  occ. eigenvalues --   -0.62293  -0.61491  -0.59388  -0.58806  -0.56908
 Alpha  occ. eigenvalues --   -0.56320  -0.55692  -0.54459  -0.54141  -0.52848
 Alpha  occ. eigenvalues --   -0.52439  -0.51860  -0.49894  -0.48961  -0.48584
 Alpha  occ. eigenvalues --   -0.48226  -0.47030  -0.46706  -0.46613  -0.46208
 Alpha  occ. eigenvalues --   -0.45956  -0.45422  -0.44880  -0.44382  -0.44119
 Alpha  occ. eigenvalues --   -0.44024  -0.43259  -0.42464  -0.42256  -0.42182
 Alpha  occ. eigenvalues --   -0.41959  -0.41751  -0.41482  -0.41328  -0.40984
 Alpha  occ. eigenvalues --   -0.40769  -0.40545  -0.40222  -0.39848  -0.39645
 Alpha  occ. eigenvalues --   -0.39254  -0.38616  -0.38458  -0.38371  -0.38024
 Alpha  occ. eigenvalues --   -0.37329  -0.37184  -0.37018  -0.36703  -0.36493
 Alpha  occ. eigenvalues --   -0.36112  -0.35969  -0.35878  -0.35823  -0.35174
 Alpha  occ. eigenvalues --   -0.34942  -0.34661  -0.34567  -0.34221  -0.34013
 Alpha  occ. eigenvalues --   -0.33894  -0.33208  -0.33060  -0.32852  -0.32567
 Alpha  occ. eigenvalues --   -0.32493  -0.31790  -0.31473  -0.30527  -0.30438
 Alpha  occ. eigenvalues --   -0.30101  -0.29546  -0.29218  -0.28712  -0.28286
 Alpha  occ. eigenvalues --   -0.27903  -0.27094  -0.25807  -0.24093  -0.22647
 Alpha  occ. eigenvalues --   -0.20761  -0.18631  -0.16221
 Alpha virt. eigenvalues --   -0.07919  -0.04998  -0.02018   0.00571   0.02372
 Alpha virt. eigenvalues --    0.03766   0.04766   0.05452   0.06134   0.06898
 Alpha virt. eigenvalues --    0.07367   0.07633   0.08336   0.08612   0.08639

 Mulliken charges:
               1
     1  C    0.032269
     2  C   -0.029167
     3  C   -0.163588
     4  C   -0.164391
     5  C   -0.180972
     6  C   -0.171578
     7  C    0.041907
     8  C    0.071078
     9  C   -0.211753
    10  C   -0.207829
    11  C    0.076693
    12  C    0.065488
    13  C   -0.317602
    14  C   -0.282826
    15  C   -0.301391
    16  C   -0.257975
    17  C   -0.175417
    18  C   -0.172480
    19  C   -0.367080
    20  C   -0.351696
    21  C   -0.076952
    22  C   -0.110371
    23  C    0.072347
    24  C    0.127097
    25  C   -0.356054
    26  C   -0.372055
    27  C   -0.140369
    28  C   -0.106330
    29  C   -0.009575
    30  C   -0.100584
    31  C   -0.112605
    32  C   -0.113570
    33  C    0.078284
    34  C    0.133175
    35  C   -0.365949
    36  C   -0.365364
    37  C   -0.129447
    38  C   -0.118992
    39  C   -0.050050
    40  C   -0.111935
    41  H    0.062032
    42  H    0.056534
    43  H    0.099168
    44  H    0.074564
    45  H    0.100860
    46  H    0.105233
    47  H    0.043306
    48  H    0.113548
    49  H    0.097320
    50  H    0.077275
    51  H    0.093807
    52  H    0.101167
    53  H    0.100219
    54  H    0.107385
    55  H    0.098050
    56  H    0.109858
    57  H    0.101050
    58  H    0.051891
    59  H    0.071815
    60  H    0.115036
    61  H    0.114885
    62  H    0.106433
    63  H    0.086514
    64  H    0.087730
    65  H    0.078848
    66  H    0.058520
    67  H    0.129265
    68  H    0.093428
    69  H    0.113799
    70  H    0.109094
    71  H    0.096305
    72  H    0.095652
    73  H    0.099727
    74  H    0.092654
    75  H    0.152909
    76  H    0.116592
    77  H    0.128720
    78  H    0.111643
    79  H    0.131340
    80  H    0.108192
    81  H    0.080796
    82  H    0.071372
    83  H    0.029037
    84  H    0.074422
    85  H    0.075796
    86  H    0.080599
    87  H    0.138145
    88  H    0.103362
    89  H    0.112573
    90  H    0.127620
    91  H    0.117667
    92  H    0.111553
    93  H    0.084340
    94  H    0.052928
    95  H    0.064760
    96  H    0.080274
 Sum of Mulliken charges =  -0.00000

 Dipole moment (field-independent basis, Debye):
    X=              0.2093    Y=             -0.3166    Z=              0.0924  Tot=              0.3906
 Quadrupole moment (field-independent basis, Debye-Ang):
   XX=           -237.8048   YY=           -232.8708   ZZ=           -256.1452
   XY=              7.1695   XZ=              0.0402   YZ=              1.8210

 Normal termination of Gaussian 16 at Fri Jul 26 15:03:11 2019.
