 Gaussian 16, Revision A.03,
 Gaussian 16:  ES64L-G16RevA.03 25-Dec-2016

 ---------------------------------
 # td=(NStates=1) B3LYP/6-31G(d,p)
 ---------------------------------

 --
 TD
 --
 Symbolic Z-matrix:
 Charge =  0 Multiplicity = 1

                         Standard orientation:
 ---------------------------------------------------------------------
 Center     Atomic      Atomic             Coordinates (Angstroms)
 Number     Number       Type             X           Y           Z
 ---------------------------------------------------------------------
      1          6           0      -11.977052   -0.572619   -0.771748
      2          6           0       11.927734   -0.143914    1.021318
      3          6           0      -13.335074    0.132583   -0.650219
      4          6           0       12.811445   -1.325416    1.325206
      5          6           0      -13.128211    1.633973   -0.575017
      6          6           0       13.244823   -2.219542    0.240277
      7          6           0      -11.027684   -0.019725    0.200423
      8          6           0       10.984513   -0.471135   -0.071784
      9          6           0      -12.219216    1.979706    0.640522
     10          6           0       12.094711   -2.709377   -0.603294
     11          6           0      -11.055769    1.160411    0.952377
     12          6           0       10.999815   -1.573543   -0.899414
     13          6           0      -11.476820   -0.488039   -2.214096
     14          6           0      -12.422735   -2.115589   -0.611487
     15          6           0       12.880422    0.981946    0.382420
     16          6           0       11.248836    0.413492    2.213642
     17          6           0       -9.867266   -0.921469    0.481716
     18          6           0        9.878079    0.549696   -0.269891
     19          6           0      -10.196429    1.677236    2.078744
     20          6           0       10.107734   -1.925363   -1.954407
     21          6           0       -8.541516   -0.454333    0.539616
     22          6           0        8.525560    0.317181   -0.406289
     23          6           0       -7.340281   -1.385398    0.576929
     24          6           0        7.458966    1.290879   -0.527850
     25          6           0       -7.550981   -2.794153    0.734750
     26          6           0        7.879625    2.735837   -0.783401
     27          6           0       -6.076109   -0.674512    0.466626
     28          6           0        6.100666    1.015869   -0.288024
     29          6           0       -4.836165   -1.284161    0.402742
     30          6           0        5.021965    1.857797   -0.505800
     31          6           0       -3.637216   -0.601800    0.159098
     32          6           0        3.796767    1.270962   -0.310312
     33          6           0       -2.359286   -1.146821    0.251523
     34          6           0        2.484156    1.974156   -0.349982
     35          6           0       -2.222075   -2.617512    0.492090
     36          6           0        2.523280    3.448696   -0.465576
     37          6           0       -1.200564   -0.485231    0.140966
     38          6           0        1.364764    1.234767   -0.276998
     39          6           0       -1.083367    0.904508   -0.258510
     40          6           0        0.011308    1.689124   -0.383971
     41          1           0      -13.970184   -0.157153    0.129567
     42          1           0      -13.862088   -0.070870   -1.759269
     43          1           0       12.110454   -1.728323    1.960583
     44          1           0       13.480764   -0.942761    2.097609
     45          1           0      -14.202418    2.074379   -0.586033
     46          1           0      -12.312242    1.651075   -1.462985
     47          1           0       14.059200   -3.024363    0.514533
     48          1           0       13.888024   -1.506172   -0.547008
     49          1           0      -12.853080    2.331907    1.623378
     50          1           0      -11.931844    3.077048    0.470159
     51          1           0       11.707957   -3.518192   -0.096897
     52          1           0       12.476498   -2.981083   -1.619093
     53          1           0      -11.279341    0.682227   -2.468273
     54          1           0      -12.183926   -0.956333   -2.859696
     55          1           0      -10.598638   -1.064713   -2.314085
     56          1           0      -12.838341   -2.458851    0.358854
     57          1           0      -11.447040   -2.703310   -0.753235
     58          1           0      -13.232984   -2.482296   -1.403479
     59          1           0       13.119911    0.707283   -0.664110
     60          1           0       13.704053    1.114311    1.171217
     61          1           0       12.586978    2.165361    0.374459
     62          1           0       10.516550   -0.208260    2.886178
     63          1           0       10.656672    1.183235    2.007942
     64          1           0       11.713128    0.783018    2.972277
     65          1           0       -9.923633   -2.147553    0.780047
     66          1           0       10.230699    1.539037   -0.279979
     67          1           0       -9.523118    0.819866    2.287500
     68          1           0      -10.668675    1.941778    3.050067
     69          1           0       -9.522807    2.411468    1.728776
     70          1           0        9.241184   -1.108101   -2.049968
     71          1           0        9.588680   -3.033313   -1.676794
     72          1           0       10.784836   -1.930747   -3.040032
     73          1           0       -8.236148    0.518748   -0.020931
     74          1           0        8.195663   -0.767556   -0.471213
     75          1           0       -8.140880   -2.838816    1.617270
     76          1           0       -6.500029   -3.226193    0.889208
     77          1           0       -7.870302   -3.342348   -0.105036
     78          1           0        9.036884    2.798707   -1.338660
     79          1           0        8.146079    3.427807    0.476207
     80          1           0        7.121827    3.400762   -1.663497
     81          1           0       -6.279656    0.431278    0.286243
     82          1           0        5.883551   -0.070890   -0.091342
     83          1           0       -4.752760   -2.462166    0.552594
     84          1           0        5.090505    2.873266   -0.531382
     85          1           0       -3.942036    0.501150    0.083365
     86          1           0        3.732412    0.261037   -0.077069
     87          1           0       -2.671823   -3.124539    1.436665
     88          1           0       -1.102311   -2.914895    0.485175
     89          1           0       -2.451415   -3.245749   -0.368237
     90          1           0        2.896136    3.794386   -1.528278
     91          1           0        3.130522    4.022057    0.133981
     92          1           0        1.494695    3.947427   -0.423453
     93          1           0       -0.338588   -1.010164    0.354558
     94          1           0        1.517691    0.192925   -0.182609
     95          1           0       -2.145855    1.519612   -0.529409
     96          1           0       -0.077494    2.819537   -0.553845
 ---------------------------------------------------------------------

 SCF Done:  E(RB3LYP) =  -1557.46675743     A.U. after   17 cycles

 Excitation energies and oscillator strengths:

 Excited State   1:      Singlet-A      2.1034 eV  589.43 nm  f=2.8861  <S**2>=0.000
     148 ->149         0.70648
 This state for optimization and/or second-order correction.
 Total Energy, E(TD-HF/TD-DFT) =  -1557.38945722
 Copying the excited state density for this state as the 1-particle RhoCI density.

 The electronic state is 1-A.
 Alpha  occ. eigenvalues --  -10.24125 -10.21057 -10.21005 -10.20701 -10.20571
 Alpha  occ. eigenvalues --  -10.20453 -10.20217 -10.20013 -10.20002 -10.19983
 Alpha  occ. eigenvalues --  -10.19971 -10.19930 -10.19700 -10.19693 -10.19683
 Alpha  occ. eigenvalues --  -10.19567 -10.19484 -10.19303 -10.19281 -10.19200
 Alpha  occ. eigenvalues --  -10.19129 -10.19068 -10.19021 -10.18881 -10.18864
 Alpha  occ. eigenvalues --  -10.18811 -10.18620 -10.18591 -10.18510 -10.18324
 Alpha  occ. eigenvalues --  -10.18214 -10.18160 -10.18114 -10.18076 -10.18051
 Alpha  occ. eigenvalues --  -10.17837 -10.17829 -10.17723 -10.16280 -10.15206
 Alpha  occ. eigenvalues --   -0.85840  -0.85698  -0.84075  -0.83376  -0.82137
 Alpha  occ. eigenvalues --   -0.81239  -0.79204  -0.78952  -0.78480  -0.77477
 Alpha  occ. eigenvalues --   -0.76567  -0.75658  -0.74676  -0.72231  -0.71216
 Alpha  occ. eigenvalues --   -0.70094  -0.69495  -0.69285  -0.68252  -0.67705
 Alpha  occ. eigenvalues --   -0.67602  -0.67288  -0.66389  -0.65932  -0.64409
 Alpha  occ. eigenvalues --   -0.62248  -0.61340  -0.59263  -0.58272  -0.57328
 Alpha  occ. eigenvalues --   -0.57046  -0.55864  -0.55203  -0.54521  -0.52880
 Alpha  occ. eigenvalues --   -0.52148  -0.51176  -0.50634  -0.49427  -0.49189
 Alpha  occ. eigenvalues --   -0.47920  -0.47452  -0.47092  -0.46722  -0.45824
 Alpha  occ. eigenvalues --   -0.45576  -0.45402  -0.44957  -0.44375  -0.44181
 Alpha  occ. eigenvalues --   -0.44045  -0.43267  -0.43067  -0.42765  -0.42666
 Alpha  occ. eigenvalues --   -0.41663  -0.41477  -0.41238  -0.41054  -0.40724
 Alpha  occ. eigenvalues --   -0.40198  -0.39888  -0.39739  -0.39472  -0.39137
 Alpha  occ. eigenvalues --   -0.39067  -0.38507  -0.38431  -0.38150  -0.37470
 Alpha  occ. eigenvalues --   -0.37424  -0.37118  -0.37009  -0.36655  -0.36629
 Alpha  occ. eigenvalues --   -0.36193  -0.35843  -0.35734  -0.35556  -0.35248
 Alpha  occ. eigenvalues --   -0.34995  -0.34776  -0.34651  -0.33938  -0.33745
 Alpha  occ. eigenvalues --   -0.33551  -0.33295  -0.33202  -0.32720  -0.32649
 Alpha  occ. eigenvalues --   -0.32230  -0.31912  -0.31255  -0.31194  -0.30692
 Alpha  occ. eigenvalues --   -0.30303  -0.29803  -0.28901  -0.28563  -0.27745
 Alpha  occ. eigenvalues --   -0.27343  -0.27016  -0.26517  -0.23816  -0.22416
 Alpha  occ. eigenvalues --   -0.21287  -0.18471  -0.16282
 Alpha virt. eigenvalues --   -0.08351  -0.05642  -0.01829  -0.00064   0.01679
 Alpha virt. eigenvalues --    0.02929   0.03609   0.04723   0.05780   0.06141
 Alpha virt. eigenvalues --    0.06323   0.07027   0.07366   0.07983   0.08211

 Mulliken charges:
               1
     1  C   -0.048139
     2  C   -0.021833
     3  C   -0.131762
     4  C   -0.150298
     5  C   -0.190853
     6  C   -0.184267
     7  C    0.076177
     8  C    0.088407
     9  C   -0.216995
    10  C   -0.206609
    11  C    0.104358
    12  C    0.069872
    13  C   -0.276866
    14  C   -0.300668
    15  C   -0.294197
    16  C   -0.307734
    17  C   -0.151409
    18  C   -0.134013
    19  C   -0.368535
    20  C   -0.341443
    21  C   -0.114517
    22  C   -0.108240
    23  C    0.095476
    24  C    0.110746
    25  C   -0.376554
    26  C   -0.303640
    27  C   -0.116158
    28  C   -0.114389
    29  C   -0.077579
    30  C   -0.045450
    31  C   -0.122680
    32  C   -0.119053
    33  C    0.151914
    34  C    0.143298
    35  C   -0.393819
    36  C   -0.392905
    37  C   -0.119948
    38  C   -0.106993
    39  C   -0.078431
    40  C   -0.101274
    41  H    0.097145
    42  H    0.048550
    43  H    0.104220
    44  H    0.084292
    45  H    0.091795
    46  H    0.079704
    47  H    0.083204
    48  H    0.059449
    49  H    0.067320
    50  H    0.095554
    51  H    0.115813
    52  H    0.093418
    53  H    0.084055
    54  H    0.111505
    55  H    0.113811
    56  H    0.105300
    57  H    0.085034
    58  H    0.092605
    59  H    0.116103
    60  H    0.091096
    61  H    0.070174
    62  H    0.077910
    63  H    0.120033
    64  H    0.107304
    65  H    0.075448
    66  H    0.089140
    67  H    0.122865
    68  H    0.116189
    69  H    0.129594
    70  H    0.109039
    71  H    0.087379
    72  H    0.075100
    73  H    0.085684
    74  H    0.081189
    75  H    0.134731
    76  H    0.097169
    77  H    0.139464
    78  H    0.081652
    79  H    0.043166
    80  H    0.076701
    81  H    0.076561
    82  H    0.073007
    83  H    0.077544
    84  H    0.090577
    85  H    0.080112
    86  H    0.074897
    87  H    0.109073
    88  H    0.091433
    89  H    0.128468
    90  H    0.102928
    91  H    0.135558
    92  H    0.099679
    93  H    0.081002
    94  H    0.073843
    95  H    0.062780
    96  H    0.079636
 Sum of Mulliken charges =  -0.00000

 Dipole moment (field-independent basis, Debye):
    X=             -2.2745    Y=             -0.8550    Z=              0.7291  Tot=              2.5369
 Quadrupole moment (field-independent basis, Debye-Ang):
   XX=           -233.8571   YY=           -236.6589   ZZ=           -254.7114
   XY=              3.9101   XZ=              3.7899   YZ=              0.1342

 Normal termination of Gaussian 16 at Mon Jul 29 04:26:35 2019.
