 Gaussian 16, Revision A.03,
 Gaussian 16:  ES64L-G16RevA.03 25-Dec-2016

 ---------------------------------
 # td=(NStates=1) B3LYP/6-31G(d,p)
 ---------------------------------

 --
 TD
 --
 Symbolic Z-matrix:
 Charge =  0 Multiplicity = 1

                         Standard orientation:
 ---------------------------------------------------------------------
 Center     Atomic      Atomic             Coordinates (Angstroms)
 Number     Number       Type             X           Y           Z
 ---------------------------------------------------------------------
      1          6           0       12.280240    0.595140   -0.719642
      2          6           0      -12.132693    0.000806    0.889497
      3          6           0       13.538728   -0.309490   -0.527811
      4          6           0      -13.089330    1.219399    1.149017
      5          6           0       13.262427   -1.735888   -0.508154
      6          6           0      -13.489013    2.085981    0.069452
      7          6           0       11.077361    0.076097    0.174199
      8          6           0      -11.085592    0.354237   -0.148676
      9          6           0       12.413230   -1.990188    0.789467
     10          6           0      -12.191779    2.663990   -0.610679
     11          6           0       11.241793   -1.063635    0.889468
     12          6           0      -11.137105    1.591922   -0.781448
     13          6           0       11.827326    0.641993   -2.205655
     14          6           0       12.621758    2.031258   -0.293895
     15          6           0      -13.028299   -1.071612    0.249187
     16          6           0      -11.603676   -0.551736    2.143530
     17          6           0        9.842086    0.892591    0.245951
     18          6           0       -9.990869   -0.587074   -0.252260
     19          6           0       10.149417   -1.632320    1.808617
     20          6           0      -10.012550    1.859962   -1.827462
     21          6           0        8.588849    0.456071    0.155574
     22          6           0       -8.607572   -0.254559   -0.149030
     23          6           0        7.367703    1.212989    0.442565
     24          6           0       -7.512742   -1.280408   -0.339843
     25          6           0        7.449004    2.732217    0.591760
     26          6           0       -7.871819   -2.716829   -0.664651
     27          6           0        6.219402    0.625336    0.234762
     28          6           0       -6.172025   -0.787704   -0.352392
     29          6           0        4.876450    1.222911    0.353614
     30          6           0       -5.013703   -1.593549   -0.469225
     31          6           0        3.613069    0.562922    0.269096
     32          6           0       -3.793886   -1.168755   -0.358638
     33          6           0        2.361994    1.160883    0.350207
     34          6           0       -2.617929   -1.857137   -0.365883
     35          6           0        2.260823    2.622668    0.741404
     36          6           0       -2.597610   -3.313820   -0.628664
     37          6           0        1.228515    0.475722    0.309355
     38          6           0       -1.361445   -1.131318   -0.292703
     39          6           0        1.143187   -0.947542   -0.037286
     40          6           0       -0.030933   -1.710442   -0.354164
     41          1           0       13.986814    0.019028    0.233849
     42          1           0       14.131896    0.091675   -1.545188
     43          1           0      -12.519668    2.029862    1.862760
     44          1           0      -14.056989    0.931274    1.729388
     45          1           0       14.221630   -2.166182   -0.472586
     46          1           0       12.661710   -1.931276   -1.421319
     47          1           0      -14.178039    2.966974    0.317773
     48          1           0      -14.038074    1.466801   -0.729074
     49          1           0       13.051179   -1.939737    1.734465
     50          1           0       11.867147   -2.964266    0.677123
     51          1           0      -11.730422    3.593689    0.095728
     52          1           0      -12.539512    3.151432   -1.527231
     53          1           0       11.976907   -0.365891   -2.341064
     54          1           0       12.558074    0.908267   -2.722401
     55          1           0       10.858761    1.295780   -2.531812
     56          1           0       13.245387    2.184347    0.865334
     57          1           0       11.912594    2.690262   -0.710850
     58          1           0       13.388524    2.435058   -0.863772
     59          1           0      -13.566581   -0.902440   -0.711408
     60          1           0      -14.027771   -1.255410    0.929204
     61          1           0      -12.559356   -2.044135    0.152696
     62          1           0      -10.875439    0.208472    2.770374
     63          1           0      -11.082300   -1.522651    1.960783
     64          1           0      -12.407761   -0.499230    2.864396
     65          1           0       10.113254    2.049866    0.337528
     66          1           0      -10.152264   -1.643221   -0.385580
     67          1           0        9.488005   -0.877115    2.174236
     68          1           0       10.720265   -2.019385    2.823701
     69          1           0        9.867427   -2.394827    1.134422
     70          1           0       -9.445310    1.052459   -2.262848
     71          1           0       -9.199062    2.643404   -1.432876
     72          1           0      -10.404332    2.637351   -2.681596
     73          1           0        8.400306   -0.619866   -0.273418
     74          1           0       -8.324764    0.878736   -0.137824
     75          1           0        8.114815    3.161427    1.348210
     76          1           0        6.586850    3.281117    0.950500
     77          1           0        7.728454    3.290473   -0.334048
     78          1           0       -8.597858   -2.653344   -1.292030
     79          1           0       -7.991728   -3.478884    0.331879
     80          1           0       -6.740407   -3.264611   -1.176670
     81          1           0        6.200838   -0.518715    0.152104
     82          1           0       -6.076076    0.272330   -0.143894
     83          1           0        4.849148    2.250023    0.846542
     84          1           0       -5.295390   -2.652317   -0.645643
     85          1           0        3.871422   -0.631044    0.200446
     86          1           0       -3.851224   -0.065013    0.235298
     87          1           0        2.686341    2.817574    1.809686
     88          1           0        1.237502    2.960322    0.511195
     89          1           0        2.833839    3.263237    0.037950
     90          1           0       -3.304963   -3.560945   -1.609339
     91          1           0       -2.926181   -3.533891    0.446377
     92          1           0       -1.750534   -3.781735   -1.020023
     93          1           0        0.192657    0.949292    0.535597
     94          1           0       -1.547278   -0.197317    0.169689
     95          1           0        2.031242   -1.543536   -0.256184
     96          1           0        0.269561   -2.740071   -0.821920
 ---------------------------------------------------------------------

 SCF Done:  E(RB3LYP) =  -1557.45803599     A.U. after   16 cycles

 Excitation energies and oscillator strengths:

 Excited State   1:      Singlet-A      2.0816 eV  595.63 nm  f=3.0685  <S**2>=0.000
     148 ->149         0.70648
     148 <-149        -0.11906
 This state for optimization and/or second-order correction.
 Total Energy, E(TD-HF/TD-DFT) =  -1557.38153941
 Copying the excited state density for this state as the 1-particle RhoCI density.

 The electronic state is 1-A.
 Alpha  occ. eigenvalues --  -10.21115 -10.21084 -10.20561 -10.20515 -10.20147
 Alpha  occ. eigenvalues --  -10.20110 -10.20093 -10.20019 -10.19910 -10.19828
 Alpha  occ. eigenvalues --  -10.19778 -10.19749 -10.19452 -10.19441 -10.19408
 Alpha  occ. eigenvalues --  -10.19385 -10.19347 -10.19230 -10.19212 -10.19094
 Alpha  occ. eigenvalues --  -10.19067 -10.19024 -10.18988 -10.18952 -10.18933
 Alpha  occ. eigenvalues --  -10.18920 -10.18891 -10.18841 -10.18794 -10.18568
 Alpha  occ. eigenvalues --  -10.18265 -10.18203 -10.18090 -10.18026 -10.17979
 Alpha  occ. eigenvalues --  -10.17935 -10.17895 -10.17756 -10.17181 -10.15925
 Alpha  occ. eigenvalues --   -0.85250  -0.85203  -0.84060  -0.83478  -0.82358
 Alpha  occ. eigenvalues --   -0.80953  -0.79033  -0.78261  -0.78107  -0.77820
 Alpha  occ. eigenvalues --   -0.76797  -0.75084  -0.74204  -0.72104  -0.71333
 Alpha  occ. eigenvalues --   -0.69487  -0.69464  -0.68710  -0.68383  -0.67511
 Alpha  occ. eigenvalues --   -0.67343  -0.67064  -0.66792  -0.66134  -0.65776
 Alpha  occ. eigenvalues --   -0.62627  -0.61819  -0.60014  -0.58853  -0.56340
 Alpha  occ. eigenvalues --   -0.56041  -0.55515  -0.54992  -0.53264  -0.52971
 Alpha  occ. eigenvalues --   -0.51904  -0.51129  -0.49958  -0.49319  -0.49051
 Alpha  occ. eigenvalues --   -0.48218  -0.47570  -0.46768  -0.46350  -0.45854
 Alpha  occ. eigenvalues --   -0.45699  -0.45293  -0.45040  -0.44508  -0.44464
 Alpha  occ. eigenvalues --   -0.44106  -0.43683  -0.43071  -0.42379  -0.42147
 Alpha  occ. eigenvalues --   -0.42043  -0.41836  -0.41384  -0.41123  -0.40980
 Alpha  occ. eigenvalues --   -0.40904  -0.40355  -0.39992  -0.39396  -0.38896
 Alpha  occ. eigenvalues --   -0.38745  -0.38084  -0.37865  -0.37597  -0.37567
 Alpha  occ. eigenvalues --   -0.37367  -0.37137  -0.36735  -0.36574  -0.36155
 Alpha  occ. eigenvalues --   -0.35884  -0.35775  -0.35579  -0.35421  -0.35380
 Alpha  occ. eigenvalues --   -0.34963  -0.34715  -0.34237  -0.33895  -0.33351
 Alpha  occ. eigenvalues --   -0.33282  -0.32897  -0.32678  -0.32543  -0.32181
 Alpha  occ. eigenvalues --   -0.32070  -0.31789  -0.31419  -0.30905  -0.30312
 Alpha  occ. eigenvalues --   -0.30034  -0.29925  -0.29618  -0.29199  -0.28731
 Alpha  occ. eigenvalues --   -0.27866  -0.27213  -0.25827  -0.23956  -0.22468
 Alpha  occ. eigenvalues --   -0.20954  -0.19020  -0.16161
 Alpha virt. eigenvalues --   -0.08553  -0.05286  -0.02075   0.00340   0.01972
 Alpha virt. eigenvalues --    0.04345   0.04816   0.05490   0.06139   0.06456
 Alpha virt. eigenvalues --    0.07284   0.07383   0.07731   0.08182   0.08518

 Mulliken charges:
               1
     1  C   -0.041122
     2  C    0.005149
     3  C   -0.151180
     4  C   -0.158446
     5  C   -0.181756
     6  C   -0.175299
     7  C    0.107493
     8  C    0.102283
     9  C   -0.217515
    10  C   -0.219470
    11  C    0.010593
    12  C    0.084944
    13  C   -0.280925
    14  C   -0.287021
    15  C   -0.295505
    16  C   -0.278584
    17  C   -0.146304
    18  C   -0.170736
    19  C   -0.332506
    20  C   -0.360331
    21  C   -0.102625
    22  C   -0.088284
    23  C    0.144562
    24  C    0.082310
    25  C   -0.383742
    26  C   -0.328724
    27  C   -0.126574
    28  C   -0.110440
    29  C   -0.105137
    30  C   -0.055106
    31  C   -0.110481
    32  C   -0.088801
    33  C    0.134017
    34  C    0.062161
    35  C   -0.371672
    36  C   -0.334954
    37  C   -0.121064
    38  C   -0.102795
    39  C   -0.082773
    40  C   -0.118673
    41  H    0.099404
    42  H    0.046566
    43  H    0.059220
    44  H    0.076186
    45  H    0.101408
    46  H    0.100972
    47  H    0.090765
    48  H    0.085912
    49  H    0.104622
    50  H    0.096866
    51  H    0.073840
    52  H    0.107352
    53  H    0.096428
    54  H    0.107292
    55  H    0.097226
    56  H    0.053447
    57  H    0.100808
    58  H    0.102292
    59  H    0.107669
    60  H    0.065507
    61  H    0.100661
    62  H    0.075427
    63  H    0.102953
    64  H    0.109507
    65  H    0.083872
    66  H    0.086469
    67  H    0.130990
    68  H    0.069827
    69  H    0.127365
    70  H    0.134707
    71  H    0.086180
    72  H    0.068934
    73  H    0.079291
    74  H    0.091005
    75  H    0.111964
    76  H    0.108923
    77  H    0.120861
    78  H    0.135730
    79  H    0.101471
    80  H    0.062335
    81  H    0.070985
    82  H    0.074557
    83  H    0.077911
    84  H    0.073068
    85  H    0.073524
    86  H    0.052498
    87  H    0.116513
    88  H    0.109173
    89  H    0.115372
    90  H    0.084605
    91  H    0.132510
    92  H    0.121647
    93  H    0.082762
    94  H    0.080710
    95  H    0.080442
    96  H    0.086498
 Sum of Mulliken charges =  -0.00000

 Dipole moment (field-independent basis, Debye):
    X=              1.0205    Y=             -0.1276    Z=             -0.0145  Tot=              1.0285
 Quadrupole moment (field-independent basis, Debye-Ang):
   XX=           -214.9079   YY=           -235.9570   ZZ=           -256.0468
   XY=             -0.9570   XZ=             -1.0841   YZ=              3.0274

 Normal termination of Gaussian 16 at Wed Jul 31 18:23:43 2019.
