 Gaussian 16, Revision A.03,
 Gaussian 16:  ES64L-G16RevA.03 25-Dec-2016

 ---------------------------------
 # td=(NStates=1) B3LYP/6-31G(d,p)
 ---------------------------------

 --
 TD
 --
 Symbolic Z-matrix:
 Charge =  0 Multiplicity = 1

                         Standard orientation:
 ---------------------------------------------------------------------
 Center     Atomic      Atomic             Coordinates (Angstroms)
 Number     Number       Type             X           Y           Z
 ---------------------------------------------------------------------
      1          6           0       12.168908    0.549193   -0.559408
      2          6           0      -12.186387    0.040139    0.834066
      3          6           0       13.489659   -0.269954   -0.519935
      4          6           0      -12.932257    1.118553    1.331147
      5          6           0       13.203912   -1.826908   -0.494398
      6          6           0      -13.264642    2.141406    0.223218
      7          6           0       10.987907   -0.023833    0.208561
      8          6           0      -10.993270    0.436188   -0.102285
      9          6           0       12.245504   -2.164263    0.685702
     10          6           0      -11.947144    2.843081   -0.319981
     11          6           0       11.103563   -1.228065    0.826752
     12          6           0      -10.920985    1.683885   -0.562191
     13          6           0       11.913379    0.744834   -2.094223
     14          6           0       12.534554    2.040682   -0.049356
     15          6           0      -13.065675   -1.022821   -0.045816
     16          6           0      -11.664793   -0.772730    2.023872
     17          6           0        9.846002    0.930185    0.389244
     18          6           0       -9.901903   -0.536198   -0.333726
     19          6           0       10.092398   -1.739176    1.778292
     20          6           0       -9.777578    2.253956   -1.482293
     21          6           0        8.542606    0.577341    0.258186
     22          6           0       -8.570437   -0.320268   -0.270065
     23          6           0        7.363461    1.264342    0.357124
     24          6           0       -7.651053   -1.329411   -0.417584
     25          6           0        7.555705    2.768515    0.788533
     26          6           0       -7.915951   -2.788812   -0.652298
     27          6           0        6.165834    0.682164    0.183646
     28          6           0       -6.270366   -0.948764   -0.401850
     29          6           0        4.903421    1.391348    0.308962
     30          6           0       -5.098557   -1.778194   -0.392634
     31          6           0        3.698950    0.684383    0.070016
     32          6           0       -3.865162   -1.180134   -0.317434
     33          6           0        2.393556    1.280405    0.026088
     34          6           0       -2.604667   -1.930593   -0.430868
     35          6           0        2.286432    2.788429    0.209863
     36          6           0       -2.623607   -3.443099   -0.507971
     37          6           0        1.188703    0.491819   -0.135014
     38          6           0       -1.402024   -1.243306   -0.244277
     39          6           0        1.089910   -0.935486   -0.240296
     40          6           0       -0.049159   -1.668852   -0.228027
     41          1           0       14.123946   -0.074176    0.399216
     42          1           0       14.212219   -0.040022   -1.432503
     43          1           0      -12.380329    1.881283    1.977533
     44          1           0      -13.960905    0.775708    1.872561
     45          1           0       14.148322   -2.340641   -0.307863
     46          1           0       12.687885   -1.985935   -1.375429
     47          1           0      -13.991861    3.003330    0.689680
     48          1           0      -13.725397    1.616069   -0.556799
     49          1           0       12.786126   -2.207640    1.691888
     50          1           0       11.909618   -3.167447    0.634845
     51          1           0      -11.619656    3.488999    0.391894
     52          1           0      -12.084350    3.518334   -1.234919
     53          1           0       12.190136   -0.303447   -2.569154
     54          1           0       12.485124    1.579198   -2.520770
     55          1           0       10.745234    0.909686   -2.304077
     56          1           0       12.478976    2.150844    1.106488
     57          1           0       11.917771    2.808136   -0.375037
     58          1           0       13.393869    2.278149   -0.645605
     59          1           0      -13.356562   -0.444401   -0.966191
     60          1           0      -13.930364   -1.384205    0.602224
     61          1           0      -12.500275   -1.955034   -0.596786
     62          1           0      -10.924485   -0.239085    2.614447
     63          1           0      -11.397860   -1.928773    1.742769
     64          1           0      -12.519599   -0.858890    2.739206
     65          1           0       10.123329    1.872104    0.787967
     66          1           0      -10.251168   -1.442933   -0.432494
     67          1           0        9.322281   -1.092166    2.037536
     68          1           0       10.456879   -2.255212    2.790282
     69          1           0        9.481934   -2.684610    1.399859
     70          1           0       -9.185202    1.393209   -1.763167
     71          1           0       -8.949265    2.881856   -0.988846
     72          1           0      -10.328426    2.757740   -2.385996
     73          1           0        8.250032   -0.554916    0.229735
     74          1           0       -8.190551    0.669686   -0.133762
     75          1           0        8.070744    2.809405    1.799898
     76          1           0        6.555596    3.504534    0.754458
     77          1           0        8.073123    3.472570    0.222947
     78          1           0       -8.579015   -2.935776   -1.504749
     79          1           0       -8.332884   -3.249338    0.203575
     80          1           0       -6.957972   -3.304432   -1.024227
     81          1           0        6.329527   -0.400628    0.218886
     82          1           0       -6.140617    0.217152   -0.332358
     83          1           0        4.770855    2.523617    0.679561
     84          1           0       -5.224217   -2.862909   -0.272051
     85          1           0        3.607994   -0.385341   -0.183082
     86          1           0       -3.736077   -0.086569   -0.271804
     87          1           0        2.848501    3.288321    1.086795
     88          1           0        1.186575    3.102740    0.293138
     89          1           0        2.666393    3.180154   -0.651401
     90          1           0       -2.971376   -3.702581   -1.418516
     91          1           0       -3.275590   -4.074794    0.120261
     92          1           0       -1.642621   -3.907231   -0.743643
     93          1           0        0.316839    1.047886   -0.132495
     94          1           0       -1.460402   -0.129231    0.031930
     95          1           0        2.018319   -1.394677    0.029988
     96          1           0        0.046394   -2.697556   -0.233895
 ---------------------------------------------------------------------

 SCF Done:  E(RB3LYP) =  -1557.63895414     A.U. after   16 cycles

 Excitation energies and oscillator strengths:

 Excited State   1:      Singlet-A      2.0147 eV  615.39 nm  f=3.1254  <S**2>=0.000
     148 ->149         0.71168
     148 <-149        -0.12213
 This state for optimization and/or second-order correction.
 Total Energy, E(TD-HF/TD-DFT) =  -1557.56491462
 Copying the excited state density for this state as the 1-particle RhoCI density.

 The electronic state is 1-A.
 Alpha  occ. eigenvalues --  -10.21014 -10.20940 -10.20592 -10.20216 -10.20143
 Alpha  occ. eigenvalues --  -10.19784 -10.19680 -10.19567 -10.19520 -10.19430
 Alpha  occ. eigenvalues --  -10.19424 -10.19343 -10.19333 -10.19287 -10.19182
 Alpha  occ. eigenvalues --  -10.18975 -10.18900 -10.18900 -10.18872 -10.18776
 Alpha  occ. eigenvalues --  -10.18752 -10.18750 -10.18716 -10.18643 -10.18639
 Alpha  occ. eigenvalues --  -10.18549 -10.18475 -10.18441 -10.18416 -10.18368
 Alpha  occ. eigenvalues --  -10.18286 -10.18250 -10.18152 -10.18042 -10.17993
 Alpha  occ. eigenvalues --  -10.17956 -10.17932 -10.17504 -10.17422 -10.17260
 Alpha  occ. eigenvalues --   -0.85497  -0.84610  -0.83404  -0.83184  -0.82557
 Alpha  occ. eigenvalues --   -0.81410  -0.79097  -0.78068  -0.77956  -0.77033
 Alpha  occ. eigenvalues --   -0.76586  -0.74950  -0.74045  -0.71764  -0.71335
 Alpha  occ. eigenvalues --   -0.70663  -0.68845  -0.68434  -0.68039  -0.67644
 Alpha  occ. eigenvalues --   -0.67130  -0.66771  -0.66595  -0.65993  -0.65740
 Alpha  occ. eigenvalues --   -0.63485  -0.62385  -0.59643  -0.59149  -0.57941
 Alpha  occ. eigenvalues --   -0.57130  -0.55614  -0.55233  -0.54049  -0.53187
 Alpha  occ. eigenvalues --   -0.52598  -0.52043  -0.50700  -0.49857  -0.49360
 Alpha  occ. eigenvalues --   -0.48784  -0.47666  -0.47161  -0.46512  -0.46273
 Alpha  occ. eigenvalues --   -0.45331  -0.44993  -0.44498  -0.44233  -0.43810
 Alpha  occ. eigenvalues --   -0.43409  -0.43120  -0.43105  -0.42419  -0.41988
 Alpha  occ. eigenvalues --   -0.41677  -0.41587  -0.41372  -0.41120  -0.40840
 Alpha  occ. eigenvalues --   -0.40815  -0.40098  -0.39924  -0.39684  -0.39319
 Alpha  occ. eigenvalues --   -0.39187  -0.38770  -0.38568  -0.38044  -0.37837
 Alpha  occ. eigenvalues --   -0.37611  -0.37216  -0.37041  -0.36705  -0.36527
 Alpha  occ. eigenvalues --   -0.36390  -0.35850  -0.35805  -0.35609  -0.35211
 Alpha  occ. eigenvalues --   -0.34972  -0.34833  -0.34559  -0.34316  -0.33850
 Alpha  occ. eigenvalues --   -0.33711  -0.33522  -0.33141  -0.32816  -0.32572
 Alpha  occ. eigenvalues --   -0.32374  -0.32143  -0.31814  -0.31501  -0.31268
 Alpha  occ. eigenvalues --   -0.30264  -0.29878  -0.29750  -0.29235  -0.29189
 Alpha  occ. eigenvalues --   -0.28562  -0.27227  -0.25999  -0.24266  -0.23113
 Alpha  occ. eigenvalues --   -0.21347  -0.18749  -0.16134
 Alpha virt. eigenvalues --   -0.08821  -0.05603  -0.02046   0.00693   0.02838
 Alpha virt. eigenvalues --    0.03800   0.06132   0.06271   0.06724   0.07190
 Alpha virt. eigenvalues --    0.07634   0.07910   0.08033   0.09033   0.09268

 Mulliken charges:
               1
     1  C    0.014985
     2  C    0.033282
     3  C   -0.182599
     4  C   -0.171992
     5  C   -0.194097
     6  C   -0.197273
     7  C    0.049780
     8  C    0.082198
     9  C   -0.226661
    10  C   -0.213106
    11  C    0.112484
    12  C    0.023217
    13  C   -0.294669
    14  C   -0.320285
    15  C   -0.306583
    16  C   -0.287431
    17  C   -0.142123
    18  C   -0.123839
    19  C   -0.370473
    20  C   -0.361614
    21  C   -0.106147
    22  C   -0.077433
    23  C    0.175526
    24  C    0.134246
    25  C   -0.374740
    26  C   -0.381406
    27  C   -0.133964
    28  C   -0.137095
    29  C   -0.108923
    30  C   -0.084127
    31  C   -0.090759
    32  C   -0.108278
    33  C    0.086565
    34  C    0.112911
    35  C   -0.379174
    36  C   -0.394614
    37  C   -0.113817
    38  C   -0.117451
    39  C   -0.083774
    40  C   -0.084189
    41  H    0.083048
    42  H    0.076065
    43  H    0.096445
    44  H    0.075768
    45  H    0.093501
    46  H    0.110239
    47  H    0.055406
    48  H    0.106766
    49  H    0.094858
    50  H    0.108774
    51  H    0.119908
    52  H    0.088853
    53  H    0.082963
    54  H    0.102258
    55  H    0.088290
    56  H    0.090302
    57  H    0.109106
    58  H    0.101608
    59  H    0.105393
    60  H    0.098287
    61  H    0.085607
    62  H    0.108067
    63  H    0.074518
    64  H    0.089132
    65  H    0.097315
    66  H    0.064608
    67  H    0.123176
    68  H    0.085619
    69  H    0.085725
    70  H    0.117020
    71  H    0.102237
    72  H    0.093875
    73  H    0.061590
    74  H    0.084901
    75  H    0.115212
    76  H    0.064281
    77  H    0.129930
    78  H    0.119232
    79  H    0.129437
    80  H    0.102871
    81  H    0.087428
    82  H    0.063060
    83  H    0.096530
    84  H    0.092040
    85  H    0.079400
    86  H    0.086447
    87  H    0.109056
    88  H    0.097422
    89  H    0.143978
    90  H    0.137438
    91  H    0.124554
    92  H    0.104772
    93  H    0.072282
    94  H    0.068010
    95  H    0.085759
    96  H    0.073075
 Sum of Mulliken charges =  -0.00000

 Dipole moment (field-independent basis, Debye):
    X=             -0.4673    Y=             -0.2491    Z=              0.5560  Tot=              0.7678
 Quadrupole moment (field-independent basis, Debye-Ang):
   XX=           -234.1398   YY=           -230.8171   ZZ=           -256.9209
   XY=              3.9161   XZ=              2.4373   YZ=              2.2989

 Normal termination of Gaussian 16 at Thu Aug  1 17:22:22 2019.
