 Gaussian 16, Revision A.03,
 Gaussian 16:  ES64L-G16RevA.03 25-Dec-2016

 ---------------------------------
 # td=(NStates=1) B3LYP/6-31G(d,p)
 ---------------------------------

 --
 TD
 --
 Symbolic Z-matrix:
 Charge =  0 Multiplicity = 1

                         Standard orientation:
 ---------------------------------------------------------------------
 Center     Atomic      Atomic             Coordinates (Angstroms)
 Number     Number       Type             X           Y           Z
 ---------------------------------------------------------------------
      1          6           0      -12.159791    0.516154    0.819363
      2          6           0       12.147459   -0.047435   -0.649588
      3          6           0      -13.390337   -0.382830    0.781910
      4          6           0       13.121066    1.028266   -1.167742
      5          6           0      -13.093759   -1.820380    0.642924
      6          6           0       13.343814    2.001682    0.047528
      7          6           0      -11.009780    0.001289   -0.236990
      8          6           0       10.941383    0.444187    0.161259
      9          6           0      -12.264411   -2.053371   -0.641667
     10          6           0       12.011388    2.685783    0.380882
     11          6           0      -11.194303   -1.150859   -0.931272
     12          6           0       10.860159    1.748858    0.606691
     13          6           0      -11.494673    0.453256    2.366208
     14          6           0      -12.545468    2.069885    0.683786
     15          6           0       12.961619   -1.084379    0.182073
     16          6           0       11.518799   -0.803872   -1.967338
     17          6           0       -9.798170    0.884925   -0.391794
     18          6           0        9.838636   -0.527299    0.356353
     19          6           0      -10.153079   -1.687623   -1.860691
     20          6           0        9.798179    2.284465    1.528459
     21          6           0       -8.490920    0.511385   -0.373316
     22          6           0        8.527429   -0.346956    0.294010
     23          6           0       -7.334638    1.360165   -0.569873
     24          6           0        7.466586   -1.345787    0.372954
     25          6           0       -7.659858    2.890960   -0.602409
     26          6           0        7.876221   -2.756870    0.774014
     27          6           0       -6.127634    0.838186   -0.416692
     28          6           0        6.196365   -0.897227    0.237965
     29          6           0       -4.785686    1.463520   -0.481756
     30          6           0        5.058663   -1.723148    0.301775
     31          6           0       -3.680946    0.766279   -0.362699
     32          6           0        3.746627   -1.103975    0.302305
     33          6           0       -2.311361    1.210949   -0.377118
     34          6           0        2.455925   -1.841864    0.327409
     35          6           0       -2.289616    2.795980   -0.733100
     36          6           0        2.670621   -3.363249    0.434631
     37          6           0       -1.154963    0.475849   -0.249884
     38          6           0        1.298212   -1.137531    0.188888
     39          6           0       -1.129794   -0.961365   -0.141845
     40          6           0        0.006846   -1.656120    0.179286
     41          1           0      -13.882431   -0.279550   -0.196960
     42          1           0      -13.986021   -0.272143    1.734154
     43          1           0       12.631598    1.782441   -1.905255
     44          1           0       13.987598    0.706447   -1.597268
     45          1           0      -14.116515   -2.363218    0.527793
     46          1           0      -12.543961   -2.198013    1.472162
     47          1           0       14.279979    2.610639   -0.279747
     48          1           0       13.764272    1.471736    1.078526
     49          1           0      -12.788345   -2.134556   -1.644589
     50          1           0      -11.843764   -3.056918   -0.745265
     51          1           0       11.800211    3.456329   -0.683082
     52          1           0       12.017719    3.354800    1.300264
     53          1           0      -11.392343   -0.630101    2.630888
     54          1           0      -12.218042    0.618963    3.134745
     55          1           0      -10.573215    0.932206    2.426337
     56          1           0      -13.090641    2.059115   -0.375829
     57          1           0      -11.625776    2.606411    0.720639
     58          1           0      -13.346006    2.196341    1.521249
     59          1           0       13.206307   -0.326455    1.083702
     60          1           0       13.884383   -1.339498   -0.303964
     61          1           0       12.531291   -2.033898    0.366078
     62          1           0       10.791209   -0.055909   -2.448102
     63          1           0       10.948854   -1.623667   -1.745639
     64          1           0       12.153142   -1.048009   -2.699591
     65          1           0      -10.057396    1.850571   -0.512883
     66          1           0       10.261474   -1.615752    0.730859
     67          1           0       -9.478828   -0.945394   -2.581537
     68          1           0      -10.679326   -2.161940   -2.566687
     69          1           0       -9.525978   -2.478675   -1.650595
     70          1           0        9.241557    1.419987    1.904589
     71          1           0        9.185036    2.945785    0.942769
     72          1           0       10.230585    3.021979    2.215967
     73          1           0       -8.116394   -0.386501   -0.252627
     74          1           0        8.249427    0.604407    0.099747
     75          1           0       -8.149530    3.061673   -1.575724
     76          1           0       -6.833137    3.730279   -0.776732
     77          1           0       -8.206413    3.286499    0.285138
     78          1           0        8.527674   -2.730524    1.741657
     79          1           0        8.374911   -3.177119   -0.056702
     80          1           0        7.050680   -3.272836    1.171882
     81          1           0       -6.184808   -0.237060   -0.293708
     82          1           0        6.004205    0.132412    0.037750
     83          1           0       -4.797805    2.654099   -0.704004
     84          1           0        5.157577   -2.784751    0.380170
     85          1           0       -3.889343   -0.378988    0.052195
     86          1           0        3.595387    0.019384    0.264775
     87          1           0       -2.758579    3.032751   -1.748419
     88          1           0       -1.176388    3.111842   -0.670527
     89          1           0       -2.746927    3.306770    0.237061
     90          1           0        3.370310   -3.619872    1.358629
     91          1           0        3.380524   -3.820527   -0.392065
     92          1           0        1.673359   -3.889947    0.506868
     93          1           0       -0.073105    0.879655   -0.315603
     94          1           0        1.317332   -0.054747   -0.014757
     95          1           0       -2.171629   -1.554266   -0.302518
     96          1           0       -0.024814   -2.822013    0.224405
 ---------------------------------------------------------------------

 SCF Done:  E(RB3LYP) =  -1557.59440280     A.U. after   15 cycles

 Excitation energies and oscillator strengths:

 Excited State   1:      Singlet-A      2.2767 eV  544.57 nm  f=2.9159  <S**2>=0.000
     148 ->149         0.70233
 This state for optimization and/or second-order correction.
 Total Energy, E(TD-HF/TD-DFT) =  -1557.51073401
 Copying the excited state density for this state as the 1-particle RhoCI density.

 The electronic state is 1-A.
 Alpha  occ. eigenvalues --  -10.20973 -10.20875 -10.20724 -10.20686 -10.20667
 Alpha  occ. eigenvalues --  -10.20494 -10.20333 -10.20280 -10.20172 -10.20131
 Alpha  occ. eigenvalues --  -10.20122 -10.20018 -10.19754 -10.19565 -10.19557
 Alpha  occ. eigenvalues --  -10.19456 -10.19376 -10.19323 -10.19176 -10.19011
 Alpha  occ. eigenvalues --  -10.18995 -10.18826 -10.18763 -10.18633 -10.18589
 Alpha  occ. eigenvalues --  -10.18560 -10.18478 -10.18365 -10.18278 -10.18121
 Alpha  occ. eigenvalues --  -10.18080 -10.17973 -10.17825 -10.17437 -10.17428
 Alpha  occ. eigenvalues --  -10.17246 -10.17238 -10.16945 -10.16574 -10.15296
 Alpha  occ. eigenvalues --   -0.84736  -0.84507  -0.83543  -0.83075  -0.82544
 Alpha  occ. eigenvalues --   -0.81190  -0.78843  -0.78467  -0.77917  -0.77184
 Alpha  occ. eigenvalues --   -0.76425  -0.74833  -0.73713  -0.72171  -0.71656
 Alpha  occ. eigenvalues --   -0.69487  -0.68652  -0.68616  -0.68116  -0.67842
 Alpha  occ. eigenvalues --   -0.67445  -0.67136  -0.66689  -0.66393  -0.65698
 Alpha  occ. eigenvalues --   -0.62732  -0.61755  -0.59550  -0.58765  -0.57529
 Alpha  occ. eigenvalues --   -0.56220  -0.55711  -0.54739  -0.53709  -0.53087
 Alpha  occ. eigenvalues --   -0.52859  -0.51978  -0.49788  -0.49589  -0.49473
 Alpha  occ. eigenvalues --   -0.47986  -0.47742  -0.46699  -0.46621  -0.46023
 Alpha  occ. eigenvalues --   -0.45430  -0.44797  -0.44392  -0.43996  -0.43732
 Alpha  occ. eigenvalues --   -0.43470  -0.43098  -0.42335  -0.42144  -0.41999
 Alpha  occ. eigenvalues --   -0.41791  -0.41575  -0.41330  -0.41192  -0.40805
 Alpha  occ. eigenvalues --   -0.40250  -0.40205  -0.39893  -0.39602  -0.39468
 Alpha  occ. eigenvalues --   -0.39423  -0.39130  -0.38912  -0.38621  -0.38455
 Alpha  occ. eigenvalues --   -0.38221  -0.37795  -0.37143  -0.37017  -0.36504
 Alpha  occ. eigenvalues --   -0.36327  -0.36063  -0.35671  -0.35218  -0.35107
 Alpha  occ. eigenvalues --   -0.34857  -0.34781  -0.34058  -0.33864  -0.33808
 Alpha  occ. eigenvalues --   -0.33619  -0.33521  -0.33443  -0.32904  -0.32574
 Alpha  occ. eigenvalues --   -0.32522  -0.32342  -0.31880  -0.30795  -0.30528
 Alpha  occ. eigenvalues --   -0.30140  -0.29528  -0.28983  -0.28663  -0.28520
 Alpha  occ. eigenvalues --   -0.28001  -0.27694  -0.26561  -0.24022  -0.22584
 Alpha  occ. eigenvalues --   -0.21074  -0.19248  -0.16757
 Alpha virt. eigenvalues --   -0.08138  -0.04849  -0.01680   0.00553   0.02446
 Alpha virt. eigenvalues --    0.04252   0.05874   0.06083   0.07231   0.07489
 Alpha virt. eigenvalues --    0.07756   0.07957   0.08095   0.08406   0.08965

 Mulliken charges:
               1
     1  C   -0.007096
     2  C   -0.006143
     3  C   -0.166987
     4  C   -0.161322
     5  C   -0.178159
     6  C   -0.182156
     7  C    0.031922
     8  C    0.078017
     9  C   -0.258193
    10  C   -0.188121
    11  C    0.112480
    12  C    0.069961
    13  C   -0.324767
    14  C   -0.282044
    15  C   -0.289443
    16  C   -0.315834
    17  C   -0.148733
    18  C   -0.144545
    19  C   -0.367627
    20  C   -0.367994
    21  C   -0.046983
    22  C   -0.073902
    23  C    0.126824
    24  C    0.094334
    25  C   -0.378146
    26  C   -0.367487
    27  C   -0.147957
    28  C   -0.096428
    29  C   -0.066606
    30  C   -0.090815
    31  C   -0.083512
    32  C   -0.135746
    33  C    0.077225
    34  C    0.136405
    35  C   -0.361684
    36  C   -0.374621
    37  C   -0.116127
    38  C   -0.100777
    39  C   -0.088465
    40  C   -0.093583
    41  H    0.095158
    42  H    0.084352
    43  H    0.087018
    44  H    0.100873
    45  H    0.083141
    46  H    0.106890
    47  H    0.078905
    48  H    0.070519
    49  H    0.096014
    50  H    0.106349
    51  H    0.047047
    52  H    0.088521
    53  H    0.084489
    54  H    0.098449
    55  H    0.115858
    56  H    0.082143
    57  H    0.111515
    58  H    0.097976
    59  H    0.085268
    60  H    0.097694
    61  H    0.105797
    62  H    0.085009
    63  H    0.104131
    64  H    0.099132
    65  H    0.085314
    66  H    0.062161
    67  H    0.089308
    68  H    0.105370
    69  H    0.123935
    70  H    0.124631
    71  H    0.120996
    72  H    0.103142
    73  H    0.062219
    74  H    0.075958
    75  H    0.121725
    76  H    0.081703
    77  H    0.124623
    78  H    0.109791
    79  H    0.134724
    80  H    0.112367
    81  H    0.070444
    82  H    0.080556
    83  H    0.084708
    84  H    0.081962
    85  H    0.061794
    86  H    0.074398
    87  H    0.127419
    88  H    0.093253
    89  H    0.112436
    90  H    0.109289
    91  H    0.117863
    92  H    0.103625
    93  H    0.086700
    94  H    0.075386
    95  H    0.082641
    96  H    0.072145
 Sum of Mulliken charges =  -0.00000

 Dipole moment (field-independent basis, Debye):
    X=             -0.4528    Y=             -0.7962    Z=             -0.2466  Tot=              0.9486
 Quadrupole moment (field-independent basis, Debye-Ang):
   XX=           -227.1900   YY=           -235.6693   ZZ=           -254.5795
   XY=              4.9439   XZ=             -1.2951   YZ=             -0.3517

 Normal termination of Gaussian 16 at Sun Jul 28 17:59:13 2019.
