 Gaussian 16, Revision A.03,
 Gaussian 16:  ES64L-G16RevA.03 25-Dec-2016

 ---------------------------------
 # td=(NStates=1) B3LYP/6-31G(d,p)
 ---------------------------------

 --
 TD
 --
 Symbolic Z-matrix:
 Charge =  0 Multiplicity = 1

                         Standard orientation:
 ---------------------------------------------------------------------
 Center     Atomic      Atomic             Coordinates (Angstroms)
 Number     Number       Type             X           Y           Z
 ---------------------------------------------------------------------
      1          6           0      -12.095836   -0.542177   -0.714818
      2          6           0       12.080111   -0.044358    0.801563
      3          6           0      -13.370659    0.342783   -0.768053
      4          6           0       12.990988   -1.149837    1.179192
      5          6           0      -12.917820    1.774519   -0.708838
      6          6           0       13.392771   -2.100863   -0.067639
      7          6           0      -11.011188   -0.115471    0.255711
      8          6           0       10.847202   -0.501175   -0.122824
      9          6           0      -12.206653    2.087255    0.555711
     10          6           0       12.190944   -2.682649   -0.628439
     11          6           0      -11.039308    1.174718    0.895794
     12          6           0       10.980128   -1.652396   -0.815050
     13          6           0      -11.658420   -0.532068   -2.160380
     14          6           0      -12.461669   -2.027084   -0.377138
     15          6           0       12.837529    1.087244    0.133971
     16          6           0       11.388424    0.485981    2.110214
     17          6           0       -9.827609   -0.970058    0.487552
     18          6           0        9.845263    0.484132   -0.406277
     19          6           0      -10.185559    1.652213    1.928955
     20          6           0        9.989890   -2.161270   -1.818305
     21          6           0       -8.541853   -0.497654    0.311520
     22          6           0        8.497076    0.324209   -0.158509
     23          6           0       -7.363352   -1.381160    0.477875
     24          6           0        7.528904    1.404524   -0.242492
     25          6           0       -7.565697   -2.799813    0.759912
     26          6           0        7.967864    2.743494   -0.644406
     27          6           0       -6.123843   -0.850585    0.254266
     28          6           0        6.210139    1.046919   -0.136241
     29          6           0       -4.819191   -1.495756    0.316574
     30          6           0        5.005342    1.800353   -0.234114
     31          6           0       -3.688633   -0.726217    0.154071
     32          6           0        3.782576    1.267806    0.085152
     33          6           0       -2.443755   -1.253702    0.351026
     34          6           0        2.476937    1.967272   -0.162862
     35          6           0       -2.312508   -2.710817    0.678711
     36          6           0        2.567997    3.404038   -0.671306
     37          6           0       -1.298606   -0.473919    0.220025
     38          6           0        1.328579    1.282118   -0.063233
     39          6           0       -1.171181    0.958427   -0.307404
     40          6           0       -0.027768    1.644337   -0.314354
     41          1           0      -14.107698    0.161717    0.134287
     42          1           0      -13.829492    0.144786   -1.761559
     43          1           0       12.644727   -1.845245    1.949578
     44          1           0       13.763716   -0.695811    1.658095
     45          1           0      -13.746963    2.495046   -1.021754
     46          1           0      -12.198826    1.783450   -1.648338
     47          1           0       13.947840   -2.759649    0.008645
     48          1           0       13.948995   -1.596548   -0.715413
     49          1           0      -12.698764    2.125543    1.690583
     50          1           0      -11.789547    3.141904    0.347087
     51          1           0       11.570253   -3.418946    0.083288
     52          1           0       12.391846   -3.273552   -1.543390
     53          1           0      -11.365717    0.677822   -2.365715
     54          1           0      -12.224551   -0.822843   -2.862770
     55          1           0      -10.723686   -1.145397   -2.225848
     56          1           0      -13.000925   -2.006424    0.558731
     57          1           0      -11.662201   -2.600757   -0.461627
     58          1           0      -13.121980   -2.244156   -1.448605
     59          1           0       13.626796    0.621853   -0.550773
     60          1           0       13.419705    1.714238    0.855150
     61          1           0       12.305101    1.686092   -0.534793
     62          1           0       10.636058   -0.246213    2.609209
     63          1           0       10.861136    1.445729    1.867028
     64          1           0       12.149398    0.750963    2.794464
     65          1           0       -9.905315   -2.012714    0.715923
     66          1           0       10.195257    1.431809   -0.967071
     67          1           0       -9.596794    0.960227    2.330000
     68          1           0      -10.966754    2.096701    2.793395
     69          1           0       -9.532711    2.569442    1.643245
     70          1           0        9.317858   -1.201006   -2.106573
     71          1           0        9.223058   -2.893808   -1.375657
     72          1           0       10.449025   -2.407456   -2.586966
     73          1           0       -8.346528    0.313017   -0.024102
     74          1           0        8.155820   -0.630560    0.201297
     75          1           0       -8.093336   -2.913860    1.602569
     76          1           0       -6.577057   -3.460891    0.687197
     77          1           0       -8.076776   -3.414362    0.016329
     78          1           0        8.507976    2.519261   -1.817454
     79          1           0        8.506116    3.512526    0.107155
     80          1           0        7.022949    3.480984   -0.908409
     81          1           0       -6.090112    0.049873   -0.013858
     82          1           0        5.927675   -0.032512    0.076532
     83          1           0       -4.725015   -2.411785    0.507099
     84          1           0        5.035612    2.835398   -0.475184
     85          1           0       -3.645096    0.288414   -0.111429
     86          1           0        3.609017    0.208656    0.315606
     87          1           0       -2.764680   -3.017847    1.566235
     88          1           0       -1.193965   -2.833172    0.796905
     89          1           0       -2.604386   -3.381120   -0.199685
     90          1           0        3.045033    3.316814   -1.750487
     91          1           0        3.220986    4.054979   -0.176352
     92          1           0        1.560772    3.821053   -0.582938
     93          1           0       -0.335086   -0.865070    0.398012
     94          1           0        1.418343    0.237607    0.280104
     95          1           0       -2.104786    1.461832   -0.507285
     96          1           0       -0.097657    2.644094   -0.460380
 ---------------------------------------------------------------------

 SCF Done:  E(RB3LYP) =  -1557.46452315     A.U. after   15 cycles

 Excitation energies and oscillator strengths:

 Excited State   1:      Singlet-A      2.3073 eV  537.37 nm  f=2.7839  <S**2>=0.000
     148 ->149         0.70561
 This state for optimization and/or second-order correction.
 Total Energy, E(TD-HF/TD-DFT) =  -1557.37973287
 Copying the excited state density for this state as the 1-particle RhoCI density.

 The electronic state is 1-A.
 Alpha  occ. eigenvalues --  -10.22267 -10.20312 -10.19941 -10.19625 -10.19535
 Alpha  occ. eigenvalues --  -10.19418 -10.19375 -10.19348 -10.19220 -10.19215
 Alpha  occ. eigenvalues --  -10.19037 -10.19031 -10.18946 -10.18933 -10.18874
 Alpha  occ. eigenvalues --  -10.18842 -10.18827 -10.18784 -10.18588 -10.18555
 Alpha  occ. eigenvalues --  -10.18507 -10.18347 -10.18346 -10.18171 -10.18146
 Alpha  occ. eigenvalues --  -10.18137 -10.17902 -10.17720 -10.17689 -10.17594
 Alpha  occ. eigenvalues --  -10.17511 -10.17371 -10.17154 -10.17093 -10.17020
 Alpha  occ. eigenvalues --  -10.16903 -10.16875 -10.16867 -10.16433 -10.14483
 Alpha  occ. eigenvalues --   -0.85208  -0.84527  -0.84126  -0.83271  -0.82382
 Alpha  occ. eigenvalues --   -0.81890  -0.79303  -0.79117  -0.78445  -0.77953
 Alpha  occ. eigenvalues --   -0.77341  -0.75573  -0.74728  -0.72718  -0.72132
 Alpha  occ. eigenvalues --   -0.69986  -0.69647  -0.68575  -0.68020  -0.67981
 Alpha  occ. eigenvalues --   -0.67379  -0.67246  -0.66760  -0.66603  -0.66235
 Alpha  occ. eigenvalues --   -0.63417  -0.62685  -0.60780  -0.59639  -0.57289
 Alpha  occ. eigenvalues --   -0.56845  -0.55565  -0.55335  -0.55122  -0.54282
 Alpha  occ. eigenvalues --   -0.53313  -0.52284  -0.50919  -0.49777  -0.49084
 Alpha  occ. eigenvalues --   -0.48624  -0.48037  -0.47470  -0.47000  -0.46485
 Alpha  occ. eigenvalues --   -0.46060  -0.45397  -0.45229  -0.44510  -0.44230
 Alpha  occ. eigenvalues --   -0.43795  -0.43719  -0.43343  -0.43033  -0.42739
 Alpha  occ. eigenvalues --   -0.42287  -0.42188  -0.41979  -0.41841  -0.41291
 Alpha  occ. eigenvalues --   -0.41114  -0.40863  -0.40641  -0.40546  -0.39959
 Alpha  occ. eigenvalues --   -0.39888  -0.39474  -0.38786  -0.38586  -0.38198
 Alpha  occ. eigenvalues --   -0.38086  -0.37565  -0.37404  -0.37045  -0.36700
 Alpha  occ. eigenvalues --   -0.36291  -0.36171  -0.35630  -0.35384  -0.35289
 Alpha  occ. eigenvalues --   -0.35233  -0.34597  -0.34508  -0.34192  -0.33834
 Alpha  occ. eigenvalues --   -0.33686  -0.33453  -0.33251  -0.33158  -0.32884
 Alpha  occ. eigenvalues --   -0.32507  -0.32274  -0.31491  -0.31101  -0.31008
 Alpha  occ. eigenvalues --   -0.30424  -0.29494  -0.29255  -0.28806  -0.28174
 Alpha  occ. eigenvalues --   -0.27780  -0.27120  -0.25696  -0.23566  -0.22048
 Alpha  occ. eigenvalues --   -0.20859  -0.18742  -0.16739
 Alpha virt. eigenvalues --   -0.07765  -0.05096  -0.01490   0.00597   0.02594
 Alpha virt. eigenvalues --    0.03264   0.05172   0.06272   0.06486   0.06942
 Alpha virt. eigenvalues --    0.07696   0.08315   0.08828   0.08994   0.09339

 Mulliken charges:
               1
     1  C   -0.035835
     2  C    0.019185
     3  C   -0.152326
     4  C   -0.187371
     5  C   -0.186919
     6  C   -0.124038
     7  C    0.079499
     8  C    0.054455
     9  C   -0.181834
    10  C   -0.217518
    11  C    0.074248
    12  C    0.036736
    13  C   -0.275623
    14  C   -0.270717
    15  C   -0.311484
    16  C   -0.300966
    17  C   -0.168430
    18  C   -0.156735
    19  C   -0.336279
    20  C   -0.335548
    21  C   -0.013492
    22  C   -0.075760
    23  C    0.110572
    24  C    0.147503
    25  C   -0.388899
    26  C   -0.360562
    27  C   -0.096589
    28  C   -0.123489
    29  C   -0.059313
    30  C   -0.069172
    31  C   -0.073305
    32  C   -0.112044
    33  C    0.125232
    34  C    0.111902
    35  C   -0.380858
    36  C   -0.372865
    37  C   -0.149507
    38  C   -0.113912
    39  C   -0.091177
    40  C   -0.077106
    41  H    0.069430
    42  H    0.087597
    43  H    0.092174
    44  H    0.090444
    45  H    0.082279
    46  H    0.083625
    47  H    0.069999
    48  H    0.096452
    49  H    0.078311
    50  H    0.092322
    51  H    0.086822
    52  H    0.086938
    53  H    0.062707
    54  H    0.116744
    55  H    0.091178
    56  H    0.108201
    57  H    0.115102
    58  H    0.051103
    59  H    0.090624
    60  H    0.094071
    61  H    0.111799
    62  H    0.093082
    63  H    0.097694
    64  H    0.092072
    65  H    0.081277
    66  H    0.089205
    67  H    0.126810
    68  H    0.063512
    69  H    0.103356
    70  H    0.084797
    71  H    0.103189
    72  H    0.115525
    73  H    0.041564
    74  H    0.084749
    75  H    0.131607
    76  H    0.087647
    77  H    0.121048
    78  H    0.089061
    79  H    0.116543
    80  H    0.084158
    81  H    0.045144
    82  H    0.071012
    83  H    0.055478
    84  H    0.075606
    85  H    0.067083
    86  H    0.076513
    87  H    0.129243
    88  H    0.097694
    89  H    0.115880
    90  H    0.113933
    91  H    0.129437
    92  H    0.108681
    93  H    0.073318
    94  H    0.066495
    95  H    0.082630
    96  H    0.067375
 Sum of Mulliken charges =  -0.00000

 Dipole moment (field-independent basis, Debye):
    X=              1.1891    Y=             -0.0672    Z=             -0.4676  Tot=              1.2795
 Quadrupole moment (field-independent basis, Debye-Ang):
   XX=           -226.6423   YY=           -234.7167   ZZ=           -253.5506
   XY=              1.1127   XZ=             -1.0293   YZ=             -2.5986

 Normal termination of Gaussian 16 at Mon Jul 29 23:12:17 2019.
