 Gaussian 16, Revision A.03,
 Gaussian 16:  ES64L-G16RevA.03 25-Dec-2016

 ---------------------------------
 # td=(NStates=1) B3LYP/6-31G(d,p)
 ---------------------------------

 --
 TD
 --
 Symbolic Z-matrix:
 Charge =  0 Multiplicity = 1

                         Standard orientation:
 ---------------------------------------------------------------------
 Center     Atomic      Atomic             Coordinates (Angstroms)
 Number     Number       Type             X           Y           Z
 ---------------------------------------------------------------------
      1          6           0       11.996649    0.490385   -0.929164
      2          6           0      -12.083860    0.009946    0.899358
      3          6           0       13.330225   -0.323910   -0.807382
      4          6           0      -12.990128    1.100442    1.236465
      5          6           0       13.148803   -1.869528   -0.563178
      6          6           0      -13.309840    2.038338    0.115470
      7          6           0       11.087365    0.072869    0.235132
      8          6           0      -11.019357    0.485301   -0.077530
      9          6           0       12.315518   -2.093711    0.784180
     10          6           0      -12.131477    2.679043   -0.491632
     11          6           0       11.170555   -1.027370    1.088168
     12          6           0      -11.088209    1.631161   -0.794544
     13          6           0       11.195517    0.165391   -2.287867
     14          6           0       12.429259    1.968789   -0.857595
     15          6           0      -12.903883   -1.085769    0.058202
     16          6           0      -11.459832   -0.655030    2.180448
     17          6           0        9.874332    0.938410    0.380344
     18          6           0       -9.923554   -0.569662   -0.334887
     19          6           0       10.191277   -1.395145    2.196552
     20          6           0      -10.024280    1.963208   -1.757670
     21          6           0        8.612599    0.476162    0.367567
     22          6           0       -8.565112   -0.350410   -0.183975
     23          6           0        7.436549    1.285467    0.632998
     24          6           0       -7.544954   -1.393055   -0.348066
     25          6           0        7.639106    2.729420    0.824422
     26          6           0       -7.904754   -2.851940   -0.613381
     27          6           0        6.190376    0.795041    0.486661
     28          6           0       -6.269898   -0.975173   -0.295554
     29          6           0        4.967647    1.362959    0.484928
     30          6           0       -5.001589   -1.709606   -0.337675
     31          6           0        3.758659    0.626614    0.319923
     32          6           0       -3.819704   -1.141840   -0.361128
     33          6           0        2.402715    1.276018    0.284429
     34          6           0       -2.470720   -1.816361   -0.385291
     35          6           0        2.309077    2.830624    0.541922
     36          6           0       -2.515005   -3.351454   -0.483834
     37          6           0        1.290430    0.628096    0.015222
     38          6           0       -1.366144   -1.046152   -0.402094
     39          6           0        1.150610   -0.804064   -0.219800
     40          6           0        0.007559   -1.529224   -0.345923
     41          1           0       14.021312    0.009246    0.091513
     42          1           0       14.028296   -0.176293   -1.657525
     43          1           0      -12.309797    1.726653    1.886597
     44          1           0      -13.906944    0.937647    1.690707
     45          1           0       14.085831   -2.398324   -0.798992
     46          1           0       12.284088   -2.368303   -1.307165
     47          1           0      -13.948549    2.849381    0.590596
     48          1           0      -13.978593    1.618718   -0.607184
     49          1           0       13.144761   -1.831902    1.605810
     50          1           0       11.993943   -3.039395    1.072787
     51          1           0      -11.755148    3.436459    0.080888
     52          1           0      -12.470105    3.258808   -1.325191
     53          1           0       10.973856   -0.865483   -2.383233
     54          1           0       11.845473    0.507008   -3.152145
     55          1           0       10.314247    0.681090   -2.604561
     56          1           0       12.896060    2.143385    0.185142
     57          1           0       11.682228    2.766883   -0.937440
     58          1           0       13.365443    2.233717   -1.697738
     59          1           0      -13.526632   -0.490825   -0.675870
     60          1           0      -13.625233   -1.657825    0.642301
     61          1           0      -12.137069   -1.766567   -0.459034
     62          1           0      -10.898257    0.061727    2.673452
     63          1           0      -10.800095   -1.462370    2.037087
     64          1           0      -12.392272   -1.003136    2.676314
     65          1           0        9.990425    2.104892    0.270290
     66          1           0      -10.174294   -1.668460   -0.702216
     67          1           0        9.656147   -0.532507    2.544488
     68          1           0       10.607841   -1.758148    3.028886
     69          1           0        9.795110   -2.236469    1.737606
     70          1           0       -9.314414    1.084328   -2.124696
     71          1           0       -9.415191    2.709246   -1.551028
     72          1           0      -10.414302    2.424171   -2.634898
     73          1           0        8.352720   -0.538682    0.529036
     74          1           0       -8.143951    0.673841   -0.092392
     75          1           0        8.197377    2.910925    1.934030
     76          1           0        6.675614    3.231875    0.910172
     77          1           0        8.142288    3.207232    0.141796
     78          1           0       -8.136317   -2.766744   -1.692164
     79          1           0       -8.770110   -3.079915   -0.025358
     80          1           0       -6.961270   -3.614187   -0.391727
     81          1           0        6.112544   -0.370655    0.307900
     82          1           0       -6.061008    0.098460   -0.111247
     83          1           0        4.940606    2.497273    0.358615
     84          1           0       -5.095056   -2.738808   -0.344963
     85          1           0        3.707249   -0.410812    0.133757
     86          1           0       -3.707982    0.091025   -0.588544
     87          1           0        2.664655    2.971296    1.674039
     88          1           0        1.309348    2.927272    0.327760
     89          1           0        2.985588    3.426263   -0.238119
     90          1           0       -2.845630   -3.486103   -1.432930
     91          1           0       -3.271356   -3.565814    0.210375
     92          1           0       -1.544582   -3.713687   -0.214249
     93          1           0        0.488665    1.400020   -0.076274
     94          1           0       -1.556100    0.130011   -0.333571
     95          1           0        1.999086   -1.416244   -0.186844
     96          1           0        0.224311   -2.546860   -0.519983
 ---------------------------------------------------------------------

 SCF Done:  E(RB3LYP) =  -1557.61531795     A.U. after   15 cycles

 Excitation energies and oscillator strengths:

 Excited State   1:      Singlet-A      2.5053 eV  494.89 nm  f=2.7418  <S**2>=0.000
     148 ->149         0.70030
 This state for optimization and/or second-order correction.
 Total Energy, E(TD-HF/TD-DFT) =  -1557.52324953
 Copying the excited state density for this state as the 1-particle RhoCI density.

 The electronic state is 1-A.
 Alpha  occ. eigenvalues --  -10.21488 -10.20320 -10.20260 -10.19996 -10.19962
 Alpha  occ. eigenvalues --  -10.19912 -10.19899 -10.19733 -10.19611 -10.19498
 Alpha  occ. eigenvalues --  -10.19494 -10.19359 -10.19346 -10.19311 -10.19310
 Alpha  occ. eigenvalues --  -10.19259 -10.19155 -10.19095 -10.18882 -10.18801
 Alpha  occ. eigenvalues --  -10.18716 -10.18664 -10.18596 -10.18580 -10.18434
 Alpha  occ. eigenvalues --  -10.18296 -10.18215 -10.18143 -10.18050 -10.17629
 Alpha  occ. eigenvalues --  -10.17486 -10.17356 -10.17208 -10.17080 -10.17021
 Alpha  occ. eigenvalues --  -10.16785 -10.16654 -10.16397 -10.16041 -10.16025
 Alpha  occ. eigenvalues --   -0.85636  -0.84028  -0.83298  -0.82938  -0.82216
 Alpha  occ. eigenvalues --   -0.81349  -0.78643  -0.78478  -0.77915  -0.77367
 Alpha  occ. eigenvalues --   -0.76706  -0.75176  -0.74461  -0.72068  -0.71712
 Alpha  occ. eigenvalues --   -0.70150  -0.68810  -0.68715  -0.68495  -0.68086
 Alpha  occ. eigenvalues --   -0.67938  -0.67735  -0.66956  -0.66525  -0.66001
 Alpha  occ. eigenvalues --   -0.62453  -0.61699  -0.59685  -0.58504  -0.57437
 Alpha  occ. eigenvalues --   -0.56751  -0.55983  -0.54615  -0.53647  -0.52476
 Alpha  occ. eigenvalues --   -0.51992  -0.51596  -0.49837  -0.49626  -0.48503
 Alpha  occ. eigenvalues --   -0.48113  -0.47511  -0.47158  -0.46517  -0.46099
 Alpha  occ. eigenvalues --   -0.45592  -0.45334  -0.44641  -0.44252  -0.44106
 Alpha  occ. eigenvalues --   -0.43438  -0.43277  -0.43068  -0.42897  -0.42799
 Alpha  occ. eigenvalues --   -0.42407  -0.42235  -0.41488  -0.41311  -0.40951
 Alpha  occ. eigenvalues --   -0.40808  -0.40695  -0.40547  -0.40263  -0.39987
 Alpha  occ. eigenvalues --   -0.39041  -0.38914  -0.38502  -0.38233  -0.37966
 Alpha  occ. eigenvalues --   -0.37755  -0.37242  -0.37101  -0.36587  -0.36474
 Alpha  occ. eigenvalues --   -0.36164  -0.35933  -0.35780  -0.35507  -0.35428
 Alpha  occ. eigenvalues --   -0.34937  -0.34757  -0.34544  -0.34354  -0.33954
 Alpha  occ. eigenvalues --   -0.33722  -0.33455  -0.33168  -0.32928  -0.32454
 Alpha  occ. eigenvalues --   -0.32199  -0.31765  -0.31632  -0.31249  -0.30805
 Alpha  occ. eigenvalues --   -0.30106  -0.30031  -0.29083  -0.28833  -0.28686
 Alpha  occ. eigenvalues --   -0.28648  -0.27728  -0.26364  -0.23349  -0.22302
 Alpha  occ. eigenvalues --   -0.21202  -0.19031  -0.17012
 Alpha virt. eigenvalues --   -0.07217  -0.04740  -0.01112   0.01240   0.02668
 Alpha virt. eigenvalues --    0.04288   0.05848   0.06652   0.07181   0.07773
 Alpha virt. eigenvalues --    0.08061   0.08353   0.08530   0.08666   0.09292

 Mulliken charges:
               1
     1  C    0.020549
     2  C    0.003322
     3  C   -0.167415
     4  C   -0.158959
     5  C   -0.181704
     6  C   -0.199392
     7  C    0.062777
     8  C    0.037604
     9  C   -0.214463
    10  C   -0.214904
    11  C    0.033853
    12  C    0.096540
    13  C   -0.307040
    14  C   -0.291581
    15  C   -0.304239
    16  C   -0.294516
    17  C   -0.156732
    18  C   -0.168762
    19  C   -0.352249
    20  C   -0.377982
    21  C   -0.069316
    22  C   -0.077595
    23  C    0.109574
    24  C    0.111803
    25  C   -0.361286
    26  C   -0.365813
    27  C   -0.096716
    28  C   -0.134401
    29  C   -0.086274
    30  C   -0.073368
    31  C   -0.106567
    32  C   -0.097294
    33  C    0.081960
    34  C    0.083657
    35  C   -0.341564
    36  C   -0.356355
    37  C   -0.109685
    38  C   -0.113556
    39  C   -0.096652
    40  C   -0.099900
    41  H    0.084517
    42  H    0.089345
    43  H    0.079219
    44  H    0.090590
    45  H    0.101620
    46  H    0.063639
    47  H    0.071308
    48  H    0.101564
    49  H    0.077311
    50  H    0.099716
    51  H    0.117176
    52  H    0.094049
    53  H    0.112356
    54  H    0.083287
    55  H    0.115320
    56  H    0.098395
    57  H    0.105044
    58  H    0.064130
    59  H    0.093877
    60  H    0.093205
    61  H    0.091404
    62  H    0.107439
    63  H    0.106549
    64  H    0.091123
    65  H    0.070584
    66  H    0.081571
    67  H    0.131462
    68  H    0.116802
    69  H    0.128852
    70  H    0.103749
    71  H    0.122329
    72  H    0.095499
    73  H    0.080115
    74  H    0.089871
    75  H    0.079851
    76  H    0.098438
    77  H    0.134092
    78  H    0.136813
    79  H    0.126334
    80  H    0.093177
    81  H    0.054312
    82  H    0.066669
    83  H    0.081997
    84  H    0.067082
    85  H    0.078710
    86  H    0.056245
    87  H    0.114853
    88  H    0.107959
    89  H    0.102618
    90  H    0.142675
    91  H    0.126875
    92  H    0.113880
    93  H    0.071095
    94  H    0.072286
    95  H    0.079756
    96  H    0.075907
 Sum of Mulliken charges =  -0.00000

 Dipole moment (field-independent basis, Debye):
    X=              0.1950    Y=             -0.2113    Z=             -0.2431  Tot=              0.3766
 Quadrupole moment (field-independent basis, Debye-Ang):
   XX=           -223.6912   YY=           -233.2199   ZZ=           -254.9358
   XY=             -8.1622   XZ=              2.9230   YZ=             -1.4779

 Normal termination of Gaussian 16 at Tue Jul 23 11:14:09 2019.
