 Gaussian 16, Revision A.03,
 Gaussian 16:  ES64L-G16RevA.03 25-Dec-2016

 ---------------------------------
 # td=(NStates=1) B3LYP/6-31G(d,p)
 ---------------------------------

 --
 TD
 --
 Symbolic Z-matrix:
 Charge =  0 Multiplicity = 1

                         Standard orientation:
 ---------------------------------------------------------------------
 Center     Atomic      Atomic             Coordinates (Angstroms)
 Number     Number       Type             X           Y           Z
 ---------------------------------------------------------------------
      1          6           0       12.186964   -0.568759    0.739570
      2          6           0      -12.135645    0.034814   -0.910153
      3          6           0       13.413776    0.254679    0.648516
      4          6           0      -13.062686   -1.285346   -1.270906
      5          6           0       13.166483    1.687312    0.654499
      6          6           0      -13.474199   -1.943987   -0.086025
      7          6           0       11.074294   -0.052078   -0.254724
      8          6           0      -11.064445   -0.403591    0.209035
      9          6           0       12.279477    2.200263   -0.533405
     10          6           0      -12.293334   -2.545470    0.739247
     11          6           0       11.169977    1.214125   -0.786989
     12          6           0      -11.151198   -1.585849    0.977547
     13          6           0       11.568325   -0.577767    2.135639
     14          6           0       12.595129   -1.983766    0.390873
     15          6           0      -13.022742    1.117585   -0.297218
     16          6           0      -11.396034    0.472027   -2.210921
     17          6           0        9.898500   -0.969481   -0.452344
     18          6           0       -9.952477    0.558580    0.346874
     19          6           0       10.234058    1.800213   -1.812487
     20          6           0      -10.075920   -1.886728    2.017121
     21          6           0        8.552959   -0.537769   -0.088792
     22          6           0       -8.549218    0.341159    0.253608
     23          6           0        7.439753   -1.346779   -0.390215
     24          6           0       -7.468830    1.219795    0.400532
     25          6           0        7.484874   -2.802566   -0.898452
     26          6           0       -7.877892    2.696952    0.500331
     27          6           0        6.219684   -0.783873   -0.234109
     28          6           0       -6.154497    0.844215    0.125754
     29          6           0        4.922756   -1.353712   -0.443790
     30          6           0       -4.999880    1.561589    0.213515
     31          6           0        3.772103   -0.632258   -0.257323
     32          6           0       -3.770548    1.090097    0.178201
     33          6           0        2.436776   -1.274912   -0.346969
     34          6           0       -2.558955    1.881848    0.344477
     35          6           0        2.311527   -2.683168   -0.722581
     36          6           0       -2.583844    3.313942    0.772114
     37          6           0        1.297072   -0.455861   -0.124115
     38          6           0       -1.380414    1.174177    0.141372
     39          6           0        1.209146    0.927088    0.020229
     40          6           0        0.028797    1.594781    0.049040
     41          1           0       14.038552   -0.112317   -0.349132
     42          1           0       13.937585    0.089900    1.528220
     43          1           0      -12.627759   -2.099153   -1.914554
     44          1           0      -13.771849   -0.635176   -1.931035
     45          1           0       14.138834    2.386605    0.677818
     46          1           0       12.755217    1.974482    1.552853
     47          1           0      -14.041073   -2.896849   -0.234663
     48          1           0      -13.924421   -1.451302    0.590275
     49          1           0       12.846028    2.288787   -1.312541
     50          1           0       11.729282    3.181087   -0.095214
     51          1           0      -11.940721   -3.461451    0.307221
     52          1           0      -12.622090   -2.906116    1.818133
     53          1           0       11.150407    0.415353    2.659034
     54          1           0       12.219325   -0.844232    3.076106
     55          1           0       10.775146   -1.386695    2.207740
     56          1           0       12.994497   -2.309012   -0.693817
     57          1           0       11.594404   -2.659217    0.522883
     58          1           0       13.334528   -2.425463    0.976451
     59          1           0      -13.792622    0.757372    0.475821
     60          1           0      -13.753599    1.553694   -0.943246
     61          1           0      -12.507911    1.998859    0.378372
     62          1           0      -10.656112   -0.235101   -2.471617
     63          1           0      -11.032082    1.404476   -2.154615
     64          1           0      -12.078309    0.592250   -2.997824
     65          1           0       10.189530   -1.848122   -1.036658
     66          1           0      -10.428623    1.595164    0.356906
     67          1           0        9.467151    1.103983   -2.156623
     68          1           0       10.735705    2.207541   -2.687531
     69          1           0        9.513814    2.604705   -1.483164
     70          1           0       -9.583043   -0.903685    2.193635
     71          1           0       -9.364660   -2.735094    1.912692
     72          1           0      -10.515278   -2.177373    3.078121
     73          1           0        8.468605    0.420074    0.287987
     74          1           0       -8.214346   -0.654448   -0.077317
     75          1           0        8.259109   -2.915664   -1.554225
     76          1           0        6.442923   -3.190640   -1.273669
     77          1           0        7.857663   -3.359486    0.021446
     78          1           0       -8.380779    2.933238    1.624613
     79          1           0       -8.342944    2.821207   -0.341157
     80          1           0       -7.051257    3.341208    0.745498
     81          1           0        6.217818    0.432315   -0.117634
     82          1           0       -6.134300   -0.301260   -0.078242
     83          1           0        4.910281   -2.513801   -0.558440
     84          1           0       -5.118893    2.567831    0.480177
     85          1           0        3.713944    0.404581   -0.007818
     86          1           0       -3.550553    0.091484   -0.030520
     87          1           0        2.579033   -2.789377   -1.895006
     88          1           0        1.398645   -2.853908   -0.655373
     89          1           0        2.885580   -3.517158   -0.146224
     90          1           0       -3.082743    3.398848    1.831265
     91          1           0       -2.991666    4.014701    0.036742
     92          1           0       -1.605562    3.508700    1.025625
     93          1           0        0.402827   -1.069624   -0.103635
     94          1           0       -1.480091    0.057923   -0.005476
     95          1           0        2.157997    1.555110    0.125664
     96          1           0        0.140853    2.681142    0.396239
 ---------------------------------------------------------------------

 SCF Done:  E(RB3LYP) =  -1557.56946273     A.U. after   16 cycles

 Excitation energies and oscillator strengths:

 Excited State   1:      Singlet-A      2.0687 eV  599.35 nm  f=3.1240  <S**2>=0.000
     148 ->149         0.71017
     148 <-149        -0.10609
 This state for optimization and/or second-order correction.
 Total Energy, E(TD-HF/TD-DFT) =  -1557.49344084
 Copying the excited state density for this state as the 1-particle RhoCI density.

 The electronic state is 1-A.
 Alpha  occ. eigenvalues --  -10.21334 -10.20291 -10.20268 -10.20073 -10.19743
 Alpha  occ. eigenvalues --  -10.19690 -10.19621 -10.19596 -10.19517 -10.19515
 Alpha  occ. eigenvalues --  -10.19511 -10.19497 -10.19318 -10.19272 -10.19074
 Alpha  occ. eigenvalues --  -10.19063 -10.19006 -10.18994 -10.18937 -10.18886
 Alpha  occ. eigenvalues --  -10.18875 -10.18801 -10.18796 -10.18766 -10.18732
 Alpha  occ. eigenvalues --  -10.18707 -10.18594 -10.18532 -10.18526 -10.18295
 Alpha  occ. eigenvalues --  -10.18042 -10.17861 -10.17741 -10.17672 -10.17325
 Alpha  occ. eigenvalues --  -10.17283 -10.17153 -10.17047 -10.16278 -10.15528
 Alpha  occ. eigenvalues --   -0.85117  -0.84042  -0.83721  -0.83279  -0.82285
 Alpha  occ. eigenvalues --   -0.81470  -0.78944  -0.78591  -0.77768  -0.77383
 Alpha  occ. eigenvalues --   -0.76826  -0.75871  -0.74825  -0.71612  -0.71375
 Alpha  occ. eigenvalues --   -0.70382  -0.69070  -0.69009  -0.68685  -0.67588
 Alpha  occ. eigenvalues --   -0.67393  -0.66933  -0.66881  -0.66670  -0.65613
 Alpha  occ. eigenvalues --   -0.62833  -0.62134  -0.59793  -0.58945  -0.57200
 Alpha  occ. eigenvalues --   -0.56684  -0.55892  -0.55142  -0.54238  -0.53161
 Alpha  occ. eigenvalues --   -0.51985  -0.51891  -0.50291  -0.49371  -0.49154
 Alpha  occ. eigenvalues --   -0.48658  -0.47504  -0.47230  -0.46536  -0.46094
 Alpha  occ. eigenvalues --   -0.45630  -0.45272  -0.44895  -0.44794  -0.44147
 Alpha  occ. eigenvalues --   -0.43740  -0.43333  -0.43252  -0.42862  -0.42668
 Alpha  occ. eigenvalues --   -0.42466  -0.41582  -0.41487  -0.41099  -0.40856
 Alpha  occ. eigenvalues --   -0.40676  -0.40483  -0.40191  -0.39863  -0.39467
 Alpha  occ. eigenvalues --   -0.39212  -0.38958  -0.38774  -0.38490  -0.38152
 Alpha  occ. eigenvalues --   -0.37520  -0.37303  -0.36868  -0.36730  -0.36587
 Alpha  occ. eigenvalues --   -0.36200  -0.35883  -0.35519  -0.35392  -0.35338
 Alpha  occ. eigenvalues --   -0.34797  -0.34388  -0.34050  -0.33972  -0.33508
 Alpha  occ. eigenvalues --   -0.33351  -0.33237  -0.32898  -0.32723  -0.32451
 Alpha  occ. eigenvalues --   -0.32257  -0.32128  -0.31853  -0.31463  -0.31200
 Alpha  occ. eigenvalues --   -0.30921  -0.30732  -0.30435  -0.28998  -0.28153
 Alpha  occ. eigenvalues --   -0.27525  -0.26663  -0.25590  -0.23288  -0.22497
 Alpha  occ. eigenvalues --   -0.21043  -0.18357  -0.16105
 Alpha virt. eigenvalues --   -0.08392  -0.05511  -0.02361   0.00979   0.02484
 Alpha virt. eigenvalues --    0.03412   0.05453   0.06881   0.07038   0.07494
 Alpha virt. eigenvalues --    0.07529   0.08408   0.08850   0.08953   0.09551

 Mulliken charges:
               1
     1  C    0.023137
     2  C   -0.008474
     3  C   -0.141875
     4  C   -0.152192
     5  C   -0.198989
     6  C   -0.170257
     7  C    0.044161
     8  C    0.039200
     9  C   -0.194794
    10  C   -0.246894
    11  C    0.061698
    12  C    0.093347
    13  C   -0.301602
    14  C   -0.299972
    15  C   -0.313942
    16  C   -0.298966
    17  C   -0.166125
    18  C   -0.158048
    19  C   -0.368530
    20  C   -0.367350
    21  C   -0.093767
    22  C   -0.103383
    23  C    0.134732
    24  C    0.104332
    25  C   -0.361760
    26  C   -0.348769
    27  C   -0.124394
    28  C   -0.112610
    29  C   -0.092661
    30  C   -0.071022
    31  C   -0.082913
    32  C   -0.081707
    33  C    0.089323
    34  C    0.118182
    35  C   -0.347794
    36  C   -0.371571
    37  C   -0.124104
    38  C   -0.129642
    39  C   -0.072853
    40  C   -0.109705
    41  H    0.061353
    42  H    0.097687
    43  H    0.088934
    44  H    0.078126
    45  H    0.055046
    46  H    0.107050
    47  H    0.084077
    48  H    0.114242
    49  H    0.120177
    50  H    0.085469
    51  H    0.109548
    52  H    0.078187
    53  H    0.088988
    54  H    0.079833
    55  H    0.108765
    56  H    0.082534
    57  H    0.068577
    58  H    0.114950
    59  H    0.099257
    60  H    0.106349
    61  H    0.089550
    62  H    0.116606
    63  H    0.108300
    64  H    0.094870
    65  H    0.104641
    66  H    0.082001
    67  H    0.110639
    68  H    0.107025
    69  H    0.098828
    70  H    0.127502
    71  H    0.112061
    72  H    0.074685
    73  H    0.096350
    74  H    0.078028
    75  H    0.129333
    76  H    0.105409
    77  H    0.117547
    78  H    0.079816
    79  H    0.140470
    80  H    0.106467
    81  H    0.055148
    82  H    0.060103
    83  H    0.080916
    84  H    0.074484
    85  H    0.076001
    86  H    0.070431
    87  H    0.104591
    88  H    0.113941
    89  H    0.105881
    90  H    0.108569
    91  H    0.126549
    92  H    0.122702
    93  H    0.074345
    94  H    0.071075
    95  H    0.091371
    96  H    0.063169
 Sum of Mulliken charges =  -0.00000

 Dipole moment (field-independent basis, Debye):
    X=             -0.1831    Y=             -0.1555    Z=             -0.1571  Tot=              0.2870
 Quadrupole moment (field-independent basis, Debye-Ang):
   XX=           -228.7620   YY=           -234.3640   ZZ=           -252.7590
   XY=             -3.2494   XZ=              3.5353   YZ=              4.1224

 Normal termination of Gaussian 16 at Sun Jul 28 04:04:13 2019.
