 Gaussian 16, Revision A.03,
 Gaussian 16:  ES64L-G16RevA.03 25-Dec-2016

 ---------------------------------
 # td=(NStates=1) B3LYP/6-31G(d,p)
 ---------------------------------

 --
 TD
 --
 Symbolic Z-matrix:
 Charge =  0 Multiplicity = 1

                         Standard orientation:
 ---------------------------------------------------------------------
 Center     Atomic      Atomic             Coordinates (Angstroms)
 Number     Number       Type             X           Y           Z
 ---------------------------------------------------------------------
      1          6           0      -12.158812   -0.516868   -0.631982
      2          6           0       12.076260    0.019324    0.900028
      3          6           0      -13.395478    0.342108   -0.569515
      4          6           0       12.895720   -1.253195    1.297854
      5          6           0      -13.065377    1.977925   -0.862241
      6          6           0       13.410187   -2.009880    0.110647
      7          6           0      -11.013011    0.014962    0.309667
      8          6           0       10.943628   -0.452780   -0.086842
      9          6           0      -12.088146    2.304602    0.397648
     10          6           0       12.170335   -2.563510   -0.686839
     11          6           0      -11.090866    1.258375    0.834550
     12          6           0       11.035423   -1.535390   -0.864174
     13          6           0      -11.591588   -0.639009   -2.100034
     14          6           0      -12.640476   -1.933025   -0.002660
     15          6           0       12.959134    1.152096    0.306854
     16          6           0       11.446574    0.725350    2.164296
     17          6           0       -9.831794   -0.872605    0.516606
     18          6           0        9.862576    0.595195   -0.310212
     19          6           0      -10.085916    1.892368    1.811008
     20          6           0       10.007460   -1.994152   -1.767828
     21          6           0       -8.587289   -0.591985    0.272503
     22          6           0        8.557076    0.252790   -0.298787
     23          6           0       -7.391309   -1.432438    0.379934
     24          6           0        7.551696    1.273617   -0.457529
     25          6           0       -7.696382   -2.830566    0.763444
     26          6           0        7.952442    2.779030   -0.631262
     27          6           0       -6.139203   -0.895492    0.284893
     28          6           0        6.254417    0.911246   -0.380256
     29          6           0       -4.824452   -1.543660    0.319365
     30          6           0        5.024949    1.690627   -0.458451
     31          6           0       -3.666406   -0.894674    0.212725
     32          6           0        3.792271    1.093276   -0.366740
     33          6           0       -2.311097   -1.408100    0.314000
     34          6           0        2.493463    1.772422   -0.329493
     35          6           0       -2.117359   -2.924025    0.410737
     36          6           0        2.528957    3.363849   -0.360747
     37          6           0       -1.253632   -0.524831    0.156601
     38          6           0        1.291146    1.089971   -0.322644
     39          6           0       -1.194806    0.858515   -0.077113
     40          6           0       -0.077067    1.556199   -0.216112
     41          1           0      -13.943256    0.100927    0.287289
     42          1           0      -14.377783   -0.098759   -1.242182
     43          1           0       12.278553   -1.970708    2.005554
     44          1           0       13.728513   -0.989476    1.932311
     45          1           0      -13.980552    2.558028   -0.905904
     46          1           0      -12.304580    1.947891   -1.759743
     47          1           0       13.954285   -2.704883    0.433486
     48          1           0       13.944303   -1.316541   -0.591606
     49          1           0      -12.731206    2.578005    1.393585
     50          1           0      -11.386663    3.119114    0.214292
     51          1           0       11.689492   -3.620889   -0.289716
     52          1           0       12.325555   -3.023304   -1.734544
     53          1           0      -11.378066    0.432556   -2.484447
     54          1           0      -12.519655   -0.764838   -2.743198
     55          1           0      -10.639932   -1.149482   -2.133708
     56          1           0      -12.788038   -1.839592    0.892002
     57          1           0      -11.788389   -2.613871   -0.084632
     58          1           0      -13.660699   -2.252789   -0.585395
     59          1           0       13.617637    0.697106   -0.453470
     60          1           0       13.561870    1.477186    1.302190
     61          1           0       12.538029    2.053681    0.034677
     62          1           0       10.749293    0.054195    2.689437
     63          1           0       11.009891    1.717365    1.948796
     64          1           0       12.472964    1.184431    2.761726
     65          1           0      -10.018890   -1.848627    0.639078
     66          1           0       10.223164    1.704596   -0.335011
     67          1           0       -9.699085    0.916940    2.437297
     68          1           0      -10.806339    2.424800    2.539595
     69          1           0       -9.439216    2.572356    1.320185
     70          1           0        9.158796   -1.259151   -1.994452
     71          1           0        9.362827   -2.927248   -1.549876
     72          1           0       10.290728   -2.180440   -2.702815
     73          1           0       -8.337055    0.499653   -0.065355
     74          1           0        8.056413   -0.682931   -0.330586
     75          1           0       -8.152121   -3.119797    1.809860
     76          1           0       -6.718220   -3.298219    0.857975
     77          1           0       -8.370957   -3.066906   -0.179805
     78          1           0        8.785675    2.901155   -1.359860
     79          1           0        8.439180    3.003379    0.271481
     80          1           0        7.052548    3.420752   -0.795016
     81          1           0       -6.328710    0.098505    0.000921
     82          1           0        6.033170   -0.134870   -0.097813
     83          1           0       -4.906389   -2.444884    0.596930
     84          1           0        5.249311    2.753818   -0.613415
     85          1           0       -3.882740    0.071464    0.000031
     86          1           0        3.501857    0.053151   -0.462613
     87          1           0       -2.340717   -3.296222    1.575423
     88          1           0       -1.055963   -3.162711    0.156992
     89          1           0       -2.834694   -3.358843   -0.101609
     90          1           0        2.787565    3.757331   -1.530849
     91          1           0        3.259597    3.754701    0.379929
     92          1           0        1.500361    3.806281   -0.181655
     93          1           0       -0.403478   -1.167740    0.314095
     94          1           0        1.500183    0.068376   -0.632730
     95          1           0       -2.164810    1.345346   -0.288168
     96          1           0       -0.313054    2.574654   -0.456369
 ---------------------------------------------------------------------

 SCF Done:  E(RB3LYP) =  -1557.53239319     A.U. after   14 cycles

 Excitation energies and oscillator strengths:

 Excited State   1:      Singlet-A      2.3838 eV  520.11 nm  f=2.9089  <S**2>=0.000
     148 ->149         0.70556
 This state for optimization and/or second-order correction.
 Total Energy, E(TD-HF/TD-DFT) =  -1557.44478967
 Copying the excited state density for this state as the 1-particle RhoCI density.

 The electronic state is 1-A.
 Alpha  occ. eigenvalues --  -10.20692 -10.20585 -10.20424 -10.20289 -10.20224
 Alpha  occ. eigenvalues --  -10.20163 -10.20046 -10.19874 -10.19777 -10.19562
 Alpha  occ. eigenvalues --  -10.19472 -10.19454 -10.19432 -10.19346 -10.19308
 Alpha  occ. eigenvalues --  -10.19123 -10.19119 -10.19055 -10.18940 -10.18846
 Alpha  occ. eigenvalues --  -10.18792 -10.18743 -10.18715 -10.18647 -10.18564
 Alpha  occ. eigenvalues --  -10.18450 -10.18412 -10.18333 -10.18287 -10.18281
 Alpha  occ. eigenvalues --  -10.18252 -10.18214 -10.18189 -10.17842 -10.17706
 Alpha  occ. eigenvalues --  -10.17544 -10.17444 -10.17033 -10.16740 -10.16729
 Alpha  occ. eigenvalues --   -0.84651  -0.84256  -0.83596  -0.82876  -0.82352
 Alpha  occ. eigenvalues --   -0.81306  -0.79454  -0.78528  -0.77687  -0.77382
 Alpha  occ. eigenvalues --   -0.76838  -0.75144  -0.74342  -0.72091  -0.71323
 Alpha  occ. eigenvalues --   -0.69790  -0.68932  -0.68629  -0.68486  -0.67613
 Alpha  occ. eigenvalues --   -0.67027  -0.66972  -0.66726  -0.66195  -0.65531
 Alpha  occ. eigenvalues --   -0.63333  -0.62441  -0.60246  -0.59853  -0.57599
 Alpha  occ. eigenvalues --   -0.56736  -0.56234  -0.55042  -0.54495  -0.53746
 Alpha  occ. eigenvalues --   -0.52375  -0.51640  -0.50796  -0.49734  -0.48644
 Alpha  occ. eigenvalues --   -0.48414  -0.47603  -0.47426  -0.46758  -0.46097
 Alpha  occ. eigenvalues --   -0.45682  -0.45267  -0.44847  -0.44192  -0.43995
 Alpha  occ. eigenvalues --   -0.43906  -0.43382  -0.43127  -0.42503  -0.41886
 Alpha  occ. eigenvalues --   -0.41663  -0.41600  -0.41433  -0.41200  -0.40935
 Alpha  occ. eigenvalues --   -0.40910  -0.40701  -0.40173  -0.40118  -0.39791
 Alpha  occ. eigenvalues --   -0.39561  -0.39306  -0.38410  -0.38288  -0.38066
 Alpha  occ. eigenvalues --   -0.37482  -0.37426  -0.37128  -0.36782  -0.36512
 Alpha  occ. eigenvalues --   -0.36055  -0.36007  -0.35610  -0.35299  -0.35114
 Alpha  occ. eigenvalues --   -0.34916  -0.34610  -0.33971  -0.33698  -0.33563
 Alpha  occ. eigenvalues --   -0.33466  -0.33249  -0.32992  -0.32695  -0.32486
 Alpha  occ. eigenvalues --   -0.32209  -0.31898  -0.31785  -0.31410  -0.30948
 Alpha  occ. eigenvalues --   -0.30540  -0.29917  -0.29554  -0.29188  -0.28780
 Alpha  occ. eigenvalues --   -0.28102  -0.27212  -0.26179  -0.24251  -0.22810
 Alpha  occ. eigenvalues --   -0.21431  -0.19390  -0.17124
 Alpha virt. eigenvalues --   -0.07903  -0.04771  -0.01489   0.00912   0.02858
 Alpha virt. eigenvalues --    0.04053   0.06086   0.06224   0.06909   0.07191
 Alpha virt. eigenvalues --    0.07785   0.08184   0.08778   0.08885   0.09046

 Mulliken charges:
               1
     1  C    0.000987
     2  C   -0.008589
     3  C   -0.170397
     4  C   -0.174565
     5  C   -0.200957
     6  C   -0.157414
     7  C    0.074076
     8  C    0.057937
     9  C   -0.200017
    10  C   -0.223360
    11  C    0.032876
    12  C    0.110615
    13  C   -0.296749
    14  C   -0.295115
    15  C   -0.287126
    16  C   -0.286894
    17  C   -0.146587
    18  C   -0.168854
    19  C   -0.345266
    20  C   -0.382647
    21  C   -0.060534
    22  C   -0.055357
    23  C    0.097456
    24  C    0.123310
    25  C   -0.356729
    26  C   -0.381806
    27  C   -0.123615
    28  C   -0.143782
    29  C   -0.063699
    30  C   -0.083462
    31  C   -0.069531
    32  C   -0.106225
    33  C    0.068815
    34  C    0.115941
    35  C   -0.349531
    36  C   -0.355764
    37  C   -0.090631
    38  C   -0.136931
    39  C   -0.084294
    40  C   -0.079281
    41  H    0.107068
    42  H    0.033752
    43  H    0.082159
    44  H    0.087348
    45  H    0.107524
    46  H    0.100824
    47  H    0.097815
    48  H    0.099827
    49  H    0.075351
    50  H    0.101213
    51  H    0.073523
    52  H    0.084188
    53  H    0.082435
    54  H    0.103606
    55  H    0.112647
    56  H    0.121090
    57  H    0.094510
    58  H    0.075698
    59  H    0.099339
    60  H    0.071796
    61  H    0.115020
    62  H    0.108298
    63  H    0.102378
    64  H    0.056028
    65  H    0.067422
    66  H    0.086072
    67  H    0.104400
    68  H    0.096118
    69  H    0.127042
    70  H    0.103470
    71  H    0.097968
    72  H    0.119039
    73  H    0.056003
    74  H    0.094942
    75  H    0.111184
    76  H    0.102203
    77  H    0.109031
    78  H    0.116847
    79  H    0.135613
    80  H    0.105204
    81  H    0.061874
    82  H    0.066084
    83  H    0.051099
    84  H    0.085572
    85  H    0.069521
    86  H    0.078124
    87  H    0.088000
    88  H    0.111394
    89  H    0.138546
    90  H    0.087811
    91  H    0.117223
    92  H    0.104596
    93  H    0.064287
    94  H    0.080200
    95  H    0.090726
    96  H    0.082646
 Sum of Mulliken charges =  -0.00000

 Dipole moment (field-independent basis, Debye):
    X=              1.6861    Y=              0.0609    Z=             -0.2218  Tot=              1.7017
 Quadrupole moment (field-independent basis, Debye-Ang):
   XX=           -226.9641   YY=           -236.5752   ZZ=           -257.1243
   XY=             -1.9023   XZ=             -4.3120   YZ=             -3.1831

 Normal termination of Gaussian 16 at Sat Jul 27 22:30:19 2019.
