 Gaussian 16, Revision A.03,
 Gaussian 16:  ES64L-G16RevA.03 25-Dec-2016

 ---------------------------------
 # td=(NStates=1) B3LYP/6-31G(d,p)
 ---------------------------------

 --
 TD
 --
 Symbolic Z-matrix:
 Charge =  0 Multiplicity = 1

                         Standard orientation:
 ---------------------------------------------------------------------
 Center     Atomic      Atomic             Coordinates (Angstroms)
 Number     Number       Type             X           Y           Z
 ---------------------------------------------------------------------
      1          6           0      -12.048408   -0.565433   -0.810762
      2          6           0       12.108513   -0.102700    0.894604
      3          6           0      -13.370177    0.328693   -0.778110
      4          6           0       12.985248   -1.370790    1.163597
      5          6           0      -12.997647    1.792357   -0.660021
      6          6           0       13.330763   -2.109932   -0.154441
      7          6           0      -11.054379    0.001716    0.168412
      8          6           0       11.038192   -0.394702   -0.088245
      9          6           0      -12.303723    2.119716    0.613349
     10          6           0       11.870090   -2.583739   -0.766936
     11          6           0      -11.179247    1.152404    0.927437
     12          6           0       10.863013   -1.541859   -0.849207
     13          6           0      -11.520318   -0.549216   -2.206041
     14          6           0      -12.386313   -2.001976   -0.440239
     15          6           0       13.003285    1.035437    0.272815
     16          6           0       11.564882    0.335793    2.258941
     17          6           0       -9.866947   -0.935401    0.361468
     18          6           0        9.920641    0.580888   -0.161009
     19          6           0      -10.288300    1.565989    2.021835
     20          6           0        9.879006   -1.834628   -1.881532
     21          6           0       -8.561565   -0.484602    0.321362
     22          6           0        8.500616    0.316698   -0.163950
     23          6           0       -7.380310   -1.334696    0.461843
     24          6           0        7.491990    1.300366   -0.284312
     25          6           0       -7.632697   -2.886153    0.823535
     26          6           0        7.971936    2.775828   -0.601047
     27          6           0       -6.204644   -0.813724    0.304389
     28          6           0        6.195746    1.047101   -0.193186
     29          6           0       -4.839692   -1.464179    0.301296
     30          6           0        5.046043    1.821150   -0.387622
     31          6           0       -3.719913   -0.645696    0.333035
     32          6           0        3.843068    1.203852   -0.322272
     33          6           0       -2.321830   -1.148628    0.369951
     34          6           0        2.497734    1.923221   -0.422440
     35          6           0       -2.273999   -2.734431    0.575613
     36          6           0        2.563488    3.320304   -0.611559
     37          6           0       -1.142893   -0.478831    0.158106
     38          6           0        1.371249    1.201064   -0.140414
     39          6           0       -1.093547    0.948954   -0.039126
     40          6           0        0.007754    1.724361   -0.283922
     41          1           0      -14.074567    0.013999    0.159925
     42          1           0      -13.938019    0.016740   -1.511457
     43          1           0       12.420897   -2.091402    1.808150
     44          1           0       13.857923   -1.080374    1.712842
     45          1           0      -13.857553    2.473644   -0.742871
     46          1           0      -12.653731    2.354811   -1.434792
     47          1           0       14.001306   -2.918815   -0.021684
     48          1           0       13.740417   -1.503583   -0.927761
     49          1           0      -13.054541    1.977389    1.426617
     50          1           0      -11.730881    3.069869    0.891770
     51          1           0       11.609681   -3.427813   -0.114525
     52          1           0       11.915293   -2.986239   -1.739310
     53          1           0      -11.050661    0.555232   -2.566274
     54          1           0      -12.214656   -0.790794   -3.097614
     55          1           0      -10.567967   -1.236910   -2.428582
     56          1           0      -12.777391   -2.028699    0.498688
     57          1           0      -11.626899   -2.856801   -0.745166
     58          1           0      -13.184903   -2.165042   -1.026822
     59          1           0       13.426238    0.808196   -0.578882
     60          1           0       13.908134    1.050347    0.969588
     61          1           0       12.531285    2.018760    0.406250
     62          1           0       11.126716   -0.482209    2.683978
     63          1           0       10.885121    1.175463    2.194820
     64          1           0       12.142265    0.666286    3.147406
     65          1           0      -10.172877   -1.897128    0.492504
     66          1           0       10.295633    1.605551   -0.713737
     67          1           0       -9.612772    0.713558    2.187113
     68          1           0      -10.916784    1.901733    3.046101
     69          1           0       -9.470773    2.132545    1.896633
     70          1           0        9.242165   -0.997059   -2.261530
     71          1           0        9.121524   -2.590129   -1.363154
     72          1           0       10.484541   -2.296033   -2.766263
     73          1           0       -8.366691    0.530793    0.111011
     74          1           0        8.258750   -0.744967   -0.063854
     75          1           0       -8.238694   -2.820495    1.774621
     76          1           0       -6.449849   -3.153224    0.971999
     77          1           0       -8.334497   -3.439720    0.167323
     78          1           0        8.438049    2.721572   -1.609078
     79          1           0        8.503462    3.090547    0.173012
     80          1           0        7.159910    3.477527   -0.827911
     81          1           0       -6.244871    0.297347   -0.004741
     82          1           0        6.032822    0.040045   -0.174030
     83          1           0       -4.712773   -2.612457    0.489467
     84          1           0        5.079240    2.808409   -0.857586
     85          1           0       -3.729050    0.381012    0.253954
     86          1           0        3.799732    0.228247    0.012587
     87          1           0       -2.687612   -2.859551    1.720298
     88          1           0       -1.252706   -3.029822    0.514778
     89          1           0       -2.989995   -3.459100   -0.231505
     90          1           0        3.277956    3.513419   -1.448005
     91          1           0        3.006960    3.852201    0.158699
     92          1           0        1.480320    3.798453   -0.747804
     93          1           0       -0.054507   -1.142191    0.024663
     94          1           0        1.407574    0.102384   -0.118414
     95          1           0       -2.076840    1.402766    0.276650
     96          1           0       -0.311112    2.744256   -0.559271
 ---------------------------------------------------------------------

 SCF Done:  E(RB3LYP) =  -1557.53916011     A.U. after   15 cycles

 Excitation energies and oscillator strengths:

 Excited State   1:      Singlet-A      2.4052 eV  515.48 nm  f=2.6783  <S**2>=0.000
     148 ->149         0.70336
 This state for optimization and/or second-order correction.
 Total Energy, E(TD-HF/TD-DFT) =  -1557.45076970
 Copying the excited state density for this state as the 1-particle RhoCI density.

 The electronic state is 1-A.
 Alpha  occ. eigenvalues --  -10.21010 -10.20860 -10.20821 -10.20746 -10.20082
 Alpha  occ. eigenvalues --  -10.19957 -10.19955 -10.19933 -10.19921 -10.19475
 Alpha  occ. eigenvalues --  -10.19468 -10.19297 -10.19217 -10.19209 -10.19201
 Alpha  occ. eigenvalues --  -10.19193 -10.19145 -10.19017 -10.18940 -10.18644
 Alpha  occ. eigenvalues --  -10.18597 -10.18520 -10.18448 -10.18368 -10.18254
 Alpha  occ. eigenvalues --  -10.18236 -10.18176 -10.18110 -10.17882 -10.17854
 Alpha  occ. eigenvalues --  -10.17833 -10.17810 -10.17286 -10.17268 -10.17213
 Alpha  occ. eigenvalues --  -10.17016 -10.16786 -10.16554 -10.16435 -10.15851
 Alpha  occ. eigenvalues --   -0.85153  -0.84904  -0.83865  -0.82623  -0.82073
 Alpha  occ. eigenvalues --   -0.81087  -0.79267  -0.79221  -0.78371  -0.77280
 Alpha  occ. eigenvalues --   -0.76463  -0.74969  -0.73889  -0.71749  -0.71246
 Alpha  occ. eigenvalues --   -0.69486  -0.69026  -0.68821  -0.68474  -0.68041
 Alpha  occ. eigenvalues --   -0.67612  -0.67369  -0.66476  -0.66179  -0.65859
 Alpha  occ. eigenvalues --   -0.62881  -0.61944  -0.60537  -0.59537  -0.57054
 Alpha  occ. eigenvalues --   -0.56675  -0.56301  -0.55931  -0.54537  -0.53415
 Alpha  occ. eigenvalues --   -0.52287  -0.51728  -0.49596  -0.49350  -0.49191
 Alpha  occ. eigenvalues --   -0.48132  -0.47707  -0.47238  -0.46705  -0.46428
 Alpha  occ. eigenvalues --   -0.45459  -0.45105  -0.44769  -0.44548  -0.44140
 Alpha  occ. eigenvalues --   -0.43857  -0.43680  -0.43326  -0.43260  -0.42407
 Alpha  occ. eigenvalues --   -0.42328  -0.42121  -0.41597  -0.40730  -0.40606
 Alpha  occ. eigenvalues --   -0.40064  -0.39813  -0.39484  -0.39252  -0.39015
 Alpha  occ. eigenvalues --   -0.38925  -0.38604  -0.38201  -0.37983  -0.37647
 Alpha  occ. eigenvalues --   -0.37580  -0.37385  -0.37137  -0.37021  -0.36632
 Alpha  occ. eigenvalues --   -0.36364  -0.36266  -0.36113  -0.36076  -0.35854
 Alpha  occ. eigenvalues --   -0.35672  -0.34919  -0.34521  -0.34110  -0.33540
 Alpha  occ. eigenvalues --   -0.33489  -0.33077  -0.32819  -0.32651  -0.32292
 Alpha  occ. eigenvalues --   -0.31960  -0.31859  -0.31628  -0.31192  -0.30937
 Alpha  occ. eigenvalues --   -0.30487  -0.30224  -0.29987  -0.29043  -0.28745
 Alpha  occ. eigenvalues --   -0.27470  -0.26939  -0.25691  -0.23136  -0.21945
 Alpha  occ. eigenvalues --   -0.20665  -0.19052  -0.17016
 Alpha virt. eigenvalues --   -0.07579  -0.04911  -0.01915   0.00573   0.02127
 Alpha virt. eigenvalues --    0.03522   0.04970   0.05772   0.06491   0.07227
 Alpha virt. eigenvalues --    0.07944   0.08154   0.08508   0.08660   0.09260

 Mulliken charges:
               1
     1  C   -0.004743
     2  C   -0.012251
     3  C   -0.165596
     4  C   -0.173411
     5  C   -0.189031
     6  C   -0.202724
     7  C    0.052608
     8  C    0.069795
     9  C   -0.210417
    10  C   -0.234200
    11  C    0.081890
    12  C    0.093873
    13  C   -0.283094
    14  C   -0.303002
    15  C   -0.295394
    16  C   -0.312782
    17  C   -0.126023
    18  C   -0.149110
    19  C   -0.374170
    20  C   -0.356512
    21  C   -0.102808
    22  C   -0.114237
    23  C    0.135821
    24  C    0.102497
    25  C   -0.358832
    26  C   -0.363312
    27  C   -0.140318
    28  C   -0.119858
    29  C   -0.106495
    30  C   -0.062898
    31  C   -0.070271
    32  C   -0.110715
    33  C    0.073740
    34  C    0.137864
    35  C   -0.340134
    36  C   -0.383221
    37  C   -0.095370
    38  C   -0.122808
    39  C   -0.110872
    40  C   -0.098527
    41  H    0.063972
    42  H    0.100900
    43  H    0.088134
    44  H    0.090227
    45  H    0.077648
    46  H    0.109862
    47  H    0.092448
    48  H    0.103553
    49  H    0.099007
    50  H    0.098647
    51  H    0.103973
    52  H    0.083988
    53  H    0.072229
    54  H    0.090306
    55  H    0.090782
    56  H    0.113789
    57  H    0.090269
    58  H    0.106785
    59  H    0.112690
    60  H    0.082072
    61  H    0.106705
    62  H    0.108930
    63  H    0.104464
    64  H    0.090719
    65  H    0.083533
    66  H    0.075024
    67  H    0.111395
    68  H    0.076571
    69  H    0.126535
    70  H    0.121689
    71  H    0.103053
    72  H    0.094888
    73  H    0.078723
    74  H    0.082042
    75  H    0.119629
    76  H    0.091122
    77  H    0.124125
    78  H    0.115043
    79  H    0.134018
    80  H    0.094965
    81  H    0.072916
    82  H    0.066534
    83  H    0.098067
    84  H    0.078218
    85  H    0.073463
    86  H    0.077113
    87  H    0.101615
    88  H    0.108935
    89  H    0.082464
    90  H    0.114503
    91  H    0.141608
    92  H    0.092474
    93  H    0.065382
    94  H    0.082877
    95  H    0.086310
    96  H    0.088114
 Sum of Mulliken charges =  -0.00000

 Dipole moment (field-independent basis, Debye):
    X=             -0.0395    Y=              0.0859    Z=             -0.6220  Tot=              0.6292
 Quadrupole moment (field-independent basis, Debye-Ang):
   XX=           -213.8754   YY=           -236.8649   ZZ=           -254.0791
   XY=             -2.5857   XZ=              1.6712   YZ=             -1.8465

 Normal termination of Gaussian 16 at Sun Jul 28 12:38:20 2019.
