 Gaussian 16, Revision A.03,
 Gaussian 16:  ES64L-G16RevA.03 25-Dec-2016

 ---------------------------------
 # td=(NStates=1) B3LYP/6-31G(d,p)
 ---------------------------------

 --
 TD
 --
 Symbolic Z-matrix:
 Charge =  0 Multiplicity = 1

                         Standard orientation:
 ---------------------------------------------------------------------
 Center     Atomic      Atomic             Coordinates (Angstroms)
 Number     Number       Type             X           Y           Z
 ---------------------------------------------------------------------
      1          6           0       12.145409    0.525838   -0.681054
      2          6           0      -12.178913    0.017037    0.955547
      3          6           0       13.530987   -0.319847   -0.508771
      4          6           0      -13.008494    1.233433    1.237568
      5          6           0       13.253479   -1.716273   -0.521168
      6          6           0      -13.487879    2.014090   -0.012576
      7          6           0       11.053384    0.013340    0.170750
      8          6           0      -11.019850    0.430148    0.026905
      9          6           0       12.390626   -2.114299    0.616327
     10          6           0      -12.148029    2.499494   -0.700709
     11          6           0       11.168146   -1.255894    0.787163
     12          6           0      -11.061123    1.535796   -0.837896
     13          6           0       11.644189    0.295922   -2.226922
     14          6           0       12.507816    2.052968   -0.459384
     15          6           0      -13.075978   -0.984437    0.214887
     16          6           0      -11.630962   -0.582223    2.167902
     17          6           0        9.930765    0.801241    0.349349
     18          6           0       -9.943463   -0.588926   -0.087070
     19          6           0       10.283056   -1.827623    1.837344
     20          6           0       -9.998878    1.930220   -1.870332
     21          6           0        8.594989    0.466691    0.208802
     22          6           0       -8.678456   -0.357609   -0.177864
     23          6           0        7.444205    1.421972    0.391784
     24          6           0       -7.584347   -1.439627   -0.352078
     25          6           0        7.657281    2.869898    0.582583
     26          6           0       -7.904352   -2.743459   -0.573105
     27          6           0        6.205807    0.847084    0.366138
     28          6           0       -6.294553   -0.914513   -0.294633
     29          6           0        4.870551    1.469524    0.380103
     30          6           0       -5.060673   -1.615789   -0.582687
     31          6           0        3.770752    0.726118    0.261723
     32          6           0       -3.836266   -1.011194   -0.373516
     33          6           0        2.442600    1.276166    0.371031
     34          6           0       -2.581627   -1.750192   -0.448100
     35          6           0        2.263575    2.779273    0.760850
     36          6           0       -2.561113   -3.288692   -0.744404
     37          6           0        1.250528    0.540672    0.302906
     38          6           0       -1.405019   -1.078451   -0.140379
     39          6           0        1.158935   -0.847228   -0.015201
     40          6           0        0.061610   -1.573126   -0.200830
     41          1           0       13.980713    0.036838    0.492207
     42          1           0       14.309797    0.026614   -1.180459
     43          1           0      -12.371515    1.965433    1.859537
     44          1           0      -13.887073    0.831132    1.785196
     45          1           0       14.296435   -2.252221   -0.468780
     46          1           0       12.737635   -1.947467   -1.356322
     47          1           0      -13.986475    2.791691    0.195294
     48          1           0      -13.979365    1.270923   -0.660324
     49          1           0       12.897320   -1.994283    1.676043
     50          1           0       11.986666   -3.148705    0.611445
     51          1           0      -11.766949    3.391692   -0.122539
     52          1           0      -12.249748    3.081788   -1.577268
     53          1           0       11.584802   -0.656796   -2.537678
     54          1           0       12.284171    0.680864   -2.807134
     55          1           0       10.662866    0.843883   -2.145088
     56          1           0       12.581204    2.359814    0.640005
     57          1           0       11.630308    2.626699   -0.910946
     58          1           0       13.338324    2.211954   -1.244314
     59          1           0      -13.340572   -0.606616   -0.916407
     60          1           0      -13.688019   -1.485188    0.802670
     61          1           0      -12.412655   -1.777295   -0.261727
     62          1           0      -11.083071    0.081342    2.945656
     63          1           0      -10.906785   -1.476640    1.853681
     64          1           0      -12.427066   -1.228577    2.896135
     65          1           0       10.124039    1.855671    0.461788
     66          1           0      -10.249683   -1.739818   -0.398148
     67          1           0        9.705882   -0.787819    2.194086
     68          1           0       10.733223   -1.972653    2.787930
     69          1           0        9.598817   -2.711378    1.508221
     70          1           0       -9.361871    1.141726   -2.171703
     71          1           0       -9.431431    2.910275   -1.559131
     72          1           0      -10.489617    2.355486   -2.685544
     73          1           0        8.505024   -0.708407    0.131333
     74          1           0       -8.329051    0.649935   -0.187108
     75          1           0        8.294601    2.812266    1.550008
     76          1           0        6.660767    3.391308    0.513269
     77          1           0        8.295745    3.327870   -0.333425
     78          1           0       -8.681466   -2.907672   -1.361735
     79          1           0       -8.520323   -3.336712    0.145326
     80          1           0       -7.242746   -3.580020   -1.143052
     81          1           0        6.116243   -0.237435    0.064100
     82          1           0       -6.292814    0.246013   -0.034807
     83          1           0        4.750816    2.554875    0.372644
     84          1           0       -4.876528   -2.675336   -0.559933
     85          1           0        3.615442   -0.335137    0.238397
     86          1           0       -3.922234   -0.134105   -0.167294
     87          1           0        2.659306    2.564391    1.856404
     88          1           0        1.139336    3.112168    0.763260
     89          1           0        2.831630    3.628246    0.018538
     90          1           0       -3.183964   -3.218141   -1.765280
     91          1           0       -3.186972   -3.955259   -0.090036
     92          1           0       -1.464720   -3.628622   -0.866125
     93          1           0        0.316017    1.159544    0.463376
     94          1           0       -1.435834    0.079631   -0.059316
     95          1           0        1.891104   -1.409843   -0.045147
     96          1           0        0.228020   -2.503061   -0.295673
 ---------------------------------------------------------------------

 SCF Done:  E(RB3LYP) =  -1557.46428972     A.U. after   14 cycles

 Excitation energies and oscillator strengths:

 Excited State   1:      Singlet-A      2.3885 eV  519.08 nm  f=2.7470  <S**2>=0.000
     148 ->149         0.70610
 This state for optimization and/or second-order correction.
 Total Energy, E(TD-HF/TD-DFT) =  -1557.37651282
 Copying the excited state density for this state as the 1-particle RhoCI density.

 The electronic state is 1-A.
 Alpha  occ. eigenvalues --  -10.21369 -10.20614 -10.20544 -10.20520 -10.20378
 Alpha  occ. eigenvalues --  -10.20262 -10.20170 -10.19760 -10.19745 -10.19708
 Alpha  occ. eigenvalues --  -10.19628 -10.19477 -10.19387 -10.19308 -10.19304
 Alpha  occ. eigenvalues --  -10.19188 -10.19127 -10.18998 -10.18905 -10.18847
 Alpha  occ. eigenvalues --  -10.18732 -10.18562 -10.18455 -10.18356 -10.18313
 Alpha  occ. eigenvalues --  -10.18181 -10.18082 -10.17822 -10.17700 -10.17615
 Alpha  occ. eigenvalues --  -10.17600 -10.17560 -10.17544 -10.17484 -10.17479
 Alpha  occ. eigenvalues --  -10.16880 -10.16814 -10.16752 -10.16715 -10.15283
 Alpha  occ. eigenvalues --   -0.85456  -0.85309  -0.83404  -0.82827  -0.81935
 Alpha  occ. eigenvalues --   -0.81097  -0.79629  -0.79093  -0.78561  -0.77657
 Alpha  occ. eigenvalues --   -0.77098  -0.75061  -0.74072  -0.72926  -0.72516
 Alpha  occ. eigenvalues --   -0.68774  -0.68671  -0.68177  -0.67823  -0.67793
 Alpha  occ. eigenvalues --   -0.67647  -0.67162  -0.66488  -0.66424  -0.65972
 Alpha  occ. eigenvalues --   -0.62290  -0.61900  -0.60091  -0.59265  -0.56627
 Alpha  occ. eigenvalues --   -0.56288  -0.55885  -0.55649  -0.54537  -0.53264
 Alpha  occ. eigenvalues --   -0.52685  -0.52185  -0.50554  -0.49701  -0.48919
 Alpha  occ. eigenvalues --   -0.48230  -0.47744  -0.47296  -0.46505  -0.46082
 Alpha  occ. eigenvalues --   -0.45860  -0.45268  -0.44979  -0.44714  -0.44084
 Alpha  occ. eigenvalues --   -0.43572  -0.43473  -0.42662  -0.42432  -0.42182
 Alpha  occ. eigenvalues --   -0.42001  -0.41749  -0.41615  -0.41142  -0.40942
 Alpha  occ. eigenvalues --   -0.40775  -0.40481  -0.40145  -0.40066  -0.39627
 Alpha  occ. eigenvalues --   -0.39472  -0.39187  -0.39074  -0.38544  -0.37663
 Alpha  occ. eigenvalues --   -0.37620  -0.37559  -0.37426  -0.36608  -0.36391
 Alpha  occ. eigenvalues --   -0.36243  -0.36028  -0.35631  -0.35234  -0.34869
 Alpha  occ. eigenvalues --   -0.34457  -0.34280  -0.33938  -0.33611  -0.33587
 Alpha  occ. eigenvalues --   -0.33505  -0.32955  -0.32917  -0.32661  -0.32613
 Alpha  occ. eigenvalues --   -0.32178  -0.31990  -0.31475  -0.31231  -0.30699
 Alpha  occ. eigenvalues --   -0.30469  -0.30206  -0.29443  -0.28357  -0.28299
 Alpha  occ. eigenvalues --   -0.27642  -0.27052  -0.25811  -0.23869  -0.21807
 Alpha  occ. eigenvalues --   -0.20587  -0.18578  -0.16719
 Alpha virt. eigenvalues --   -0.07291  -0.04758  -0.01516   0.00186   0.01868
 Alpha virt. eigenvalues --    0.03692   0.05983   0.06814   0.07006   0.07629
 Alpha virt. eigenvalues --    0.07746   0.07994   0.08667   0.08827   0.09087

 Mulliken charges:
               1
     1  C   -0.053205
     2  C    0.032904
     3  C   -0.159867
     4  C   -0.162942
     5  C   -0.165784
     6  C   -0.156267
     7  C    0.131149
     8  C    0.023186
     9  C   -0.198114
    10  C   -0.246018
    11  C    0.042152
    12  C    0.096567
    13  C   -0.295744
    14  C   -0.310342
    15  C   -0.295841
    16  C   -0.291959
    17  C   -0.167753
    18  C   -0.129475
    19  C   -0.366512
    20  C   -0.366926
    21  C   -0.082490
    22  C   -0.091572
    23  C    0.099856
    24  C    0.185290
    25  C   -0.357764
    26  C   -0.432137
    27  C   -0.121719
    28  C   -0.154541
    29  C   -0.102039
    30  C   -0.094416
    31  C   -0.061346
    32  C   -0.025639
    33  C    0.067692
    34  C    0.092391
    35  C   -0.348758
    36  C   -0.369601
    37  C   -0.125022
    38  C   -0.128327
    39  C   -0.029711
    40  C   -0.088601
    41  H    0.072512
    42  H    0.083389
    43  H    0.077458
    44  H    0.073848
    45  H    0.070035
    46  H    0.108072
    47  H    0.093845
    48  H    0.099896
    49  H    0.087402
    50  H    0.093722
    51  H    0.094858
    52  H    0.087991
    53  H    0.108138
    54  H    0.102799
    55  H    0.102062
    56  H    0.109486
    57  H    0.092899
    58  H    0.100060
    59  H    0.090729
    60  H    0.113800
    61  H    0.088605
    62  H    0.101744
    63  H    0.097122
    64  H    0.055199
    65  H    0.073069
    66  H    0.062444
    67  H    0.087383
    68  H    0.121389
    69  H    0.105950
    70  H    0.129389
    71  H    0.095747
    72  H    0.115257
    73  H    0.080766
    74  H    0.084480
    75  H    0.126216
    76  H    0.115073
    77  H    0.106014
    78  H    0.116585
    79  H    0.126837
    80  H    0.101321
    81  H    0.079908
    82  H    0.072870
    83  H    0.089306
    84  H    0.079781
    85  H    0.081442
    86  H    0.037448
    87  H    0.126288
    88  H    0.099217
    89  H    0.089370
    90  H    0.109926
    91  H    0.127426
    92  H    0.112573
    93  H    0.079497
    94  H    0.069548
    95  H    0.050812
    96  H    0.050243
 Sum of Mulliken charges =  -0.00000

 Dipole moment (field-independent basis, Debye):
    X=              0.6859    Y=              0.1986    Z=             -0.6031  Tot=              0.9347
 Quadrupole moment (field-independent basis, Debye-Ang):
   XX=           -218.7463   YY=           -233.1089   ZZ=           -254.9152
   XY=             -0.6909   XZ=              5.0797   YZ=              0.8828

 Normal termination of Gaussian 16 at Tue Jul 23 16:30:31 2019.
