 Gaussian 16, Revision A.03,
 Gaussian 16:  ES64L-G16RevA.03 25-Dec-2016

 ---------------------------------
 # td=(NStates=1) B3LYP/6-31G(d,p)
 ---------------------------------

 --
 TD
 --
 Symbolic Z-matrix:
 Charge =  0 Multiplicity = 1

                         Standard orientation:
 ---------------------------------------------------------------------
 Center     Atomic      Atomic             Coordinates (Angstroms)
 Number     Number       Type             X           Y           Z
 ---------------------------------------------------------------------
      1          6           0       12.162816    0.596024   -0.644937
      2          6           0      -12.118538   -0.041344    0.967041
      3          6           0       13.564542   -0.149967   -0.452165
      4          6           0      -12.987481    1.023094    1.473155
      5          6           0       13.291024   -1.747821   -0.398462
      6          6           0      -13.414661    1.976376    0.249947
      7          6           0       11.028891   -0.018176    0.274981
      8          6           0      -10.984867    0.479432   -0.033889
      9          6           0       12.320480   -2.152308    0.679224
     10          6           0      -12.218260    2.549160   -0.548173
     11          6           0       11.144987   -1.153435    0.922168
     12          6           0      -10.995446    1.687376   -0.670041
     13          6           0       11.846095    0.612932   -2.039479
     14          6           0       12.423727    1.982527   -0.102835
     15          6           0      -13.020720   -1.023679    0.386884
     16          6           0      -11.447410   -0.583645    2.279319
     17          6           0        9.818952    0.851848    0.483570
     18          6           0       -9.931090   -0.595443   -0.263137
     19          6           0       10.206988   -1.797726    1.914277
     20          6           0      -10.170362    2.179237   -1.830884
     21          6           0        8.539247    0.432471    0.373465
     22          6           0       -8.630571   -0.343383   -0.116543
     23          6           0        7.396763    1.281919    0.463861
     24          6           0       -7.559943   -1.336571   -0.323958
     25          6           0        7.489596    2.756151    0.754772
     26          6           0       -7.932646   -2.773895   -0.596989
     27          6           0        6.169229    0.731118    0.294158
     28          6           0       -6.272404   -0.909071   -0.156903
     29          6           0        4.902629    1.305084    0.236450
     30          6           0       -5.042271   -1.676281   -0.439362
     31          6           0        3.670208    0.585778    0.193065
     32          6           0       -3.754136   -1.060093   -0.491673
     33          6           0        2.437417    1.234383    0.124532
     34          6           0       -2.462710   -1.807322   -0.675116
     35          6           0        2.355649    2.784942    0.240736
     36          6           0       -2.598191   -3.255127   -1.076415
     37          6           0        1.309455    0.536540   -0.206535
     38          6           0       -1.311381   -1.097259   -0.454037
     39          6           0        1.139819   -0.916770   -0.385731
     40          6           0       -0.060710   -1.513836   -0.464151
     41          1           0       14.110521    0.105155    0.453634
     42          1           0       14.198949    0.107698   -1.257978
     43          1           0      -12.474782    1.659688    2.073280
     44          1           0      -13.937091    0.708817    1.957435
     45          1           0       14.421991   -2.291597   -0.471835
     46          1           0       12.840204   -1.972253   -1.443184
     47          1           0      -14.291213    2.638849    0.436914
     48          1           0      -13.926295    1.161197   -0.524076
     49          1           0       12.909181   -2.087304    1.762061
     50          1           0       12.051978   -3.206643    0.672853
     51          1           0      -11.881043    3.594570   -0.074016
     52          1           0      -12.465116    3.050830   -1.534373
     53          1           0       11.261978   -0.367167   -2.303388
     54          1           0       12.630201    0.873436   -2.667318
     55          1           0       10.902098    1.281388   -2.318843
     56          1           0       12.719266    2.018795    0.829013
     57          1           0       11.707585    2.831825   -0.344361
     58          1           0       13.288586    2.276650   -0.849034
     59          1           0      -13.383955   -0.518806   -0.573147
     60          1           0      -13.882750   -1.264403    0.821638
     61          1           0      -12.462223   -2.021978    0.399442
     62          1           0      -10.745343    0.240317    2.671970
     63          1           0      -10.769404   -1.528618    1.979332
     64          1           0      -12.122075   -1.062320    3.051143
     65          1           0       10.121631    1.893968    0.304912
     66          1           0      -10.275836   -1.571426   -0.216561
     67          1           0        9.393137   -1.144260    2.313176
     68          1           0       10.640513   -2.302246    2.779954
     69          1           0        9.597739   -2.590525    1.407435
     70          1           0       -9.264628    1.492308   -2.378206
     71          1           0       -9.680119    2.981363   -1.325481
     72          1           0      -10.776132    2.510631   -2.580241
     73          1           0        8.232903   -0.551999    0.391516
     74          1           0       -8.228803    0.773312   -0.003252
     75          1           0        7.843239    2.995321    1.649268
     76          1           0        6.610785    3.393896    0.833980
     77          1           0        8.108080    3.435399    0.183945
     78          1           0       -8.455103   -2.694076   -1.413672
     79          1           0       -8.846104   -3.047124    0.092199
     80          1           0       -7.207219   -3.519746   -0.409127
     81          1           0        6.224915   -0.336793    0.177829
     82          1           0       -6.018528    0.002440    0.350820
     83          1           0        4.842882    2.392002    0.316240
     84          1           0       -5.147859   -2.655914   -0.757882
     85          1           0        3.602786   -0.461080    0.037526
     86          1           0       -3.952219    0.005478   -0.534248
     87          1           0        2.484174    2.793040    1.308010
     88          1           0        1.368521    3.383501   -0.110900
     89          1           0        3.283085    3.366266   -0.231332
     90          1           0       -3.148032   -3.588658   -2.036934
     91          1           0       -3.220269   -3.767124   -0.193515
     92          1           0       -1.545059   -3.851053   -1.060799
     93          1           0        0.293154    0.970993   -0.066829
     94          1           0       -1.380042   -0.122413   -0.145665
     95          1           0        2.018202   -1.541093   -0.350049
     96          1           0       -0.049349   -2.671948   -0.720424
 ---------------------------------------------------------------------

 SCF Done:  E(RB3LYP) =  -1557.56867473     A.U. after   16 cycles

 Excitation energies and oscillator strengths:

 Excited State   1:      Singlet-A      2.1146 eV  586.32 nm  f=3.1702  <S**2>=0.000
     148 ->149         0.70924
     148 <-149        -0.11576
 This state for optimization and/or second-order correction.
 Total Energy, E(TD-HF/TD-DFT) =  -1557.49096336
 Copying the excited state density for this state as the 1-particle RhoCI density.

 The electronic state is 1-A.
 Alpha  occ. eigenvalues --  -10.21182 -10.21130 -10.20113 -10.19986 -10.19943
 Alpha  occ. eigenvalues --  -10.19920 -10.19848 -10.19751 -10.19674 -10.19640
 Alpha  occ. eigenvalues --  -10.19580 -10.19527 -10.19366 -10.19341 -10.19337
 Alpha  occ. eigenvalues --  -10.19173 -10.18994 -10.18927 -10.18743 -10.18689
 Alpha  occ. eigenvalues --  -10.18658 -10.18648 -10.18610 -10.18461 -10.18389
 Alpha  occ. eigenvalues --  -10.18367 -10.18101 -10.18081 -10.17973 -10.17964
 Alpha  occ. eigenvalues --  -10.17929 -10.17910 -10.17783 -10.17709 -10.17696
 Alpha  occ. eigenvalues --  -10.17152 -10.17092 -10.16924 -10.16565 -10.16449
 Alpha  occ. eigenvalues --   -0.85248  -0.84934  -0.83869  -0.83188  -0.82340
 Alpha  occ. eigenvalues --   -0.81692  -0.79788  -0.79220  -0.78439  -0.76853
 Alpha  occ. eigenvalues --   -0.76166  -0.74469  -0.73607  -0.72311  -0.72057
 Alpha  occ. eigenvalues --   -0.70292  -0.69590  -0.68952  -0.68832  -0.68288
 Alpha  occ. eigenvalues --   -0.67850  -0.67512  -0.66612  -0.66248  -0.65966
 Alpha  occ. eigenvalues --   -0.63144  -0.61779  -0.59321  -0.58413  -0.57227
 Alpha  occ. eigenvalues --   -0.56560  -0.55910  -0.55599  -0.54041  -0.53865
 Alpha  occ. eigenvalues --   -0.53246  -0.52228  -0.50221  -0.49675  -0.49133
 Alpha  occ. eigenvalues --   -0.48271  -0.47870  -0.47330  -0.46681  -0.46203
 Alpha  occ. eigenvalues --   -0.45786  -0.45483  -0.45175  -0.44873  -0.44323
 Alpha  occ. eigenvalues --   -0.43904  -0.43632  -0.43231  -0.42691  -0.42642
 Alpha  occ. eigenvalues --   -0.42570  -0.41824  -0.41756  -0.41110  -0.40900
 Alpha  occ. eigenvalues --   -0.40613  -0.40221  -0.39946  -0.39931  -0.39787
 Alpha  occ. eigenvalues --   -0.39214  -0.38594  -0.38164  -0.38002  -0.37480
 Alpha  occ. eigenvalues --   -0.37269  -0.37216  -0.36989  -0.36608  -0.36318
 Alpha  occ. eigenvalues --   -0.36241  -0.36031  -0.35817  -0.35455  -0.35374
 Alpha  occ. eigenvalues --   -0.35211  -0.34926  -0.34737  -0.34690  -0.33980
 Alpha  occ. eigenvalues --   -0.33620  -0.33528  -0.33505  -0.33165  -0.32663
 Alpha  occ. eigenvalues --   -0.32339  -0.32312  -0.31073  -0.31048  -0.30436
 Alpha  occ. eigenvalues --   -0.30067  -0.29522  -0.28902  -0.28707  -0.28122
 Alpha  occ. eigenvalues --   -0.27507  -0.27306  -0.26573  -0.24332  -0.23009
 Alpha  occ. eigenvalues --   -0.21348  -0.18790  -0.16069
 Alpha virt. eigenvalues --   -0.08318  -0.05085  -0.01590   0.01169   0.02543
 Alpha virt. eigenvalues --    0.05089   0.06082   0.06561   0.07431   0.07609
 Alpha virt. eigenvalues --    0.07710   0.07815   0.08479   0.09145   0.09265

 Mulliken charges:
               1
     1  C   -0.001632
     2  C   -0.010940
     3  C   -0.178023
     4  C   -0.148507
     5  C   -0.188439
     6  C   -0.201552
     7  C    0.049676
     8  C    0.036334
     9  C   -0.196326
    10  C   -0.212461
    11  C    0.080573
    12  C    0.066116
    13  C   -0.288915
    14  C   -0.287163
    15  C   -0.278951
    16  C   -0.292050
    17  C   -0.137836
    18  C   -0.134039
    19  C   -0.375238
    20  C   -0.340971
    21  C   -0.086294
    22  C   -0.069257
    23  C    0.155950
    24  C    0.106402
    25  C   -0.402406
    26  C   -0.363450
    27  C   -0.129189
    28  C   -0.146120
    29  C   -0.087088
    30  C   -0.083248
    31  C   -0.098299
    32  C   -0.130657
    33  C    0.107860
    34  C    0.105525
    35  C   -0.357478
    36  C   -0.372438
    37  C   -0.147838
    38  C   -0.055272
    39  C   -0.077492
    40  C   -0.094377
    41  H    0.097172
    42  H    0.095497
    43  H    0.099133
    44  H    0.091254
    45  H    0.058394
    46  H    0.089330
    47  H    0.090823
    48  H    0.055925
    49  H    0.068870
    50  H    0.110698
    51  H    0.072265
    52  H    0.102269
    53  H    0.099116
    54  H    0.110820
    55  H    0.083222
    56  H    0.119452
    57  H    0.093384
    58  H    0.067528
    59  H    0.098292
    60  H    0.113872
    61  H    0.075210
    62  H    0.102004
    63  H    0.066119
    64  H    0.097401
    65  H    0.078302
    66  H    0.082018
    67  H    0.110799
    68  H    0.109353
    69  H    0.110376
    70  H    0.088970
    71  H    0.126584
    72  H    0.125498
    73  H    0.081215
    74  H    0.075350
    75  H    0.134425
    76  H    0.102515
    77  H    0.111609
    78  H    0.141990
    79  H    0.098863
    80  H    0.122189
    81  H    0.063470
    82  H    0.081358
    83  H    0.075251
    84  H    0.070232
    85  H    0.080062
    86  H    0.088676
    87  H    0.137023
    88  H    0.099941
    89  H    0.104727
    90  H    0.126399
    91  H    0.109875
    92  H    0.096800
    93  H    0.073833
    94  H    0.070188
    95  H    0.081385
    96  H    0.048183
 Sum of Mulliken charges =  -0.00000

 Dipole moment (field-independent basis, Debye):
    X=             -0.6627    Y=              0.2999    Z=              0.1045  Tot=              0.7349
 Quadrupole moment (field-independent basis, Debye-Ang):
   XX=           -213.0580   YY=           -233.1780   ZZ=           -254.7685
   XY=              2.3267   XZ=              0.0179   YZ=              0.6322

 Normal termination of Gaussian 16 at Wed Jul 31 03:27:24 2019.
