 Gaussian 16, Revision A.03,
 Gaussian 16:  ES64L-G16RevA.03 25-Dec-2016

 ---------------------------------
 # td=(NStates=1) B3LYP/6-31G(d,p)
 ---------------------------------

 --
 TD
 --
 Symbolic Z-matrix:
 Charge =  0 Multiplicity = 1

                         Standard orientation:
 ---------------------------------------------------------------------
 Center     Atomic      Atomic             Coordinates (Angstroms)
 Number     Number       Type             X           Y           Z
 ---------------------------------------------------------------------
      1          6           0       12.135697    0.460983   -0.695395
      2          6           0      -12.061610   -0.057811    1.031375
      3          6           0       13.387662   -0.423226   -0.551144
      4          6           0      -12.920709    1.210236    1.339003
      5          6           0       13.135945   -1.947425   -0.409589
      6          6           0      -13.353849    2.069656    0.205646
      7          6           0       11.042788   -0.013230    0.210188
      8          6           0      -10.911187    0.420403    0.009992
      9          6           0       12.283512   -2.068112    0.771110
     10          6           0      -12.084991    2.466209   -0.563435
     11          6           0       11.100256   -1.205401    0.940162
     12          6           0      -11.061666    1.477981   -0.804231
     13          6           0       11.538394    0.376054   -2.047230
     14          6           0       12.557228    1.975084   -0.419048
     15          6           0      -12.892768   -1.134103    0.390492
     16          6           0      -11.493048   -0.628585    2.230057
     17          6           0        9.833748    0.907037    0.266964
     18          6           0       -9.837115   -0.624517   -0.241891
     19          6           0       10.155834   -1.601579    2.095503
     20          6           0      -10.071419    2.060378   -1.718263
     21          6           0        8.545889    0.484876    0.372313
     22          6           0       -8.523526   -0.280025   -0.349924
     23          6           0        7.354693    1.384635    0.455750
     24          6           0       -7.567856   -1.331840   -0.498882
     25          6           0        7.522313    2.883302    0.525268
     26          6           0       -7.980634   -2.772655   -0.608409
     27          6           0        6.040748    0.753666    0.266416
     28          6           0       -6.170890   -0.898496   -0.371802
     29          6           0        4.866874    1.508808    0.386290
     30          6           0       -4.953388   -1.635282   -0.550606
     31          6           0        3.656881    0.790997    0.252479
     32          6           0       -3.702613   -1.136194   -0.394105
     33          6           0        2.291147    1.339579    0.308037
     34          6           0       -2.437249   -1.847212   -0.498870
     35          6           0        2.251275    2.884900    0.364210
     36          6           0       -2.507838   -3.305272   -0.830687
     37          6           0        1.184333    0.608612    0.027188
     38          6           0       -1.278760   -1.090644   -0.299970
     39          6           0        1.170591   -0.786761   -0.192092
     40          6           0        0.028135   -1.534509   -0.449984
     41          1           0       13.854170   -0.176916    0.380061
     42          1           0       14.166328   -0.312711   -1.280248
     43          1           0      -12.310835    1.770321    1.979282
     44          1           0      -13.760547    0.576540    1.770405
     45          1           0       14.107736   -2.409945   -0.457980
     46          1           0       12.519652   -2.158099   -1.361808
     47          1           0      -14.100975    2.857605    0.371515
     48          1           0      -14.107024    1.596627   -0.371078
     49          1           0       12.868229   -1.803133    1.803800
     50          1           0       11.933840   -3.157317    1.091435
     51          1           0      -11.768239    3.386099    0.053048
     52          1           0      -12.474795    2.817937   -1.589365
     53          1           0       11.267082   -0.540762   -2.421624
     54          1           0       12.463860    0.664897   -2.644360
     55          1           0       10.714480    0.910097   -2.277587
     56          1           0       12.938323    1.997686    0.694295
     57          1           0       11.760111    2.576811   -0.476251
     58          1           0       13.238492    2.387098   -1.185299
     59          1           0      -13.367854   -0.777800   -0.611273
     60          1           0      -13.889990   -1.171181    0.983328
     61          1           0      -12.284822   -2.205245    0.316145
     62          1           0      -10.835572    0.086112    2.899827
     63          1           0      -10.836209   -1.486365    1.961406
     64          1           0      -12.307897   -0.858944    2.918440
     65          1           0       10.058512    1.827674    0.175951
     66          1           0      -10.170741   -1.758632   -0.097566
     67          1           0        9.508286   -0.757607    2.419126
     68          1           0       10.743560   -1.742921    3.165064
     69          1           0        9.584158   -2.509659    1.747461
     70          1           0       -9.271725    1.430954   -2.185972
     71          1           0       -9.577844    2.780935   -1.174411
     72          1           0      -10.631401    2.701676   -2.541492
     73          1           0        8.233796   -0.531466    0.318229
     74          1           0       -8.064373    0.606971   -0.372297
     75          1           0        8.265316    3.285601    1.312556
     76          1           0        6.473884    3.377285    0.678854
     77          1           0        8.119591    3.237961   -0.252873
     78          1           0       -8.341806   -2.981008   -1.541020
     79          1           0       -8.772059   -3.103652    0.054418
     80          1           0       -7.145752   -3.554269   -0.580054
     81          1           0        6.025584   -0.292428    0.085345
     82          1           0       -6.324173    0.268002   -0.383007
     83          1           0        4.866683    2.554029    0.600790
     84          1           0       -5.043683   -2.639508   -0.592507
     85          1           0        3.726269   -0.356167   -0.070616
     86          1           0       -3.510899   -0.209555    0.009924
     87          1           0        2.807097    3.248340    1.262712
     88          1           0        1.115637    3.347549    0.301927
     89          1           0        2.730634    3.132001   -0.662395
     90          1           0       -2.951759   -3.406867   -1.887953
     91          1           0       -3.199173   -3.834698   -0.174649
     92          1           0       -1.594362   -3.923888   -0.806326
     93          1           0        0.136644    0.981487    0.028021
     94          1           0       -1.493207   -0.146054   -0.000295
     95          1           0        2.096960   -1.415596   -0.370979
     96          1           0        0.175849   -2.629004   -0.729404
 ---------------------------------------------------------------------

 SCF Done:  E(RB3LYP) =  -1557.61652235     A.U. after   16 cycles

 Excitation energies and oscillator strengths:

 Excited State   1:      Singlet-A      1.9725 eV  628.56 nm  f=3.1735  <S**2>=0.000
     148 ->149         0.71166
     148 <-149        -0.11996
 This state for optimization and/or second-order correction.
 Total Energy, E(TD-HF/TD-DFT) =  -1557.54403335
 Copying the excited state density for this state as the 1-particle RhoCI density.

 The electronic state is 1-A.
 Alpha  occ. eigenvalues --  -10.20807 -10.20379 -10.20133 -10.20113 -10.20016
 Alpha  occ. eigenvalues --  -10.19906 -10.19800 -10.19641 -10.19621 -10.19615
 Alpha  occ. eigenvalues --  -10.19503 -10.19414 -10.19296 -10.19267 -10.19266
 Alpha  occ. eigenvalues --  -10.19257 -10.19185 -10.18900 -10.18810 -10.18677
 Alpha  occ. eigenvalues --  -10.18643 -10.18610 -10.18461 -10.18428 -10.18414
 Alpha  occ. eigenvalues --  -10.18293 -10.18154 -10.18124 -10.17823 -10.17816
 Alpha  occ. eigenvalues --  -10.17761 -10.17743 -10.17710 -10.17599 -10.17435
 Alpha  occ. eigenvalues --  -10.17373 -10.17332 -10.17192 -10.16921 -10.15351
 Alpha  occ. eigenvalues --   -0.85530  -0.85476  -0.83472  -0.82555  -0.81914
 Alpha  occ. eigenvalues --   -0.80979  -0.80285  -0.78992  -0.78641  -0.77383
 Alpha  occ. eigenvalues --   -0.76586  -0.75317  -0.74229  -0.72321  -0.71864
 Alpha  occ. eigenvalues --   -0.70174  -0.69357  -0.69141  -0.67944  -0.67746
 Alpha  occ. eigenvalues --   -0.67129  -0.66817  -0.66640  -0.66374  -0.65841
 Alpha  occ. eigenvalues --   -0.62985  -0.62283  -0.60220  -0.59039  -0.57097
 Alpha  occ. eigenvalues --   -0.56638  -0.56044  -0.54841  -0.54007  -0.53530
 Alpha  occ. eigenvalues --   -0.53250  -0.52906  -0.50413  -0.49967  -0.49518
 Alpha  occ. eigenvalues --   -0.48505  -0.47915  -0.47295  -0.46832  -0.46554
 Alpha  occ. eigenvalues --   -0.46002  -0.45167  -0.44759  -0.44662  -0.43781
 Alpha  occ. eigenvalues --   -0.43467  -0.43154  -0.42813  -0.42621  -0.42610
 Alpha  occ. eigenvalues --   -0.42263  -0.41951  -0.41908  -0.41298  -0.40919
 Alpha  occ. eigenvalues --   -0.40644  -0.40396  -0.40089  -0.39850  -0.39434
 Alpha  occ. eigenvalues --   -0.38966  -0.38844  -0.38666  -0.38605  -0.38115
 Alpha  occ. eigenvalues --   -0.37744  -0.37555  -0.37311  -0.37222  -0.36835
 Alpha  occ. eigenvalues --   -0.36474  -0.35916  -0.35741  -0.35652  -0.35530
 Alpha  occ. eigenvalues --   -0.35205  -0.34690  -0.34433  -0.34347  -0.34059
 Alpha  occ. eigenvalues --   -0.33383  -0.33241  -0.33166  -0.33138  -0.32761
 Alpha  occ. eigenvalues --   -0.32415  -0.31768  -0.31329  -0.31190  -0.31139
 Alpha  occ. eigenvalues --   -0.31024  -0.30427  -0.29907  -0.29234  -0.29028
 Alpha  occ. eigenvalues --   -0.28244  -0.26922  -0.26440  -0.23757  -0.22169
 Alpha  occ. eigenvalues --   -0.20571  -0.17980  -0.15571
 Alpha virt. eigenvalues --   -0.08365  -0.05418  -0.01884   0.00719   0.02465
 Alpha virt. eigenvalues --    0.04073   0.05597   0.06184   0.07191   0.07276
 Alpha virt. eigenvalues --    0.07509   0.08137   0.08443   0.08761   0.09301

 Mulliken charges:
               1
     1  C   -0.024931
     2  C   -0.014602
     3  C   -0.185190
     4  C   -0.164772
     5  C   -0.186410
     6  C   -0.186768
     7  C    0.068848
     8  C    0.058595
     9  C   -0.192482
    10  C   -0.223321
    11  C    0.054545
    12  C    0.094038
    13  C   -0.276886
    14  C   -0.302484
    15  C   -0.274187
    16  C   -0.274286
    17  C   -0.103823
    18  C   -0.162393
    19  C   -0.350984
    20  C   -0.356250
    21  C   -0.088551
    22  C   -0.046707
    23  C    0.089960
    24  C    0.108903
    25  C   -0.374148
    26  C   -0.388487
    27  C   -0.112977
    28  C   -0.131474
    29  C   -0.065404
    30  C   -0.090590
    31  C   -0.118994
    32  C   -0.097846
    33  C    0.088307
    34  C    0.122246
    35  C   -0.358522
    36  C   -0.388295
    37  C   -0.118070
    38  C   -0.094778
    39  C   -0.067184
    40  C   -0.116179
    41  H    0.094746
    42  H    0.082007
    43  H    0.098899
    44  H    0.067831
    45  H    0.101904
    46  H    0.092801
    47  H    0.085975
    48  H    0.090645
    49  H    0.079160
    50  H    0.073446
    51  H    0.100485
    52  H    0.084231
    53  H    0.106686
    54  H    0.073297
    55  H    0.110818
    56  H    0.091704
    57  H    0.112149
    58  H    0.101315
    59  H    0.099849
    60  H    0.085602
    61  H    0.079436
    62  H    0.080955
    63  H    0.095548
    64  H    0.097222
    65  H    0.053745
    66  H    0.077386
    67  H    0.127302
    68  H    0.081247
    69  H    0.113158
    70  H    0.109929
    71  H    0.134365
    72  H    0.080916
    73  H    0.079470
    74  H    0.078572
    75  H    0.103037
    76  H    0.099381
    77  H    0.135994
    78  H    0.138760
    79  H    0.116328
    80  H    0.097609
    81  H    0.084982
    82  H    0.056249
    83  H    0.089145
    84  H    0.077709
    85  H    0.071730
    86  H    0.072673
    87  H    0.119213
    88  H    0.085913
    89  H    0.125255
    90  H    0.115703
    91  H    0.123391
    92  H    0.109111
    93  H    0.084910
    94  H    0.071076
    95  H    0.074941
    96  H    0.076621
 Sum of Mulliken charges =  -0.00000

 Dipole moment (field-independent basis, Debye):
    X=              0.3332    Y=              0.2877    Z=             -0.3902  Tot=              0.5883
 Quadrupole moment (field-independent basis, Debye-Ang):
   XX=           -214.8978   YY=           -234.2291   ZZ=           -257.1775
   XY=              2.7093   XZ=             -1.8712   YZ=              2.2039

 Normal termination of Gaussian 16 at Sat Jul 27 17:04:12 2019.
