 Gaussian 16, Revision A.03,
 Gaussian 16:  ES64L-G16RevA.03 25-Dec-2016

 ---------------------------------
 # td=(NStates=1) B3LYP/6-31G(d,p)
 ---------------------------------

 --
 TD
 --
 Symbolic Z-matrix:
 Charge =  0 Multiplicity = 1

                         Standard orientation:
 ---------------------------------------------------------------------
 Center     Atomic      Atomic             Coordinates (Angstroms)
 Number     Number       Type             X           Y           Z
 ---------------------------------------------------------------------
      1          6           0       12.175093    0.399979   -0.634438
      2          6           0      -12.140890   -0.191178    1.025698
      3          6           0       13.531363   -0.455284   -0.409798
      4          6           0      -13.039339    1.093441    1.495197
      5          6           0       13.164786   -1.988330   -0.396512
      6          6           0      -13.484973    1.864436    0.223389
      7          6           0       11.076637   -0.030941    0.323336
      8          6           0      -11.028545    0.375352    0.041904
      9          6           0       12.157391   -2.303002    0.880518
     10          6           0      -12.280047    2.439385   -0.563720
     11          6           0       11.050289   -1.263647    0.947390
     12          6           0      -11.190725    1.485995   -0.784823
     13          6           0       11.798340    0.381511   -2.082449
     14          6           0       12.623069    1.768592   -0.143859
     15          6           0      -12.934593   -1.307082    0.374640
     16          6           0      -11.432008   -0.747227    2.317478
     17          6           0        9.909738    0.783034    0.394181
     18          6           0       -9.952108   -0.560737   -0.244216
     19          6           0       10.036397   -1.619202    2.063745
     20          6           0      -10.119695    1.896183   -1.730709
     21          6           0        8.498448    0.459570    0.117456
     22          6           0       -8.571607   -0.278167   -0.266250
     23          6           0        7.379046    1.366485    0.260582
     24          6           0       -7.525234   -1.241490   -0.470384
     25          6           0        7.770068    2.804174    0.517367
     26          6           0       -7.839999   -2.736194   -0.745880
     27          6           0        6.149746    0.873191    0.104898
     28          6           0       -6.210586   -0.780871   -0.386410
     29          6           0        4.894311    1.488380    0.306121
     30          6           0       -5.030359   -1.562814   -0.414704
     31          6           0        3.638073    0.924986    0.090362
     32          6           0       -3.761203   -0.918523   -0.416958
     33          6           0        2.394789    1.447428    0.228592
     34          6           0       -2.445234   -1.539988   -0.593580
     35          6           0        2.253058    2.885627    0.517335
     36          6           0       -2.485645   -3.129710   -0.869537
     37          6           0        1.264825    0.731175    0.050379
     38          6           0       -1.345352   -0.863953   -0.425776
     39          6           0        1.168904   -0.679462   -0.326114
     40          6           0       -0.017851   -1.341093   -0.539812
     41          1           0       14.181433   -0.147136    0.332063
     42          1           0       14.018680   -0.486833   -1.214027
     43          1           0      -12.346142    1.497105    2.224179
     44          1           0      -13.937667    0.655372    2.097458
     45          1           0       14.042927   -2.520182   -0.336984
     46          1           0       12.567393   -2.307514   -1.273706
     47          1           0      -14.423255    2.658629    0.447342
     48          1           0      -13.913964    0.973821   -0.521667
     49          1           0       12.987915   -2.286138    1.768549
     50          1           0       11.832000   -3.323295    0.854309
     51          1           0      -11.787772    3.069014    0.029329
     52          1           0      -12.648751    2.842142   -1.448439
     53          1           0       11.669823   -0.599542   -2.481951
     54          1           0       12.694070    0.748163   -2.488089
     55          1           0       10.920309    0.998877   -2.157107
     56          1           0       12.766936    1.924994    1.040489
     57          1           0       11.823646    2.584885   -0.328594
     58          1           0       13.406055    2.255907   -0.777914
     59          1           0      -13.307983   -0.858018   -0.656612
     60          1           0      -13.882844   -1.660765    0.821828
     61          1           0      -12.219492   -2.172823    0.045117
     62          1           0      -10.773147    0.053581    2.956931
     63          1           0      -10.919326   -1.633337    1.945617
     64          1           0      -12.208791   -1.151255    3.011145
     65          1           0        9.995050    1.927345    0.545815
     66          1           0      -10.332359   -1.508766   -0.135762
     67          1           0        9.262734   -0.840831    2.172200
     68          1           0       10.508062   -2.060015    2.997005
     69          1           0        9.361377   -2.365239    1.387830
     70          1           0       -9.521288    1.103597   -2.167131
     71          1           0       -9.467050    2.687357   -1.409558
     72          1           0      -10.598761    2.493192   -2.608963
     73          1           0        8.417302   -0.527637   -0.028456
     74          1           0       -8.214132    0.740191   -0.180213
     75          1           0        8.031834    2.963198    1.580014
     76          1           0        6.897746    3.553893    0.210802
     77          1           0        8.410561    2.969042   -0.216323
     78          1           0       -8.463524   -2.823602   -1.608595
     79          1           0       -8.304704   -3.208599    0.214563
     80          1           0       -6.967247   -2.981709   -0.967066
     81          1           0        6.105390   -0.193805   -0.089427
     82          1           0       -6.179944    0.247882   -0.064216
     83          1           0        4.870984    2.498894    0.228027
     84          1           0       -5.027170   -2.733710   -0.449224
     85          1           0        3.715535   -0.052693   -0.257396
     86          1           0       -3.915091    0.311279   -0.222135
     87          1           0        2.754528    2.975513    1.609233
     88          1           0        1.309676    3.642902    0.547964
     89          1           0        2.772401    3.499569   -0.155761
     90          1           0       -2.852789   -3.358366   -1.800695
     91          1           0       -2.987637   -3.606045    0.016903
     92          1           0       -1.550107   -3.657021   -0.762082
     93          1           0        0.342956    1.203926    0.103540
     94          1           0       -1.550560    0.006043   -0.422973
     95          1           0        2.099764   -1.240128   -0.312858
     96          1           0       -0.055869   -2.361480   -0.652152
 ---------------------------------------------------------------------

 SCF Done:  E(RB3LYP) =  -1557.51841847     A.U. after   16 cycles

 Excitation energies and oscillator strengths:

 Excited State   1:      Singlet-A      2.0514 eV  604.39 nm  f=3.1298  <S**2>=0.000
     148 ->149         0.70923
     148 <-149        -0.10163
 This state for optimization and/or second-order correction.
 Total Energy, E(TD-HF/TD-DFT) =  -1557.44303135
 Copying the excited state density for this state as the 1-particle RhoCI density.

 The electronic state is 1-A.
 Alpha  occ. eigenvalues --  -10.21080 -10.20821 -10.20697 -10.20193 -10.20115
 Alpha  occ. eigenvalues --  -10.19769 -10.19589 -10.19587 -10.19511 -10.19356
 Alpha  occ. eigenvalues --  -10.19249 -10.19172 -10.19111 -10.19070 -10.18961
 Alpha  occ. eigenvalues --  -10.18934 -10.18890 -10.18805 -10.18558 -10.18553
 Alpha  occ. eigenvalues --  -10.18473 -10.18472 -10.18401 -10.18376 -10.18334
 Alpha  occ. eigenvalues --  -10.18180 -10.18078 -10.18015 -10.17927 -10.17889
 Alpha  occ. eigenvalues --  -10.17884 -10.17762 -10.17629 -10.17607 -10.17517
 Alpha  occ. eigenvalues --  -10.17019 -10.16860 -10.16200 -10.15659 -10.15648
 Alpha  occ. eigenvalues --   -0.84616  -0.84571  -0.84350  -0.83394  -0.82295
 Alpha  occ. eigenvalues --   -0.81879  -0.78868  -0.78316  -0.77894  -0.76889
 Alpha  occ. eigenvalues --   -0.76240  -0.75123  -0.73938  -0.71783  -0.71232
 Alpha  occ. eigenvalues --   -0.70510  -0.69334  -0.69106  -0.68519  -0.68141
 Alpha  occ. eigenvalues --   -0.67772  -0.67122  -0.66980  -0.66446  -0.65978
 Alpha  occ. eigenvalues --   -0.62919  -0.61880  -0.59780  -0.58956  -0.57253
 Alpha  occ. eigenvalues --   -0.56384  -0.55873  -0.55623  -0.54520  -0.53241
 Alpha  occ. eigenvalues --   -0.52600  -0.51800  -0.51472  -0.49651  -0.49101
 Alpha  occ. eigenvalues --   -0.48179  -0.47458  -0.47266  -0.46458  -0.45998
 Alpha  occ. eigenvalues --   -0.45564  -0.45198  -0.44966  -0.44893  -0.44586
 Alpha  occ. eigenvalues --   -0.44149  -0.43612  -0.43286  -0.42941  -0.42442
 Alpha  occ. eigenvalues --   -0.42267  -0.42110  -0.41862  -0.41520  -0.41455
 Alpha  occ. eigenvalues --   -0.40786  -0.40559  -0.40115  -0.40057  -0.39335
 Alpha  occ. eigenvalues --   -0.39168  -0.38902  -0.38744  -0.38463  -0.37789
 Alpha  occ. eigenvalues --   -0.37572  -0.37506  -0.37227  -0.36829  -0.36755
 Alpha  occ. eigenvalues --   -0.36243  -0.35897  -0.35584  -0.35283  -0.35239
 Alpha  occ. eigenvalues --   -0.34837  -0.34383  -0.34195  -0.33994  -0.33867
 Alpha  occ. eigenvalues --   -0.33712  -0.33489  -0.33061  -0.32988  -0.32844
 Alpha  occ. eigenvalues --   -0.32450  -0.32191  -0.31830  -0.31450  -0.30832
 Alpha  occ. eigenvalues --   -0.30704  -0.30046  -0.29409  -0.28350  -0.27802
 Alpha  occ. eigenvalues --   -0.27703  -0.27472  -0.25996  -0.24059  -0.22518
 Alpha  occ. eigenvalues --   -0.20899  -0.18095  -0.15995
 Alpha virt. eigenvalues --   -0.08290  -0.05582  -0.01913   0.00328   0.02481
 Alpha virt. eigenvalues --    0.03978   0.05621   0.06846   0.07632   0.08227
 Alpha virt. eigenvalues --    0.08523   0.08757   0.09050   0.09532   0.09683

 Mulliken charges:
               1
     1  C   -0.008166
     2  C   -0.028108
     3  C   -0.154403
     4  C   -0.163112
     5  C   -0.218973
     6  C   -0.178024
     7  C    0.101755
     8  C    0.063124
     9  C   -0.220244
    10  C   -0.190388
    11  C    0.042834
    12  C    0.058562
    13  C   -0.291624
    14  C   -0.307877
    15  C   -0.294534
    16  C   -0.287944
    17  C   -0.168742
    18  C   -0.134808
    19  C   -0.342281
    20  C   -0.368436
    21  C   -0.096449
    22  C   -0.103575
    23  C    0.118464
    24  C    0.085906
    25  C   -0.366437
    26  C   -0.335627
    27  C   -0.120484
    28  C   -0.124783
    29  C   -0.086790
    30  C   -0.087067
    31  C   -0.121055
    32  C   -0.130139
    33  C    0.158227
    34  C    0.078237
    35  C   -0.379485
    36  C   -0.385125
    37  C   -0.127724
    38  C   -0.019099
    39  C   -0.085876
    40  C   -0.094721
    41  H    0.099501
    42  H    0.097853
    43  H    0.100385
    44  H    0.074558
    45  H    0.090898
    46  H    0.094184
    47  H    0.064268
    48  H    0.073885
    49  H    0.077366
    50  H    0.103418
    51  H    0.132092
    52  H    0.103983
    53  H    0.107441
    54  H    0.105173
    55  H    0.110749
    56  H    0.097123
    57  H    0.074991
    58  H    0.092941
    59  H    0.090014
    60  H    0.109854
    61  H    0.090451
    62  H    0.086329
    63  H    0.097888
    64  H    0.094318
    65  H    0.072931
    66  H    0.072534
    67  H    0.122913
    68  H    0.112615
    69  H    0.087942
    70  H    0.132245
    71  H    0.120766
    72  H    0.076375
    73  H    0.066419
    74  H    0.079869
    75  H    0.131524
    76  H    0.084090
    77  H    0.141498
    78  H    0.119644
    79  H    0.108949
    80  H    0.112921
    81  H    0.068109
    82  H    0.079583
    83  H    0.075338
    84  H    0.094454
    85  H    0.072303
    86  H    0.062028
    87  H    0.098791
    88  H    0.093632
    89  H    0.128601
    90  H    0.136081
    91  H    0.115958
    92  H    0.110970
    93  H    0.081016
    94  H    0.034998
    95  H    0.083858
    96  H    0.066374
 Sum of Mulliken charges =  -0.00000

 Dipole moment (field-independent basis, Debye):
    X=             -0.2249    Y=             -0.0148    Z=             -0.4795  Tot=              0.5298
 Quadrupole moment (field-independent basis, Debye-Ang):
   XX=           -214.7246   YY=           -234.0083   ZZ=           -254.1871
   XY=             -2.6232   XZ=             -3.5725   YZ=              1.0832

 Normal termination of Gaussian 16 at Sun Jul 28 21:58:54 2019.
