 Gaussian 16, Revision A.03,
 Gaussian 16:  ES64L-G16RevA.03 25-Dec-2016

 ---------------------------------
 # td=(NStates=1) B3LYP/6-31G(d,p)
 ---------------------------------

 --
 TD
 --
 Symbolic Z-matrix:
 Charge =  0 Multiplicity = 1

                         Standard orientation:
 ---------------------------------------------------------------------
 Center     Atomic      Atomic             Coordinates (Angstroms)
 Number     Number       Type             X           Y           Z
 ---------------------------------------------------------------------
      1          6           0       12.173005    0.580480   -0.607209
      2          6           0      -12.056135   -0.169288    0.867542
      3          6           0       13.441181   -0.084807   -0.517487
      4          6           0      -12.996912    1.003192    1.292260
      5          6           0       13.350038   -1.677460   -0.566232
      6          6           0      -13.529361    1.984531    0.210239
      7          6           0       10.954208   -0.027687    0.240241
      8          6           0      -11.000137    0.408386   -0.106578
      9          6           0       12.415218   -2.097108    0.555656
     10          6           0      -12.271045    2.583807   -0.474281
     11          6           0       11.125549   -1.298233    0.834835
     12          6           0      -11.198986    1.711233   -0.683083
     13          6           0       11.736780    0.579987   -2.127284
     14          6           0       12.413887    2.116772   -0.248202
     15          6           0      -12.957609   -1.315031    0.194738
     16          6           0      -11.394560   -0.721123    2.145596
     17          6           0        9.809844    0.780402    0.400181
     18          6           0       -9.877893   -0.506265   -0.377283
     19          6           0       10.323699   -1.985820    1.855959
     20          6           0      -10.192167    2.080909   -1.723556
     21          6           0        8.522076    0.376560    0.352876
     22          6           0       -8.517362   -0.223226   -0.254727
     23          6           0        7.354487    1.264149    0.468271
     24          6           0       -7.521786   -1.248095   -0.399691
     25          6           0        7.569215    2.762221    0.637628
     26          6           0       -7.876537   -2.606764   -0.750724
     27          6           0        6.131702    0.703742    0.279489
     28          6           0       -6.218945   -0.790556   -0.326273
     29          6           0        4.887106    1.289952    0.376154
     30          6           0       -4.939364   -1.600380   -0.408637
     31          6           0        3.690516    0.607677    0.225840
     32          6           0       -3.772271   -1.044510   -0.264751
     33          6           0        2.396849    1.262665    0.255158
     34          6           0       -2.459368   -1.736880   -0.470127
     35          6           0        2.335880    2.669801    0.604701
     36          6           0       -2.598383   -3.169499   -0.825854
     37          6           0        1.230108    0.608415    0.047752
     38          6           0       -1.371807   -0.994681   -0.319934
     39          6           0        1.117981   -0.815416   -0.240888
     40          6           0       -0.014381   -1.573105   -0.333891
     41          1           0       13.833679   -0.099752    0.661774
     42          1           0       14.027022    0.124052   -1.330160
     43          1           0      -12.538507    1.567161    2.200472
     44          1           0      -13.853534    0.649351    1.665933
     45          1           0       14.419398   -2.124443   -0.517351
     46          1           0       13.108727   -1.971147   -1.610670
     47          1           0      -14.167743    2.677079    0.808165
     48          1           0      -14.078656    1.287084   -0.465131
     49          1           0       12.750559   -2.061879    1.648762
     50          1           0       12.217634   -3.232060    0.589048
     51          1           0      -12.086498    3.290786    0.091928
     52          1           0      -12.576330    3.101802   -1.483427
     53          1           0       11.833704   -0.450973   -2.708458
     54          1           0       12.211503    1.122109   -2.788530
     55          1           0       10.806722    0.981888   -2.063702
     56          1           0       12.787409    2.289466    0.808917
     57          1           0       11.690215    2.832701   -0.596512
     58          1           0       13.357332    2.254200   -1.008019
     59          1           0      -13.708949   -0.885228   -0.538652
     60          1           0      -13.572401   -1.638429    1.035529
     61          1           0      -12.322929   -2.172394   -0.139741
     62          1           0      -10.858529   -0.152068    2.579558
     63          1           0      -10.904597   -1.720423    2.108223
     64          1           0      -12.158044   -0.856429    2.783465
     65          1           0       10.019905    1.813566    0.519297
     66          1           0      -10.216765   -1.609429   -0.337078
     67          1           0        9.529152   -1.112094    2.550436
     68          1           0       10.869649   -2.434573    2.569571
     69          1           0        9.633034   -2.595641    1.403664
     70          1           0       -9.476774    1.257602   -1.922020
     71          1           0       -9.703485    3.135408   -1.286956
     72          1           0      -10.584287    2.612132   -2.670631
     73          1           0        8.348224   -0.668061    0.146536
     74          1           0       -8.363810    0.704207    0.148186
     75          1           0        8.219918    3.140875    1.533444
     76          1           0        6.683497    3.392232    0.614639
     77          1           0        7.942653    3.119813   -0.315999
     78          1           0       -8.085118   -2.477693   -1.965043
     79          1           0       -8.856198   -2.992303   -0.116310
     80          1           0       -7.013375   -3.310448   -0.451483
     81          1           0        5.959192   -0.317969    0.204552
     82          1           0       -6.157029    0.242671    0.067474
     83          1           0        5.079267    2.397951    0.842066
     84          1           0       -4.995237   -2.573437   -0.597648
     85          1           0        3.879554   -0.403147    0.029978
     86          1           0       -3.608828    0.076086    0.022425
     87          1           0        2.636579    2.959895    1.603595
     88          1           0        1.189078    3.076412    0.642068
     89          1           0        2.839412    3.458813   -0.082431
     90          1           0       -3.269406   -3.387879   -1.614050
     91          1           0       -3.113733   -3.844122   -0.008296
     92          1           0       -1.752494   -3.724162   -1.014630
     93          1           0        0.176829    1.010970   -0.068279
     94          1           0       -1.247409    0.180890   -0.184023
     95          1           0        1.854057   -1.443360   -0.331075
     96          1           0        0.080852   -2.631338   -0.573940
 ---------------------------------------------------------------------

 SCF Done:  E(RB3LYP) =  -1557.49506237     A.U. after   14 cycles

 Excitation energies and oscillator strengths:

 Excited State   1:      Singlet-A      2.3048 eV  537.94 nm  f=2.3410  <S**2>=0.000
     147 ->149        -0.10427
     148 ->149         0.69848
 This state for optimization and/or second-order correction.
 Total Energy, E(TD-HF/TD-DFT) =  -1557.41036330
 Copying the excited state density for this state as the 1-particle RhoCI density.

 The electronic state is 1-A.
 Alpha  occ. eigenvalues --  -10.20922 -10.20399 -10.20383 -10.20015 -10.20009
 Alpha  occ. eigenvalues --  -10.19882 -10.19787 -10.19655 -10.19297 -10.19229
 Alpha  occ. eigenvalues --  -10.19222 -10.19203 -10.19135 -10.19031 -10.19020
 Alpha  occ. eigenvalues --  -10.18931 -10.18830 -10.18742 -10.18700 -10.18624
 Alpha  occ. eigenvalues --  -10.18618 -10.18571 -10.18555 -10.18432 -10.18412
 Alpha  occ. eigenvalues --  -10.18387 -10.18374 -10.18349 -10.18180 -10.18113
 Alpha  occ. eigenvalues --  -10.18073 -10.17647 -10.17501 -10.17338 -10.17288
 Alpha  occ. eigenvalues --  -10.17079 -10.16939 -10.16696 -10.15803 -10.14034
 Alpha  occ. eigenvalues --   -0.84779  -0.84454  -0.83821  -0.83206  -0.82263
 Alpha  occ. eigenvalues --   -0.81688  -0.79371  -0.79051  -0.78798  -0.77730
 Alpha  occ. eigenvalues --   -0.76537  -0.75217  -0.74445  -0.72738  -0.71928
 Alpha  occ. eigenvalues --   -0.70224  -0.69410  -0.68905  -0.68157  -0.67837
 Alpha  occ. eigenvalues --   -0.67642  -0.67485  -0.66944  -0.66574  -0.65742
 Alpha  occ. eigenvalues --   -0.62864  -0.61461  -0.59781  -0.59461  -0.57024
 Alpha  occ. eigenvalues --   -0.56711  -0.55546  -0.55195  -0.53787  -0.53542
 Alpha  occ. eigenvalues --   -0.53191  -0.51791  -0.50629  -0.50307  -0.48986
 Alpha  occ. eigenvalues --   -0.48469  -0.48225  -0.46962  -0.46680  -0.46098
 Alpha  occ. eigenvalues --   -0.45781  -0.45489  -0.45051  -0.44520  -0.44393
 Alpha  occ. eigenvalues --   -0.43972  -0.43410  -0.43329  -0.42675  -0.42331
 Alpha  occ. eigenvalues --   -0.41922  -0.41889  -0.41596  -0.41467  -0.40812
 Alpha  occ. eigenvalues --   -0.40586  -0.40344  -0.39820  -0.39689  -0.39430
 Alpha  occ. eigenvalues --   -0.39169  -0.38716  -0.38633  -0.38434  -0.37943
 Alpha  occ. eigenvalues --   -0.37746  -0.37371  -0.37191  -0.37046  -0.36888
 Alpha  occ. eigenvalues --   -0.36462  -0.36179  -0.35849  -0.35807  -0.35385
 Alpha  occ. eigenvalues --   -0.35172  -0.34584  -0.34015  -0.33942  -0.33778
 Alpha  occ. eigenvalues --   -0.33577  -0.33500  -0.33313  -0.33197  -0.32466
 Alpha  occ. eigenvalues --   -0.31892  -0.31595  -0.31100  -0.30921  -0.30657
 Alpha  occ. eigenvalues --   -0.30462  -0.29985  -0.29944  -0.29073  -0.28725
 Alpha  occ. eigenvalues --   -0.27907  -0.27374  -0.26267  -0.23679  -0.22088
 Alpha  occ. eigenvalues --   -0.20312  -0.17884  -0.16499
 Alpha virt. eigenvalues --   -0.07328  -0.04882  -0.01856   0.00699   0.02607
 Alpha virt. eigenvalues --    0.04319   0.06187   0.06512   0.06825   0.07363
 Alpha virt. eigenvalues --    0.07506   0.08025   0.08198   0.08348   0.08886

 Mulliken charges:
               1
     1  C    0.008231
     2  C   -0.011431
     3  C   -0.155735
     4  C   -0.190264
     5  C   -0.196394
     6  C   -0.209493
     7  C    0.057730
     8  C    0.057845
     9  C   -0.228277
    10  C   -0.202542
    11  C    0.066437
    12  C    0.104953
    13  C   -0.303232
    14  C   -0.296070
    15  C   -0.307258
    16  C   -0.277984
    17  C   -0.125809
    18  C   -0.163330
    19  C   -0.340281
    20  C   -0.354473
    21  C   -0.086766
    22  C   -0.086395
    23  C    0.105228
    24  C    0.127104
    25  C   -0.386614
    26  C   -0.351327
    27  C   -0.106972
    28  C   -0.131257
    29  C   -0.055138
    30  C   -0.076302
    31  C   -0.138458
    32  C   -0.095095
    33  C    0.150803
    34  C    0.147835
    35  C   -0.381455
    36  C   -0.393347
    37  C   -0.128403
    38  C   -0.125701
    39  C   -0.041514
    40  C   -0.127445
    41  H    0.066985
    42  H    0.095459
    43  H    0.069174
    44  H    0.093133
    45  H    0.084231
    46  H    0.097889
    47  H    0.094189
    48  H    0.098071
    49  H    0.103205
    50  H    0.091609
    51  H    0.125602
    52  H    0.079291
    53  H    0.076460
    54  H    0.107253
    55  H    0.112774
    56  H    0.104791
    57  H    0.108142
    58  H    0.072153
    59  H    0.098672
    60  H    0.101933
    61  H    0.101124
    62  H    0.106749
    63  H    0.083191
    64  H    0.098809
    65  H    0.081095
    66  H    0.069360
    67  H    0.054856
    68  H    0.118129
    69  H    0.138535
    70  H    0.125470
    71  H    0.062796
    72  H    0.094665
    73  H    0.078442
    74  H    0.096127
    75  H    0.114004
    76  H    0.111767
    77  H    0.131726
    78  H    0.114504
    79  H    0.095018
    80  H    0.106971
    81  H    0.067363
    82  H    0.074712
    83  H    0.065103
    84  H    0.065389
    85  H    0.085967
    86  H    0.068041
    87  H    0.129292
    88  H    0.080924
    89  H    0.105775
    90  H    0.134217
    91  H    0.100827
    92  H    0.114924
    93  H    0.079316
    94  H    0.076315
    95  H    0.058003
    96  H    0.078074
 Sum of Mulliken charges =  -0.00000

 Dipole moment (field-independent basis, Debye):
    X=              1.1456    Y=             -0.4846    Z=              0.5302  Tot=              1.3522
 Quadrupole moment (field-independent basis, Debye-Ang):
   XX=           -212.2102   YY=           -231.7068   ZZ=           -253.1381
   XY=             -3.5181   XZ=            -10.2579   YZ=              2.8118

 Normal termination of Gaussian 16 at Tue Jul 23 21:11:52 2019.
