 Gaussian 16, Revision A.03,
 Gaussian 16:  ES64L-G16RevA.03 25-Dec-2016

 ---------------------------------
 # td=(NStates=1) B3LYP/6-31G(d,p)
 ---------------------------------

 --
 TD
 --
 Symbolic Z-matrix:
 Charge =  0 Multiplicity = 1

                         Standard orientation:
 ---------------------------------------------------------------------
 Center     Atomic      Atomic             Coordinates (Angstroms)
 Number     Number       Type             X           Y           Z
 ---------------------------------------------------------------------
      1          6           0       12.060345    0.481174   -0.951505
      2          6           0      -12.099758   -0.051897    0.869825
      3          6           0       13.488937   -0.309752   -0.872392
      4          6           0      -13.040333    1.080297    1.204429
      5          6           0       13.207301   -1.733942   -0.617334
      6          6           0      -13.492473    1.975124    0.072531
      7          6           0       11.105837   -0.015106    0.108133
      8          6           0      -10.980173    0.430832   -0.189527
      9          6           0       12.401922   -2.083845    0.663750
     10          6           0      -12.171711    2.558180   -0.621681
     11          6           0       11.239359   -1.089974    0.952684
     12          6           0      -11.037957    1.562437   -0.750829
     13          6           0       11.518093    0.478214   -2.373211
     14          6           0       12.507940    1.852267   -0.573737
     15          6           0      -13.002715   -1.121133    0.060996
     16          6           0      -11.549762   -0.643725    2.054033
     17          6           0        9.888786    0.830515    0.219347
     18          6           0       -9.985903   -0.547373   -0.373409
     19          6           0       10.311740   -1.473915    2.084319
     20          6           0       -9.915927    2.167049   -1.697222
     21          6           0        8.588422    0.374886    0.256254
     22          6           0       -8.647811   -0.315324   -0.291605
     23          6           0        7.441289    1.300115    0.468470
     24          6           0       -7.577013   -1.240783   -0.508702
     25          6           0        7.685638    2.751464    0.783091
     26          6           0       -7.916879   -2.726164   -0.744762
     27          6           0        6.192574    0.685339    0.484512
     28          6           0       -6.186304   -0.814041   -0.310529
     29          6           0        4.840009    1.358001    0.580137
     30          6           0       -5.044326   -1.648920   -0.393210
     31          6           0        3.726234    0.627817    0.530126
     32          6           0       -3.784232   -1.162035   -0.169665
     33          6           0        2.394775    1.224330    0.509099
     34          6           0       -2.567238   -1.841339   -0.327196
     35          6           0        2.441538    2.789257    0.611252
     36          6           0       -2.609841   -3.312331   -0.617552
     37          6           0        1.219990    0.560027    0.316542
     38          6           0       -1.437642   -1.017085   -0.232586
     39          6           0        1.065905   -0.819420    0.031052
     40          6           0       -0.114915   -1.491257   -0.194331
     41          1           0       14.012227    0.158093    0.076648
     42          1           0       14.001393   -0.052839   -1.781881
     43          1           0      -12.554549    1.713622    2.040507
     44          1           0      -13.883090    0.845954    1.843597
     45          1           0       14.120395   -2.321261   -0.701075
     46          1           0       12.688998   -2.343815   -1.550558
     47          1           0      -14.098248    2.742664    0.446634
     48          1           0      -14.134267    1.397219   -0.407765
     49          1           0       13.160531   -1.828378    1.463980
     50          1           0       12.119778   -3.216394    0.866057
     51          1           0      -11.885634    3.674037   -0.167893
     52          1           0      -12.566336    2.721275   -1.678490
     53          1           0       11.544617   -0.602024   -2.713807
     54          1           0       12.133706    1.018331   -2.858322
     55          1           0       10.521714    0.988224   -2.387366
     56          1           0       12.714896    1.933360    0.574764
     57          1           0       11.680338    2.535942   -0.803670
     58          1           0       13.300166    2.239847   -0.978226
     59          1           0      -13.224019   -0.481874   -0.793151
     60          1           0      -13.877062   -1.536194    0.739572
     61          1           0      -12.413915   -1.942035   -0.466154
     62          1           0      -10.906350   -0.128240    2.688966
     63          1           0      -10.764657   -1.365566    1.699298
     64          1           0      -12.236965   -1.135069    2.848668
     65          1           0        9.919019    1.932659    0.248887
     66          1           0      -10.215750   -1.679682   -0.575575
     67          1           0        9.609538   -0.791870    2.481664
     68          1           0       11.098671   -1.858156    2.975770
     69          1           0        9.773455   -2.305728    1.809161
     70          1           0       -9.340705    1.335257   -2.054932
     71          1           0       -9.448839    3.035537   -1.252000
     72          1           0      -10.486435    2.461524   -2.693708
     73          1           0        8.099606   -0.723537    0.191708
     74          1           0       -8.198224    0.678156   -0.057172
     75          1           0        8.232056    2.859937    1.591464
     76          1           0        6.523031    3.085314    0.890994
     77          1           0        8.005841    3.217873   -0.193911
     78          1           0       -8.698435   -3.237954   -1.446726
     79          1           0       -8.275600   -3.202379    0.325183
     80          1           0       -7.001463   -3.174044   -0.749523
     81          1           0        6.354798   -0.421747    0.214411
     82          1           0       -6.165571    0.399748    0.023524
     83          1           0        4.945217    2.494703    0.463342
     84          1           0       -5.165972   -2.696609   -0.649865
     85          1           0        3.825510   -0.260511    0.348379
     86          1           0       -3.690698   -0.040322   -0.077221
     87          1           0        3.002576    3.138693    1.518105
     88          1           0        1.307724    3.396163    0.862889
     89          1           0        2.677785    3.279380   -0.260973
     90          1           0       -3.009931   -3.596082   -1.526735
     91          1           0       -3.205000   -3.832589    0.247933
     92          1           0       -1.593574   -3.742879   -0.354639
     93          1           0        0.343335    1.230213    0.238461
     94          1           0       -1.799563   -0.088939    0.133107
     95          1           0        1.997528   -1.250561   -0.360120
     96          1           0        0.144080   -2.424226   -0.609809
 ---------------------------------------------------------------------

 SCF Done:  E(RB3LYP) =  -1557.53273927     A.U. after   15 cycles

 Excitation energies and oscillator strengths:

 Excited State   1:      Singlet-A      2.1380 eV  579.90 nm  f=3.1438  <S**2>=0.000
     147 ->149         0.12804
     148 ->149         0.69804
     148 <-149        -0.12034
 This state for optimization and/or second-order correction.
 Total Energy, E(TD-HF/TD-DFT) =  -1557.45416846
 Copying the excited state density for this state as the 1-particle RhoCI density.

 The electronic state is 1-A.
 Alpha  occ. eigenvalues --  -10.21389 -10.21092 -10.20160 -10.20131 -10.20086
 Alpha  occ. eigenvalues --  -10.20000 -10.19929 -10.19772 -10.19698 -10.19594
 Alpha  occ. eigenvalues --  -10.19591 -10.19559 -10.19546 -10.19474 -10.19360
 Alpha  occ. eigenvalues --  -10.19100 -10.19058 -10.19056 -10.18990 -10.18785
 Alpha  occ. eigenvalues --  -10.18767 -10.18743 -10.18731 -10.18705 -10.18608
 Alpha  occ. eigenvalues --  -10.18600 -10.18520 -10.18466 -10.18330 -10.18256
 Alpha  occ. eigenvalues --  -10.18145 -10.18116 -10.18085 -10.17732 -10.17158
 Alpha  occ. eigenvalues --  -10.16703 -10.16164 -10.16139 -10.16104 -10.16046
 Alpha  occ. eigenvalues --   -0.85431  -0.84744  -0.83990  -0.83078  -0.81583
 Alpha  occ. eigenvalues --   -0.81170  -0.79247  -0.78539  -0.78348  -0.77259
 Alpha  occ. eigenvalues --   -0.76608  -0.75472  -0.73995  -0.72135  -0.71739
 Alpha  occ. eigenvalues --   -0.70369  -0.69214  -0.68857  -0.68479  -0.68283
 Alpha  occ. eigenvalues --   -0.67697  -0.67370  -0.66549  -0.66261  -0.65718
 Alpha  occ. eigenvalues --   -0.63291  -0.61807  -0.60132  -0.58673  -0.57586
 Alpha  occ. eigenvalues --   -0.56853  -0.55699  -0.54602  -0.54248  -0.52962
 Alpha  occ. eigenvalues --   -0.52337  -0.51207  -0.49969  -0.49629  -0.48451
 Alpha  occ. eigenvalues --   -0.48218  -0.47455  -0.47113  -0.46852  -0.46450
 Alpha  occ. eigenvalues --   -0.45497  -0.45328  -0.45148  -0.44853  -0.44450
 Alpha  occ. eigenvalues --   -0.44363  -0.43808  -0.43102  -0.42547  -0.42373
 Alpha  occ. eigenvalues --   -0.42111  -0.42012  -0.41825  -0.41668  -0.40675
 Alpha  occ. eigenvalues --   -0.40566  -0.39986  -0.39817  -0.39647  -0.39472
 Alpha  occ. eigenvalues --   -0.39274  -0.38548  -0.38403  -0.38350  -0.38006
 Alpha  occ. eigenvalues --   -0.37772  -0.37500  -0.37275  -0.36716  -0.36147
 Alpha  occ. eigenvalues --   -0.35929  -0.35785  -0.35483  -0.35320  -0.35200
 Alpha  occ. eigenvalues --   -0.35043  -0.34360  -0.34292  -0.34070  -0.33691
 Alpha  occ. eigenvalues --   -0.33342  -0.33137  -0.32980  -0.32881  -0.32464
 Alpha  occ. eigenvalues --   -0.32388  -0.31988  -0.31866  -0.31555  -0.30590
 Alpha  occ. eigenvalues --   -0.30146  -0.29969  -0.29683  -0.29049  -0.28792
 Alpha  occ. eigenvalues --   -0.27220  -0.26567  -0.25993  -0.24493  -0.23187
 Alpha  occ. eigenvalues --   -0.21392  -0.19020  -0.16315
 Alpha virt. eigenvalues --   -0.08615  -0.05005  -0.01791   0.00922   0.03123
 Alpha virt. eigenvalues --    0.04177   0.05985   0.06835   0.07048   0.07290
 Alpha virt. eigenvalues --    0.07906   0.08039   0.08231   0.08616   0.08770

 Mulliken charges:
               1
     1  C   -0.022206
     2  C    0.019503
     3  C   -0.172363
     4  C   -0.180596
     5  C   -0.175327
     6  C   -0.192080
     7  C    0.083682
     8  C    0.107380
     9  C   -0.221670
    10  C   -0.215354
    11  C    0.073154
    12  C    0.043099
    13  C   -0.283457
    14  C   -0.294802
    15  C   -0.297367
    16  C   -0.303053
    17  C   -0.180760
    18  C   -0.176578
    19  C   -0.347273
    20  C   -0.352015
    21  C   -0.070001
    22  C   -0.072060
    23  C    0.099098
    24  C    0.104569
    25  C   -0.352839
    26  C   -0.371137
    27  C   -0.139319
    28  C   -0.124523
    29  C   -0.099557
    30  C   -0.092876
    31  C   -0.038230
    32  C   -0.120076
    33  C    0.084332
    34  C    0.143835
    35  C   -0.363957
    36  C   -0.385850
    37  C   -0.108131
    38  C   -0.108947
    39  C   -0.116794
    40  C   -0.094192
    41  H    0.081886
    42  H    0.097729
    43  H    0.065888
    44  H    0.080228
    45  H    0.091517
    46  H    0.059038
    47  H    0.092723
    48  H    0.114562
    49  H    0.101202
    50  H    0.093360
    51  H    0.081269
    52  H    0.100032
    53  H    0.098543
    54  H    0.109290
    55  H    0.100456
    56  H    0.085641
    57  H    0.081630
    58  H    0.107937
    59  H    0.105986
    60  H    0.089908
    61  H    0.087769
    62  H    0.108419
    63  H    0.091341
    64  H    0.084909
    65  H    0.089885
    66  H    0.091095
    67  H    0.127565
    68  H    0.065944
    69  H    0.129588
    70  H    0.126902
    71  H    0.122696
    72  H    0.081473
    73  H    0.066673
    74  H    0.073234
    75  H    0.140766
    76  H    0.078630
    77  H    0.122978
    78  H    0.118381
    79  H    0.093551
    80  H    0.114280
    81  H    0.064953
    82  H    0.069985
    83  H    0.098931
    84  H    0.094206
    85  H    0.050417
    86  H    0.075661
    87  H    0.121007
    88  H    0.047806
    89  H    0.141328
    90  H    0.138656
    91  H    0.109039
    92  H    0.109601
    93  H    0.080713
    94  H    0.086159
    95  H    0.088053
    96  H    0.083320
 Sum of Mulliken charges =  -0.00000

 Dipole moment (field-independent basis, Debye):
    X=              0.8121    Y=             -0.1373    Z=             -0.7387  Tot=              1.1064
 Quadrupole moment (field-independent basis, Debye-Ang):
   XX=           -224.8143   YY=           -234.6009   ZZ=           -255.3233
   XY=              2.9413   XZ=             -2.9227   YZ=              1.6602

 Normal termination of Gaussian 16 at Wed Jul 31 16:41:05 2019.
