 Gaussian 16, Revision A.03,
 Gaussian 16:  ES64L-G16RevA.03 25-Dec-2016

 ---------------------------------
 # td=(NStates=1) B3LYP/6-31G(d,p)
 ---------------------------------

 --
 TD
 --
 Symbolic Z-matrix:
 Charge =  0 Multiplicity = 1

                         Standard orientation:
 ---------------------------------------------------------------------
 Center     Atomic      Atomic             Coordinates (Angstroms)
 Number     Number       Type             X           Y           Z
 ---------------------------------------------------------------------
      1          6           0       12.193841    0.595331   -0.547462
      2          6           0      -12.202085   -0.069780    0.914519
      3          6           0       13.470317   -0.320350   -0.493747
      4          6           0      -12.875046    1.163620    1.395150
      5          6           0       13.165218   -1.761475   -0.615117
      6          6           0      -13.493991    2.055988    0.284398
      7          6           0       10.983480   -0.025253    0.213632
      8          6           0      -11.005094    0.430526   -0.027518
      9          6           0       12.379673   -2.051221    0.646882
     10          6           0      -12.175878    2.668395   -0.536239
     11          6           0       11.142747   -1.183038    0.838322
     12          6           0      -11.088954    1.631037   -0.669188
     13          6           0       11.766338    0.726277   -2.048049
     14          6           0       12.685213    2.007081   -0.128239
     15          6           0      -13.056907   -0.930447   -0.071782
     16          6           0      -11.592379   -0.843352    2.032114
     17          6           0        9.869036    0.814158    0.404040
     18          6           0       -9.923427   -0.569809   -0.229772
     19          6           0       10.152007   -1.915391    1.755213
     20          6           0       -9.966172    2.070765   -1.666646
     21          6           0        8.563611    0.403665    0.204755
     22          6           0       -8.600479   -0.313571   -0.316819
     23          6           0        7.422388    1.245747    0.463790
     24          6           0       -7.531626   -1.316637   -0.348148
     25          6           0        7.686545    2.764162    0.817211
     26          6           0       -7.982781   -2.714969   -0.620284
     27          6           0        6.124452    0.673142    0.116905
     28          6           0       -6.162697   -0.889137   -0.327638
     29          6           0        4.889688    1.312342    0.265038
     30          6           0       -5.118375   -1.722724   -0.436492
     31          6           0        3.657453    0.612283    0.084165
     32          6           0       -3.766801   -1.129937   -0.361814
     33          6           0        2.365407    1.217653    0.233602
     34          6           0       -2.512543   -1.811784   -0.385588
     35          6           0        2.246128    2.725186    0.514839
     36          6           0       -2.439172   -3.279285   -0.558886
     37          6           0        1.233484    0.576390    0.058453
     38          6           0       -1.430650   -0.950861   -0.240371
     39          6           0        1.111616   -0.806554   -0.181479
     40          6           0       -0.136876   -1.499643   -0.340262
     41          1           0       14.179524    0.028992    0.408821
     42          1           0       13.909612    0.125470   -1.345522
     43          1           0      -12.167643    1.781468    2.091287
     44          1           0      -13.780869    0.928553    1.927865
     45          1           0       13.999609   -2.433799   -0.796611
     46          1           0       12.506740   -2.055316   -1.522240
     47          1           0      -14.113112    2.782888    0.834338
     48          1           0      -14.219480    1.447601   -0.415964
     49          1           0       13.118191   -2.040487    1.500926
     50          1           0       12.215048   -3.060121    0.614941
     51          1           0      -11.771101    3.529693    0.007701
     52          1           0      -12.757872    2.979641   -1.460356
     53          1           0       11.468462   -0.094404   -2.619561
     54          1           0       12.693468    1.172141   -2.450464
     55          1           0       10.859375    1.709078   -2.167121
     56          1           0       12.533501    2.119542    0.915189
     57          1           0       11.979521    2.857971   -0.269141
     58          1           0       13.716493    2.367675   -0.660247
     59          1           0      -13.398545   -0.514163   -0.976380
     60          1           0      -13.776010   -1.627510    0.520816
     61          1           0      -12.574783   -1.689445   -0.513068
     62          1           0      -10.743616   -0.196726    2.716131
     63          1           0      -11.141516   -1.781730    1.708617
     64          1           0      -12.394604   -1.159689    2.767127
     65          1           0        9.939950    1.984623    0.473631
     66          1           0      -10.318330   -1.649650   -0.338680
     67          1           0        9.554268   -1.102998    2.053821
     68          1           0       10.596534   -2.504302    2.516796
     69          1           0        9.420106   -2.642881    1.256451
     70          1           0       -9.274014    1.269154   -1.637969
     71          1           0       -9.289798    2.834490   -1.462043
     72          1           0      -10.530605    2.325914   -2.581440
     73          1           0        8.522797   -0.788291   -0.138597
     74          1           0       -8.299159    0.753069   -0.190093
     75          1           0        8.123178    2.693624    1.814200
     76          1           0        6.705578    3.410746    0.631961
     77          1           0        8.357519    3.059994   -0.032013
     78          1           0       -8.462329   -2.778340   -1.742354
     79          1           0       -8.616750   -3.164635    0.301344
     80          1           0       -6.970577   -3.250920   -0.767643
     81          1           0        6.077112   -0.409363    0.120105
     82          1           0       -5.912900    0.252228   -0.442182
     83          1           0        4.712426    2.289171    0.593961
     84          1           0       -5.342068   -2.746439   -0.435621
     85          1           0        3.737980   -0.355400   -0.194626
     86          1           0       -3.830336   -0.144685   -0.221413
     87          1           0        2.975766    2.966006    1.309149
     88          1           0        1.374676    3.121236    0.709957
     89          1           0        2.576560    3.423586   -0.336830
     90          1           0       -3.228697   -3.448079   -1.333705
     91          1           0       -2.622993   -3.828547    0.502365
     92          1           0       -1.313323   -3.586335   -1.072599
     93          1           0        0.294178    1.113924    0.042701
     94          1           0       -1.654986    0.068371   -0.082492
     95          1           0        1.996819   -1.452774   -0.348181
     96          1           0        0.080770   -2.421025   -0.333974
 ---------------------------------------------------------------------

 SCF Done:  E(RB3LYP) =  -1557.54876871     A.U. after   17 cycles

 Excitation energies and oscillator strengths:

 Excited State   1:      Singlet-A      1.8290 eV  677.87 nm  f=3.3444  <S**2>=0.000
     148 ->149         0.71640
     148 <-149        -0.16188
 This state for optimization and/or second-order correction.
 Total Energy, E(TD-HF/TD-DFT) =  -1557.48155313
 Copying the excited state density for this state as the 1-particle RhoCI density.

 The electronic state is 1-A.
 Alpha  occ. eigenvalues --  -10.21166 -10.21148 -10.20900 -10.20537 -10.20418
 Alpha  occ. eigenvalues --  -10.20111 -10.19860 -10.19744 -10.19688 -10.19251
 Alpha  occ. eigenvalues --  -10.19235 -10.19130 -10.19128 -10.18981 -10.18937
 Alpha  occ. eigenvalues --  -10.18936 -10.18849 -10.18780 -10.18773 -10.18609
 Alpha  occ. eigenvalues --  -10.18575 -10.18570 -10.18504 -10.18483 -10.18477
 Alpha  occ. eigenvalues --  -10.18398 -10.18397 -10.18278 -10.18149 -10.18101
 Alpha  occ. eigenvalues --  -10.17942 -10.17846 -10.17530 -10.17473 -10.17357
 Alpha  occ. eigenvalues --  -10.17319 -10.17219 -10.17154 -10.16744 -10.15833
 Alpha  occ. eigenvalues --   -0.85378  -0.84286  -0.83883  -0.83118  -0.81764
 Alpha  occ. eigenvalues --   -0.81209  -0.78764  -0.78315  -0.78014  -0.77284
 Alpha  occ. eigenvalues --   -0.76397  -0.75115  -0.74001  -0.71661  -0.71165
 Alpha  occ. eigenvalues --   -0.70299  -0.68994  -0.68313  -0.68124  -0.67794
 Alpha  occ. eigenvalues --   -0.67590  -0.67355  -0.66336  -0.66309  -0.65553
 Alpha  occ. eigenvalues --   -0.62837  -0.62093  -0.59475  -0.58831  -0.57389
 Alpha  occ. eigenvalues --   -0.56593  -0.55779  -0.55141  -0.54051  -0.54020
 Alpha  occ. eigenvalues --   -0.52378  -0.51277  -0.49896  -0.49435  -0.49257
 Alpha  occ. eigenvalues --   -0.48149  -0.47908  -0.47431  -0.46434  -0.45650
 Alpha  occ. eigenvalues --   -0.45345  -0.44844  -0.44175  -0.44078  -0.43924
 Alpha  occ. eigenvalues --   -0.43414  -0.43373  -0.43021  -0.42307  -0.42163
 Alpha  occ. eigenvalues --   -0.41817  -0.41717  -0.41396  -0.41175  -0.40846
 Alpha  occ. eigenvalues --   -0.40638  -0.40303  -0.40179  -0.39610  -0.39464
 Alpha  occ. eigenvalues --   -0.39244  -0.39150  -0.38832  -0.38483  -0.37913
 Alpha  occ. eigenvalues --   -0.37575  -0.37205  -0.36998  -0.36665  -0.36395
 Alpha  occ. eigenvalues --   -0.36011  -0.35694  -0.35244  -0.35133  -0.34864
 Alpha  occ. eigenvalues --   -0.34771  -0.34607  -0.33995  -0.33869  -0.33585
 Alpha  occ. eigenvalues --   -0.33290  -0.33098  -0.32988  -0.32676  -0.32277
 Alpha  occ. eigenvalues --   -0.32160  -0.32001  -0.31922  -0.31478  -0.31390
 Alpha  occ. eigenvalues --   -0.31085  -0.29739  -0.29574  -0.29244  -0.28646
 Alpha  occ. eigenvalues --   -0.27810  -0.26937  -0.25581  -0.24168  -0.22857
 Alpha  occ. eigenvalues --   -0.21276  -0.18122  -0.15138
 Alpha virt. eigenvalues --   -0.08992  -0.05843  -0.01425   0.01176   0.02719
 Alpha virt. eigenvalues --    0.04584   0.06115   0.06599   0.06980   0.07360
 Alpha virt. eigenvalues --    0.07659   0.07927   0.08291   0.08503   0.08598

 Mulliken charges:
               1
     1  C   -0.024053
     2  C    0.040713
     3  C   -0.146642
     4  C   -0.160719
     5  C   -0.194231
     6  C   -0.208591
     7  C    0.104148
     8  C    0.054016
     9  C   -0.216978
    10  C   -0.224730
    11  C    0.057132
    12  C    0.041841
    13  C   -0.259439
    14  C   -0.310217
    15  C   -0.311207
    16  C   -0.293040
    17  C   -0.153812
    18  C   -0.126336
    19  C   -0.363845
    20  C   -0.356261
    21  C   -0.077906
    22  C   -0.097839
    23  C    0.053481
    24  C    0.070390
    25  C   -0.363555
    26  C   -0.355843
    27  C   -0.128343
    28  C   -0.093638
    29  C   -0.057365
    30  C   -0.082133
    31  C   -0.105633
    32  C   -0.130401
    33  C    0.124332
    34  C    0.137055
    35  C   -0.372374
    36  C   -0.357829
    37  C   -0.115652
    38  C   -0.086333
    39  C   -0.119337
    40  C   -0.079104
    41  H    0.079325
    42  H    0.080412
    43  H    0.082079
    44  H    0.081648
    45  H    0.089233
    46  H    0.084062
    47  H    0.089740
    48  H    0.088407
    49  H    0.095555
    50  H    0.099735
    51  H    0.113151
    52  H    0.099891
    53  H    0.112921
    54  H    0.093121
    55  H    0.046114
    56  H    0.111137
    57  H    0.090590
    58  H    0.093413
    59  H    0.115553
    60  H    0.075722
    61  H    0.111386
    62  H    0.078402
    63  H    0.100570
    64  H    0.088061
    65  H    0.073702
    66  H    0.086836
    67  H    0.125278
    68  H    0.111819
    69  H    0.101497
    70  H    0.111159
    71  H    0.110020
    72  H    0.100923
    73  H    0.075501
    74  H    0.084024
    75  H    0.141780
    76  H    0.106182
    77  H    0.132550
    78  H    0.113605
    79  H    0.111482
    80  H    0.091885
    81  H    0.087518
    82  H    0.074031
    83  H    0.069402
    84  H    0.082708
    85  H    0.069261
    86  H    0.068814
    87  H    0.110443
    88  H    0.115346
    89  H    0.102495
    90  H    0.122935
    91  H    0.118158
    92  H    0.087309
    93  H    0.076755
    94  H    0.085868
    95  H    0.077346
    96  H    0.063415
 Sum of Mulliken charges =  -0.00000

 Dipole moment (field-independent basis, Debye):
    X=              0.7649    Y=             -0.3007    Z=              0.2347  Tot=              0.8547
 Quadrupole moment (field-independent basis, Debye-Ang):
   XX=           -229.2900   YY=           -233.4958   ZZ=           -256.5876
   XY=              0.4574   XZ=              4.2936   YZ=              2.6733

 Normal termination of Gaussian 16 at Thu Aug  1 16:02:23 2019.
