 Gaussian 16, Revision A.03,
 Gaussian 16:  ES64L-G16RevA.03 25-Dec-2016

 ---------------------------------
 # td=(NStates=1) B3LYP/6-31G(d,p)
 ---------------------------------

 --
 TD
 --
 Symbolic Z-matrix:
 Charge =  0 Multiplicity = 1

                         Standard orientation:
 ---------------------------------------------------------------------
 Center     Atomic      Atomic             Coordinates (Angstroms)
 Number     Number       Type             X           Y           Z
 ---------------------------------------------------------------------
      1          6           0       12.099762    0.497198   -0.752416
      2          6           0      -12.139674   -0.117277    0.713903
      3          6           0       13.441844   -0.365275   -0.716935
      4          6           0      -13.137428    0.954050    1.313134
      5          6           0       13.200206   -1.791973   -0.547919
      6          6           0      -13.370260    1.907934    0.112234
      7          6           0       11.069226   -0.078578    0.253938
      8          6           0      -10.984216    0.474019   -0.049919
      9          6           0       12.413427   -2.133134    0.747774
     10          6           0      -12.116458    2.650138   -0.310902
     11          6           0       11.230680   -1.183657    0.975855
     12          6           0      -10.983003    1.695997   -0.514206
     13          6           0       11.486521    0.427637   -2.195766
     14          6           0       12.529625    1.996237   -0.433950
     15          6           0      -13.057877   -1.245275   -0.115287
     16          6           0      -11.613217   -0.928329    1.963118
     17          6           0        9.813491    0.732809    0.438718
     18          6           0       -9.865629   -0.511470   -0.224822
     19          6           0       10.341183   -1.690367    2.135711
     20          6           0       -9.941712    2.305049   -1.433810
     21          6           0        8.527663    0.331976    0.364524
     22          6           0       -8.545688   -0.298633   -0.156017
     23          6           0        7.344348    1.277824    0.476881
     24          6           0       -7.549442   -1.321588   -0.437260
     25          6           0        7.684979    2.754542    0.702263
     26          6           0       -8.027059   -2.779466   -0.713487
     27          6           0        6.143331    0.783437    0.369019
     28          6           0       -6.271827   -1.008623   -0.291427
     29          6           0        4.855499    1.513343    0.413017
     30          6           0       -5.028235   -1.703916   -0.358000
     31          6           0        3.772807    0.891468    0.177322
     32          6           0       -3.784176   -1.020444   -0.375745
     33          6           0        2.343899    1.374660    0.194214
     34          6           0       -2.511933   -1.784252   -0.433587
     35          6           0        2.269520    2.988128    0.305801
     36          6           0       -2.503296   -3.208885   -0.741774
     37          6           0        1.197738    0.661901   -0.046670
     38          6           0       -1.362491   -1.051258   -0.246910
     39          6           0        1.135077   -0.794367   -0.242826
     40          6           0       -0.031747   -1.534861   -0.222664
     41          1           0       13.768586   -0.248242    0.282929
     42          1           0       13.978434   -0.080514   -1.836511
     43          1           0      -12.835801    1.661405    1.935402
     44          1           0      -13.978714    0.540177    1.553961
     45          1           0       14.237364   -2.289793   -0.529760
     46          1           0       12.913313   -2.212535   -1.511217
     47          1           0      -14.109067    2.516460    0.539137
     48          1           0      -13.991901    1.347974   -0.494421
     49          1           0       12.971566   -2.176343    1.581132
     50          1           0       11.824387   -3.091939    0.518123
     51          1           0      -11.832968    3.583023    0.503402
     52          1           0      -12.198375    3.098375   -1.123160
     53          1           0       11.465705   -0.625257   -2.628703
     54          1           0       12.222244    0.832643   -2.756073
     55          1           0       10.487546    0.724673   -2.315497
     56          1           0       12.717148    2.113926    0.726290
     57          1           0       11.590933    2.662731   -0.800757
     58          1           0       13.354598    2.357547   -1.060975
     59          1           0      -13.290664   -0.873084   -0.960311
     60          1           0      -14.051179   -1.419737    0.471029
     61          1           0      -12.404215   -2.161126   -0.102969
     62          1           0      -10.679593   -0.013686    2.337660
     63          1           0      -11.303505   -1.887963    1.762651
     64          1           0      -12.403104   -1.047384    2.769980
     65          1           0       10.250706    1.731432    0.551568
     66          1           0      -10.263274   -1.624168   -0.491458
     67          1           0        9.669426   -0.957989    2.575275
     68          1           0       10.855122   -2.111706    3.063429
     69          1           0        9.910184   -2.809969    1.947433
     70          1           0       -9.175089    1.493585   -1.733640
     71          1           0       -9.363527    3.097598   -0.884491
     72          1           0      -10.493726    3.052437   -2.278899
     73          1           0        8.395642   -0.720289    0.302696
     74          1           0       -8.436555    0.788446   -0.186701
     75          1           0        8.366227    2.840288    1.553810
     76          1           0        6.844190    3.444641    0.836268
     77          1           0        8.289030    3.189097   -0.135116
     78          1           0       -8.866261   -2.530249   -1.515249
     79          1           0       -8.480251   -3.153628    0.202974
     80          1           0       -7.208429   -3.471165   -1.203113
     81          1           0        6.120499   -0.383100    0.250013
     82          1           0       -5.877459    0.190666    0.110266
     83          1           0        4.750821    2.446800    0.615653
     84          1           0       -5.172543   -2.703179   -0.419732
     85          1           0        3.995771   -0.162565    0.058501
     86          1           0       -3.683603    0.119272   -0.436155
     87          1           0        2.710085    3.595502    1.283283
     88          1           0        1.330703    3.325547    0.153970
     89          1           0        2.768851    3.493768   -0.548394
     90          1           0       -3.041841   -3.582002   -1.846864
     91          1           0       -2.901444   -3.753275    0.118680
     92          1           0       -1.369099   -3.629009   -0.899273
     93          1           0        0.375528    1.406592    0.121217
     94          1           0       -1.469524   -0.098396    0.091277
     95          1           0        2.219592   -1.140946   -0.411898
     96          1           0        0.044765   -2.695688   -0.277420
 ---------------------------------------------------------------------

 SCF Done:  E(RB3LYP) =  -1557.44534108     A.U. after   14 cycles

 Excitation energies and oscillator strengths:

 Excited State   1:      Singlet-A      2.5371 eV  488.69 nm  f=2.7599  <S**2>=0.000
     148 ->149         0.69800
 This state for optimization and/or second-order correction.
 Total Energy, E(TD-HF/TD-DFT) =  -1557.35210450
 Copying the excited state density for this state as the 1-particle RhoCI density.

 The electronic state is 1-A.
 Alpha  occ. eigenvalues --  -10.21282 -10.20859 -10.20643 -10.20615 -10.20542
 Alpha  occ. eigenvalues --  -10.20522 -10.20312 -10.20014 -10.20004 -10.19966
 Alpha  occ. eigenvalues --  -10.19913 -10.19805 -10.19595 -10.19575 -10.19518
 Alpha  occ. eigenvalues --  -10.19287 -10.19216 -10.19188 -10.18963 -10.18810
 Alpha  occ. eigenvalues --  -10.18796 -10.18679 -10.18617 -10.18509 -10.18385
 Alpha  occ. eigenvalues --  -10.18307 -10.18283 -10.18256 -10.18213 -10.18198
 Alpha  occ. eigenvalues --  -10.18170 -10.18144 -10.18097 -10.17720 -10.17629
 Alpha  occ. eigenvalues --  -10.17540 -10.16834 -10.16141 -10.15908 -10.14862
 Alpha  occ. eigenvalues --   -0.85295  -0.84587  -0.83484  -0.83110  -0.82165
 Alpha  occ. eigenvalues --   -0.80870  -0.78935  -0.78168  -0.77793  -0.77548
 Alpha  occ. eigenvalues --   -0.76985  -0.75743  -0.74185  -0.72199  -0.71672
 Alpha  occ. eigenvalues --   -0.69595  -0.68568  -0.68320  -0.68023  -0.67788
 Alpha  occ. eigenvalues --   -0.67554  -0.67215  -0.66736  -0.66705  -0.66223
 Alpha  occ. eigenvalues --   -0.62625  -0.61077  -0.59972  -0.58875  -0.57394
 Alpha  occ. eigenvalues --   -0.57199  -0.56328  -0.54983  -0.54503  -0.53851
 Alpha  occ. eigenvalues --   -0.52471  -0.51601  -0.50627  -0.49915  -0.49559
 Alpha  occ. eigenvalues --   -0.49137  -0.47511  -0.47003  -0.46214  -0.45747
 Alpha  occ. eigenvalues --   -0.45143  -0.44695  -0.44342  -0.44176  -0.44022
 Alpha  occ. eigenvalues --   -0.43122  -0.42730  -0.42459  -0.42242  -0.41799
 Alpha  occ. eigenvalues --   -0.41557  -0.41482  -0.41390  -0.41015  -0.40673
 Alpha  occ. eigenvalues --   -0.40623  -0.40359  -0.40126  -0.39723  -0.39145
 Alpha  occ. eigenvalues --   -0.38850  -0.38731  -0.38610  -0.38292  -0.37870
 Alpha  occ. eigenvalues --   -0.37620  -0.37456  -0.37306  -0.37105  -0.36796
 Alpha  occ. eigenvalues --   -0.36630  -0.36030  -0.35773  -0.35602  -0.35540
 Alpha  occ. eigenvalues --   -0.35431  -0.34931  -0.34487  -0.33877  -0.33630
 Alpha  occ. eigenvalues --   -0.33255  -0.33176  -0.32906  -0.32512  -0.32371
 Alpha  occ. eigenvalues --   -0.32128  -0.31835  -0.30990  -0.30741  -0.30474
 Alpha  occ. eigenvalues --   -0.30222  -0.29856  -0.29472  -0.29116  -0.28105
 Alpha  occ. eigenvalues --   -0.26793  -0.26488  -0.26467  -0.24362  -0.23225
 Alpha  occ. eigenvalues --   -0.21510  -0.19784  -0.17324
 Alpha virt. eigenvalues --   -0.07611  -0.03972  -0.01478   0.00898   0.02627
 Alpha virt. eigenvalues --    0.04329   0.05399   0.05786   0.06646   0.07010
 Alpha virt. eigenvalues --    0.07305   0.07757   0.07966   0.08525   0.08693

 Mulliken charges:
               1
     1  C   -0.002132
     2  C   -0.032884
     3  C   -0.152384
     4  C   -0.149100
     5  C   -0.188223
     6  C   -0.227534
     7  C    0.031615
     8  C    0.092913
     9  C   -0.228898
    10  C   -0.168026
    11  C    0.073336
    12  C    0.072729
    13  C   -0.304745
    14  C   -0.299662
    15  C   -0.307256
    16  C   -0.261213
    17  C   -0.127124
    18  C   -0.134687
    19  C   -0.364287
    20  C   -0.374155
    21  C   -0.104661
    22  C   -0.069030
    23  C    0.141795
    24  C    0.065979
    25  C   -0.379164
    26  C   -0.363200
    27  C   -0.158692
    28  C   -0.083469
    29  C   -0.022333
    30  C   -0.071531
    31  C   -0.091147
    32  C   -0.127328
    33  C    0.066247
    34  C    0.142859
    35  C   -0.372383
    36  C   -0.364325
    37  C   -0.098795
    38  C   -0.092818
    39  C   -0.102940
    40  C   -0.102546
    41  H    0.099342
    42  H    0.061061
    43  H    0.102153
    44  H    0.085267
    45  H    0.075577
    46  H    0.092740
    47  H    0.081471
    48  H    0.100106
    49  H    0.118805
    50  H    0.104801
    51  H    0.063586
    52  H    0.104839
    53  H    0.087017
    54  H    0.103393
    55  H    0.118827
    56  H    0.097087
    57  H    0.081893
    58  H    0.110320
    59  H    0.122261
    60  H    0.086714
    61  H    0.097792
    62  H    0.049833
    63  H    0.099080
    64  H    0.086200
    65  H    0.082668
    66  H    0.058982
    67  H    0.124659
    68  H    0.097588
    69  H    0.083702
    70  H    0.115044
    71  H    0.116112
    72  H    0.080733
    73  H    0.090158
    74  H    0.086821
    75  H    0.122723
    76  H    0.108793
    77  H    0.116408
    78  H    0.112735
    79  H    0.140079
    80  H    0.105165
    81  H    0.072179
    82  H    0.028681
    83  H    0.057906
    84  H    0.076967
    85  H    0.062935
    86  H    0.095005
    87  H    0.089334
    88  H    0.113391
    89  H    0.120626
    90  H    0.089218
    91  H    0.133123
    92  H    0.090462
    93  H    0.079942
    94  H    0.080681
    95  H    0.101747
    96  H    0.074472
 Sum of Mulliken charges =  -0.00000

 Dipole moment (field-independent basis, Debye):
    X=              0.2094    Y=              0.0146    Z=             -0.2113  Tot=              0.2979
 Quadrupole moment (field-independent basis, Debye-Ang):
   XX=           -214.3972   YY=           -233.0803   ZZ=           -255.9539
   XY=              0.3626   XZ=              4.4853   YZ=              0.2361

 Normal termination of Gaussian 16 at Tue Jul 30 09:37:34 2019.
