 Gaussian 16, Revision A.03,
 Gaussian 16:  ES64L-G16RevA.03 25-Dec-2016

 ---------------------------------
 # td=(NStates=1) B3LYP/6-31G(d,p)
 ---------------------------------

 --
 TD
 --
 Symbolic Z-matrix:
 Charge =  0 Multiplicity = 1

                         Standard orientation:
 ---------------------------------------------------------------------
 Center     Atomic      Atomic             Coordinates (Angstroms)
 Number     Number       Type             X           Y           Z
 ---------------------------------------------------------------------
      1          6           0      -12.085747   -0.469393   -0.787679
      2          6           0       12.009759   -0.021457    0.910464
      3          6           0      -13.385382    0.472137   -0.691721
      4          6           0       12.886407   -1.249802    1.325869
      5          6           0      -12.991581    1.978372   -0.661688
      6          6           0       13.287156   -2.057173    0.109606
      7          6           0      -10.943676   -0.064565    0.104461
      8          6           0       11.003923   -0.434512   -0.162216
      9          6           0      -12.194122    2.102244    0.596895
     10          6           0       12.053160   -2.665195   -0.656586
     11          6           0      -11.025455    1.159560    0.847913
     12          6           0       10.996928   -1.620575   -0.800426
     13          6           0      -11.597645   -0.534945   -2.159328
     14          6           0      -12.691692   -1.819716   -0.386474
     15          6           0       12.999248    0.983154    0.216375
     16          6           0       11.370162    0.490334    2.183984
     17          6           0       -9.821339   -0.910040    0.317674
     18          6           0        9.930900    0.598855   -0.307520
     19          6           0      -10.143393    1.589965    1.933147
     20          6           0       10.070902   -1.966877   -1.937503
     21          6           0       -8.564684   -0.590448    0.289271
     22          6           0        8.670832    0.375663   -0.353858
     23          6           0       -7.416706   -1.385287    0.408831
     24          6           0        7.546868    1.435637   -0.440860
     25          6           0       -7.644420   -2.888359    0.816976
     26          6           0        8.012355    2.865105   -0.848170
     27          6           0       -6.196511   -0.860402    0.319100
     28          6           0        6.256908    1.014579   -0.403333
     29          6           0       -4.903728   -1.412729    0.370062
     30          6           0        5.096584    1.809955   -0.388650
     31          6           0       -3.796736   -0.786369    0.245853
     32          6           0        3.878709    1.249078   -0.191874
     33          6           0       -2.411109   -1.311338    0.395236
     34          6           0        2.465608    1.885103   -0.152737
     35          6           0       -2.274851   -2.827430    0.473975
     36          6           0        2.518235    3.374609   -0.340545
     37          6           0       -1.309745   -0.660294    0.222008
     38          6           0        1.368511    1.076452   -0.022713
     39          6           0       -1.114785    0.823892   -0.095033
     40          6           0        0.023351    1.589534   -0.208817
     41          1           0      -14.005167    0.237561    0.162124
     42          1           0      -14.154097    0.213197   -1.494433
     43          1           0       12.471812   -2.016008    2.075329
     44          1           0       13.863996   -0.992812    1.671537
     45          1           0      -13.782673    2.709597   -0.779634
     46          1           0      -12.469714    2.211749   -1.440885
     47          1           0       13.702279   -2.848352    0.325733
     48          1           0       13.889736   -1.655797   -0.471205
     49          1           0      -12.773967    1.944230    1.402977
     50          1           0      -11.694704    3.221281    0.732470
     51          1           0       11.646260   -3.240333    0.195498
     52          1           0       12.317502   -3.392009   -1.564018
     53          1           0      -11.352048    0.273195   -2.705138
     54          1           0      -12.262369   -1.159974   -2.871402
     55          1           0      -10.714451   -1.015599   -2.267992
     56          1           0      -13.108805   -1.761428    0.675222
     57          1           0      -11.890677   -2.671259   -0.385650
     58          1           0      -13.487554   -2.235255   -1.173605
     59          1           0       13.609499    0.530543   -0.681998
     60          1           0       13.874954    1.234575    1.040058
     61          1           0       12.731220    1.960572   -0.217456
     62          1           0       10.507677   -0.096719    2.528236
     63          1           0       10.934197    1.623064    1.932919
     64          1           0       12.248096    0.664200    3.039328
     65          1           0       -9.889873   -1.989527    0.501316
     66          1           0       10.274913    1.950504   -0.332956
     67          1           0       -9.535226    0.810492    2.383814
     68          1           0      -10.737911    1.754346    2.782957
     69          1           0       -9.770867    2.562167    1.720390
     70          1           0        9.306143   -1.190114   -2.081727
     71          1           0        9.535097   -3.171104   -1.873647
     72          1           0       10.586658   -2.064816   -2.906006
     73          1           0       -8.479860    0.489957    0.246920
     74          1           0        8.256390   -0.573866   -0.342252
     75          1           0       -8.211417   -3.008090    1.779998
     76          1           0       -6.737745   -3.429967    0.873117
     77          1           0       -8.187504   -3.440941   -0.108411
     78          1           0        8.793406    2.674781   -1.523143
     79          1           0        8.396911    3.311589   -0.078540
     80          1           0        7.000179    3.489550   -1.064390
     81          1           0       -6.153223    0.165750    0.048713
     82          1           0        5.950925   -0.017326   -0.110468
     83          1           0       -4.978458   -2.548640    0.681709
     84          1           0        5.057009    3.002509   -0.644959
     85          1           0       -3.885481    0.180877    0.122442
     86          1           0        3.781952    0.218677   -0.275650
     87          1           0       -2.730435   -3.067522    1.543064
     88          1           0       -1.312553   -3.255409    0.207000
     89          1           0       -2.776948   -3.259865   -0.408189
     90          1           0        3.352120    3.639478   -1.252138
     91          1           0        3.027728    3.778223    0.580499
     92          1           0        1.445477    3.760443   -0.658374
     93          1           0       -0.368163   -0.934268    0.434497
     94          1           0        1.426372    0.088837    0.172736
     95          1           0       -1.967974    1.529423   -0.276592
     96          1           0       -0.167809    2.781725   -0.409569
 ---------------------------------------------------------------------

 SCF Done:  E(RB3LYP) =  -1557.46297388     A.U. after   14 cycles

 Excitation energies and oscillator strengths:

 Excited State   1:      Singlet-A      2.6768 eV  463.18 nm  f=2.6115  <S**2>=0.000
     148 ->149         0.70391
 This state for optimization and/or second-order correction.
 Total Energy, E(TD-HF/TD-DFT) =  -1557.36460372
 Copying the excited state density for this state as the 1-particle RhoCI density.

 The electronic state is 1-A.
 Alpha  occ. eigenvalues --  -10.20778 -10.20744 -10.20474 -10.20224 -10.20104
 Alpha  occ. eigenvalues --  -10.20065 -10.19869 -10.19711 -10.19645 -10.19579
 Alpha  occ. eigenvalues --  -10.19562 -10.19556 -10.19498 -10.19415 -10.19148
 Alpha  occ. eigenvalues --  -10.19113 -10.19077 -10.19024 -10.18891 -10.18788
 Alpha  occ. eigenvalues --  -10.18729 -10.18655 -10.18527 -10.18463 -10.18336
 Alpha  occ. eigenvalues --  -10.18248 -10.18247 -10.18195 -10.17965 -10.17925
 Alpha  occ. eigenvalues --  -10.17635 -10.17514 -10.17480 -10.17242 -10.17092
 Alpha  occ. eigenvalues --  -10.16879 -10.16612 -10.16444 -10.15015 -10.13846
 Alpha  occ. eigenvalues --   -0.85480  -0.85317  -0.84113  -0.82731  -0.82311
 Alpha  occ. eigenvalues --   -0.81189  -0.79438  -0.79385  -0.78660  -0.78170
 Alpha  occ. eigenvalues --   -0.77043  -0.76262  -0.74665  -0.73553  -0.72452
 Alpha  occ. eigenvalues --   -0.69473  -0.68923  -0.68471  -0.68411  -0.68189
 Alpha  occ. eigenvalues --   -0.67025  -0.66826  -0.66550  -0.66066  -0.65830
 Alpha  occ. eigenvalues --   -0.62916  -0.62100  -0.60805  -0.59915  -0.56918
 Alpha  occ. eigenvalues --   -0.56344  -0.56101  -0.55377  -0.54137  -0.52964
 Alpha  occ. eigenvalues --   -0.52292  -0.52133  -0.51230  -0.50605  -0.49966
 Alpha  occ. eigenvalues --   -0.48547  -0.48007  -0.47220  -0.46563  -0.46157
 Alpha  occ. eigenvalues --   -0.45970  -0.45788  -0.45272  -0.44354  -0.43773
 Alpha  occ. eigenvalues --   -0.43461  -0.43060  -0.42779  -0.42488  -0.42358
 Alpha  occ. eigenvalues --   -0.42082  -0.41372  -0.41241  -0.41174  -0.40764
 Alpha  occ. eigenvalues --   -0.40521  -0.40308  -0.40097  -0.39638  -0.39564
 Alpha  occ. eigenvalues --   -0.39323  -0.39227  -0.38858  -0.38135  -0.37966
 Alpha  occ. eigenvalues --   -0.37342  -0.37063  -0.36929  -0.36716  -0.36378
 Alpha  occ. eigenvalues --   -0.36101  -0.35708  -0.35446  -0.35236  -0.34863
 Alpha  occ. eigenvalues --   -0.34749  -0.34371  -0.34113  -0.33913  -0.33357
 Alpha  occ. eigenvalues --   -0.33238  -0.33060  -0.32867  -0.32654  -0.32550
 Alpha  occ. eigenvalues --   -0.32329  -0.32294  -0.31878  -0.31397  -0.31107
 Alpha  occ. eigenvalues --   -0.30975  -0.30206  -0.30015  -0.29646  -0.28540
 Alpha  occ. eigenvalues --   -0.28108  -0.27614  -0.26800  -0.23947  -0.22711
 Alpha  occ. eigenvalues --   -0.21099  -0.18993  -0.17442
 Alpha virt. eigenvalues --   -0.06694  -0.04486  -0.01168   0.00626   0.01899
 Alpha virt. eigenvalues --    0.04125   0.05164   0.06343   0.07152   0.07863
 Alpha virt. eigenvalues --    0.07907   0.08141   0.08334   0.08525   0.09550

 Mulliken charges:
               1
     1  C    0.007925
     2  C    0.025950
     3  C   -0.189095
     4  C   -0.191185
     5  C   -0.176610
     6  C   -0.156626
     7  C    0.059879
     8  C    0.055949
     9  C   -0.208549
    10  C   -0.249662
    11  C    0.051708
    12  C    0.096961
    13  C   -0.291654
    14  C   -0.294597
    15  C   -0.299837
    16  C   -0.278838
    17  C   -0.137810
    18  C   -0.128544
    19  C   -0.366465
    20  C   -0.352960
    21  C   -0.072594
    22  C   -0.054913
    23  C    0.126918
    24  C    0.070249
    25  C   -0.376570
    26  C   -0.360985
    27  C   -0.134367
    28  C   -0.130095
    29  C   -0.039005
    30  C   -0.055316
    31  C   -0.086998
    32  C   -0.127169
    33  C    0.105493
    34  C    0.115239
    35  C   -0.356148
    36  C   -0.358244
    37  C   -0.116019
    38  C   -0.099689
    39  C   -0.099703
    40  C   -0.113647
    41  H    0.092239
    42  H    0.077220
    43  H    0.083183
    44  H    0.098713
    45  H    0.086326
    46  H    0.113103
    47  H    0.087481
    48  H    0.102002
    49  H    0.123543
    50  H    0.051705
    51  H    0.110264
    52  H    0.087888
    53  H    0.108846
    54  H    0.071718
    55  H    0.113078
    56  H    0.096444
    57  H    0.082544
    58  H    0.087452
    59  H    0.097373
    60  H    0.067511
    61  H    0.110117
    62  H    0.119370
    63  H    0.071762
    64  H    0.077554
    65  H    0.071223
    66  H    0.035706
    67  H    0.122180
    68  H    0.116213
    69  H    0.120598
    70  H    0.113190
    71  H    0.055456
    72  H    0.116379
    73  H    0.069208
    74  H    0.088242
    75  H    0.122272
    76  H    0.114094
    77  H    0.098643
    78  H    0.130293
    79  H    0.140859
    80  H    0.091501
    81  H    0.065961
    82  H    0.080589
    83  H    0.060405
    84  H    0.060140
    85  H    0.067816
    86  H    0.072801
    87  H    0.104357
    88  H    0.108865
    89  H    0.121747
    90  H    0.088685
    91  H    0.134940
    92  H    0.099722
    93  H    0.077420
    94  H    0.080889
    95  H    0.067001
    96  H    0.072789
 Sum of Mulliken charges =  -0.00000

 Dipole moment (field-independent basis, Debye):
    X=              0.0014    Y=             -0.4789    Z=              0.3992  Tot=              0.6235
 Quadrupole moment (field-independent basis, Debye-Ang):
   XX=           -209.6759   YY=           -237.0651   ZZ=           -252.6040
   XY=            -10.1435   XZ=             -5.9016   YZ=             -1.0997

 Normal termination of Gaussian 16 at Tue Jul 30 14:34:48 2019.
