 Gaussian 16, Revision A.03,
 Gaussian 16:  ES64L-G16RevA.03 25-Dec-2016

 ---------------------------------
 # td=(NStates=1) B3LYP/6-31G(d,p)
 ---------------------------------

 --
 TD
 --
 Symbolic Z-matrix:
 Charge =  0 Multiplicity = 1

                         Standard orientation:
 ---------------------------------------------------------------------
 Center     Atomic      Atomic             Coordinates (Angstroms)
 Number     Number       Type             X           Y           Z
 ---------------------------------------------------------------------
      1          6           0       12.181636    0.555414   -0.675167
      2          6           0      -12.081219   -0.099625    0.937320
      3          6           0       13.375553   -0.308302   -0.700131
      4          6           0      -12.938665    1.129324    1.451698
      5          6           0       13.188074   -1.824911   -0.674395
      6          6           0      -13.382242    1.965054    0.175367
      7          6           0       11.007820   -0.045514    0.206978
      8          6           0      -11.019161    0.413161   -0.175471
      9          6           0       12.370411   -2.111820    0.548095
     10          6           0      -12.236998    2.604094   -0.642429
     11          6           0       11.125519   -1.291761    0.846178
     12          6           0      -11.198365    1.588906   -0.929471
     13          6           0       11.579727    0.641166   -2.135098
     14          6           0       12.553853    1.878914   -0.292992
     15          6           0      -12.920375   -1.170831    0.246718
     16          6           0      -11.330556   -0.587893    2.248399
     17          6           0        9.905037    0.858262    0.426418
     18          6           0       -9.932768   -0.532386   -0.311269
     19          6           0       10.231252   -1.887361    1.924954
     20          6           0      -10.242626    2.055155   -1.866778
     21          6           0        8.644187    0.456179    0.397939
     22          6           0       -8.560109   -0.314255   -0.272984
     23          6           0        7.444653    1.389680    0.424098
     24          6           0       -7.517741   -1.356196   -0.444578
     25          6           0        7.664092    2.822876    0.692210
     26          6           0       -7.950175   -2.814030   -0.600378
     27          6           0        6.168570    0.767100    0.339770
     28          6           0       -6.182851   -0.916295   -0.346504
     29          6           0        4.923409    1.426642    0.342806
     30          6           0       -4.972745   -1.649744   -0.576265
     31          6           0        3.667810    0.848719    0.251898
     32          6           0       -3.766240   -1.117523   -0.382612
     33          6           0        2.412624    1.317860    0.409522
     34          6           0       -2.501879   -1.764867   -0.336336
     35          6           0        2.224775    2.851820    0.494449
     36          6           0       -2.585392   -3.238798   -0.761623
     37          6           0        1.187535    0.613822    0.150637
     38          6           0       -1.379337   -1.101498   -0.174679
     39          6           0        1.138941   -0.822125    0.036220
     40          6           0        0.012380   -1.559938   -0.118786
     41          1           0       14.027527   -0.013723    0.106466
     42          1           0       13.737269    0.146064   -1.723090
     43          1           0      -12.323924    1.842742    2.078634
     44          1           0      -13.860375    0.806804    1.945502
     45          1           0       14.071163   -2.297511   -0.660781
     46          1           0       12.620434   -2.005779   -1.515053
     47          1           0      -14.021124    2.822220    0.596838
     48          1           0      -14.147956    1.248649   -0.486094
     49          1           0       13.050544   -2.155871    1.593084
     50          1           0       11.854428   -3.080437    0.337272
     51          1           0      -11.827005    3.484289   -0.089111
     52          1           0      -12.687578    3.106800   -1.635359
     53          1           0       11.567113   -0.425801   -2.566910
     54          1           0       12.163785    1.355174   -3.011256
     55          1           0       10.416211    0.849302   -2.150016
     56          1           0       12.433907    1.992157    0.689976
     57          1           0       11.740805    2.728126   -0.701096
     58          1           0       13.586512    2.133175   -0.752795
     59          1           0      -13.498787   -0.842960   -0.580579
     60          1           0      -13.655422   -1.522869    0.953012
     61          1           0      -12.372113   -2.150419    0.071221
     62          1           0      -10.620144    0.140470    2.472543
     63          1           0      -10.685764   -1.491860    2.003490
     64          1           0      -12.016785   -0.711965    3.044227
     65          1           0       10.055244    1.928810    0.406707
     66          1           0      -10.115524   -1.497194   -0.318195
     67          1           0        9.566668   -1.067176    2.383329
     68          1           0       10.971643   -2.294782    2.747583
     69          1           0        9.305489   -2.695075    1.460897
     70          1           0       -9.651568    0.984472   -2.103897
     71          1           0       -9.673302    2.802638   -1.509546
     72          1           0      -10.634788    2.483139   -2.688279
     73          1           0        8.391695   -0.625854    0.331337
     74          1           0       -8.267029    0.708287    0.069800
     75          1           0        7.980742    3.008075    1.648276
     76          1           0        6.817195    3.354504    0.730464
     77          1           0        8.432105    3.242674    0.040376
     78          1           0       -8.583162   -2.999037   -1.569439
     79          1           0       -8.375042   -3.002676    0.267408
     80          1           0       -6.996483   -3.385417   -0.858965
     81          1           0        6.167133   -0.293639    0.337307
     82          1           0       -6.018497    0.189934   -0.418839
     83          1           0        4.970646    2.514923    0.674706
     84          1           0       -4.989993   -2.781533   -0.874997
     85          1           0        3.624595   -0.314702    0.418346
     86          1           0       -3.742048   -0.035228   -0.175501
     87          1           0        2.745570    3.231391    1.417519
     88          1           0        1.106283    3.058102    0.726797
     89          1           0        2.437914    3.512231   -0.424944
     90          1           0       -2.948504   -3.609259   -1.863515
     91          1           0       -3.340734   -3.797914   -0.209142
     92          1           0       -1.654391   -3.696207   -0.772150
     93          1           0        0.313130    1.115286    0.033106
     94          1           0       -1.525172    0.008097   -0.164385
     95          1           0        2.133467   -1.405297   -0.079034
     96          1           0        0.093536   -2.609185   -0.485614
 ---------------------------------------------------------------------

 SCF Done:  E(RB3LYP) =  -1557.58784386     A.U. after   16 cycles

 Excitation energies and oscillator strengths:

 Excited State   1:      Singlet-A      2.0636 eV  600.82 nm  f=2.9120  <S**2>=0.000
     147 ->149         0.12104
     148 ->149         0.69929
     148 <-149        -0.10786
 This state for optimization and/or second-order correction.
 Total Energy, E(TD-HF/TD-DFT) =  -1557.51200890
 Copying the excited state density for this state as the 1-particle RhoCI density.

 The electronic state is 1-A.
 Alpha  occ. eigenvalues --  -10.21603 -10.21041 -10.20588 -10.20297 -10.20190
 Alpha  occ. eigenvalues --  -10.20071 -10.19791 -10.19774 -10.19704 -10.19599
 Alpha  occ. eigenvalues --  -10.19573 -10.19458 -10.19386 -10.19241 -10.19229
 Alpha  occ. eigenvalues --  -10.19222 -10.19210 -10.19126 -10.19089 -10.19007
 Alpha  occ. eigenvalues --  -10.19004 -10.18928 -10.18900 -10.18871 -10.18812
 Alpha  occ. eigenvalues --  -10.18785 -10.18773 -10.18455 -10.18450 -10.18365
 Alpha  occ. eigenvalues --  -10.18128 -10.18059 -10.17858 -10.17691 -10.17366
 Alpha  occ. eigenvalues --  -10.16987 -10.16874 -10.16790 -10.16568 -10.15395
 Alpha  occ. eigenvalues --   -0.86051  -0.83930  -0.83710  -0.83135  -0.82008
 Alpha  occ. eigenvalues --   -0.81124  -0.79489  -0.79080  -0.78715  -0.78103
 Alpha  occ. eigenvalues --   -0.76605  -0.75156  -0.74196  -0.73244  -0.72211
 Alpha  occ. eigenvalues --   -0.69832  -0.68978  -0.68609  -0.68490  -0.67718
 Alpha  occ. eigenvalues --   -0.67281  -0.67013  -0.66559  -0.65941  -0.65704
 Alpha  occ. eigenvalues --   -0.63293  -0.61595  -0.60608  -0.58293  -0.56599
 Alpha  occ. eigenvalues --   -0.56275  -0.55126  -0.54510  -0.53074  -0.52974
 Alpha  occ. eigenvalues --   -0.52438  -0.51851  -0.50745  -0.50107  -0.49741
 Alpha  occ. eigenvalues --   -0.48425  -0.48179  -0.47161  -0.46545  -0.46232
 Alpha  occ. eigenvalues --   -0.46033  -0.45127  -0.44816  -0.44511  -0.44262
 Alpha  occ. eigenvalues --   -0.43925  -0.43499  -0.43073  -0.42573  -0.42567
 Alpha  occ. eigenvalues --   -0.42071  -0.41912  -0.41621  -0.41158  -0.41027
 Alpha  occ. eigenvalues --   -0.40930  -0.40597  -0.40181  -0.40146  -0.39695
 Alpha  occ. eigenvalues --   -0.39489  -0.39191  -0.38858  -0.38157  -0.38059
 Alpha  occ. eigenvalues --   -0.37767  -0.37303  -0.37120  -0.36923  -0.36674
 Alpha  occ. eigenvalues --   -0.36351  -0.35991  -0.35989  -0.35446  -0.35144
 Alpha  occ. eigenvalues --   -0.34984  -0.34778  -0.34512  -0.34311  -0.34061
 Alpha  occ. eigenvalues --   -0.33697  -0.33349  -0.33260  -0.33145  -0.32634
 Alpha  occ. eigenvalues --   -0.31740  -0.31539  -0.31451  -0.31130  -0.30866
 Alpha  occ. eigenvalues --   -0.30313  -0.29850  -0.29738  -0.29182  -0.28527
 Alpha  occ. eigenvalues --   -0.28057  -0.27351  -0.26088  -0.24263  -0.22330
 Alpha  occ. eigenvalues --   -0.21119  -0.18587  -0.16343
 Alpha virt. eigenvalues --   -0.08697  -0.05451  -0.01988  -0.00017   0.02198
 Alpha virt. eigenvalues --    0.03660   0.05871   0.06231   0.06704   0.07063
 Alpha virt. eigenvalues --    0.07359   0.07587   0.07749   0.08441   0.08728

 Mulliken charges:
               1
     1  C    0.040583
     2  C    0.005615
     3  C   -0.185689
     4  C   -0.171390
     5  C   -0.167215
     6  C   -0.183576
     7  C    0.047031
     8  C    0.054964
     9  C   -0.214794
    10  C   -0.211740
    11  C    0.059213
    12  C    0.082286
    13  C   -0.298478
    14  C   -0.285826
    15  C   -0.302266
    16  C   -0.305874
    17  C   -0.119375
    18  C   -0.143545
    19  C   -0.340126
    20  C   -0.349256
    21  C   -0.089037
    22  C   -0.089003
    23  C    0.092927
    24  C    0.077682
    25  C   -0.376993
    26  C   -0.361163
    27  C   -0.111557
    28  C   -0.134336
    29  C   -0.090424
    30  C   -0.069798
    31  C   -0.095729
    32  C   -0.110035
    33  C    0.085309
    34  C    0.161406
    35  C   -0.370818
    36  C   -0.378899
    37  C   -0.087279
    38  C   -0.132488
    39  C   -0.085615
    40  C   -0.109929
    41  H    0.089928
    42  H    0.073829
    43  H    0.090323
    44  H    0.093293
    45  H    0.106855
    46  H    0.108557
    47  H    0.069220
    48  H    0.067811
    49  H    0.070174
    50  H    0.103702
    51  H    0.106444
    52  H    0.079635
    53  H    0.086638
    54  H    0.068910
    55  H    0.100114
    56  H    0.118230
    57  H    0.063929
    58  H    0.096704
    59  H    0.114478
    60  H    0.092903
    61  H    0.095291
    62  H    0.116782
    63  H    0.081369
    64  H    0.104704
    65  H    0.078366
    66  H    0.073759
    67  H    0.120879
    68  H    0.105545
    69  H    0.077157
    70  H    0.089609
    71  H    0.119337
    72  H    0.104098
    73  H    0.080391
    74  H    0.079683
    75  H    0.137328
    76  H    0.114480
    77  H    0.118812
    78  H    0.114064
    79  H    0.143829
    80  H    0.104994
    81  H    0.076771
    82  H    0.085575
    83  H    0.079380
    84  H    0.070912
    85  H    0.062491
    86  H    0.065474
    87  H    0.108328
    88  H    0.089952
    89  H    0.116277
    90  H    0.092810
    91  H    0.119712
    92  H    0.110474
    93  H    0.087238
    94  H    0.072467
    95  H    0.085081
    96  H    0.080143
 Sum of Mulliken charges =  -0.00000

 Dipole moment (field-independent basis, Debye):
    X=              1.5089    Y=              0.2509    Z=              0.6845  Tot=              1.6758
 Quadrupole moment (field-independent basis, Debye-Ang):
   XX=           -218.4099   YY=           -234.3899   ZZ=           -255.8067
   XY=             -0.3697   XZ=              2.0267   YZ=              4.2903

 Normal termination of Gaussian 16 at Sun Jul 28 11:01:03 2019.
