 Gaussian 16, Revision A.03,
 Gaussian 16:  ES64L-G16RevA.03 25-Dec-2016

 ---------------------------------
 # td=(NStates=1) B3LYP/6-31G(d,p)
 ---------------------------------

 --
 TD
 --
 Symbolic Z-matrix:
 Charge =  0 Multiplicity = 1

                         Standard orientation:
 ---------------------------------------------------------------------
 Center     Atomic      Atomic             Coordinates (Angstroms)
 Number     Number       Type             X           Y           Z
 ---------------------------------------------------------------------
      1          6           0      -12.240646   -0.689453   -0.614321
      2          6           0       12.039163   -0.108501    0.970450
      3          6           0      -13.533316    0.047029   -0.450183
      4          6           0       12.946598   -1.303079    1.467048
      5          6           0      -13.338301    1.511246   -0.202470
      6          6           0       13.286067   -2.249614    0.253109
      7          6           0      -11.058286   -0.023681    0.237873
      8          6           0       10.986445   -0.531325   -0.065990
      9          6           0      -12.480737    2.021419    0.923212
     10          6           0       12.081458   -2.711207   -0.443902
     11          6           0      -11.161572    1.028314    1.043043
     12          6           0       10.892907   -1.720266   -0.639473
     13          6           0      -11.720641   -0.480277   -1.980590
     14          6           0      -12.467829   -2.197529   -0.297992
     15          6           0       12.947555    1.082973    0.386619
     16          6           0       11.362760    0.422394    2.235487
     17          6           0       -9.851071   -0.971015    0.366030
     18          6           0        9.888005    0.505527   -0.164296
     19          6           0      -10.229391    1.679981    2.039653
     20          6           0       10.052977   -2.156820   -1.625821
     21          6           0       -8.578613   -0.518203    0.192443
     22          6           0        8.581620    0.310060   -0.328196
     23          6           0       -7.391177   -1.210280    0.317735
     24          6           0        7.519822    1.306519   -0.399628
     25          6           0       -7.444115   -2.828324    0.584010
     26          6           0        7.982001    2.716895   -0.634665
     27          6           0       -6.119851   -0.632385    0.116055
     28          6           0        6.285286    0.971201   -0.311773
     29          6           0       -4.774916   -1.165189    0.281543
     30          6           0        5.072019    1.844958   -0.461706
     31          6           0       -3.596233   -0.473826   -0.039363
     32          6           0        3.841251    1.267383   -0.410377
     33          6           0       -2.280167   -1.039033    0.048110
     34          6           0        2.536739    2.089667   -0.534580
     35          6           0       -2.215105   -2.560883    0.357534
     36          6           0        2.815483    3.509982   -0.785661
     37          6           0       -1.207620   -0.304135   -0.153411
     38          6           0        1.444211    1.292931   -0.430932
     39          6           0       -1.097698    1.037272   -0.277585
     40          6           0        0.097088    1.849118   -0.572046
     41          1           0      -13.869397   -0.382794    0.470443
     42          1           0      -14.114044   -0.373427   -1.167879
     43          1           0       12.292311   -2.052645    2.020797
     44          1           0       13.742715   -0.876137    2.020997
     45          1           0      -14.273767    2.118433   -0.149866
     46          1           0      -12.944161    1.918385   -1.040691
     47          1           0       13.871317   -3.077270    0.568575
     48          1           0       13.816539   -1.774486   -0.516449
     49          1           0      -13.014413    1.788395    1.881000
     50          1           0      -12.112052    2.981796    0.800951
     51          1           0       11.630487   -3.690977    0.096232
     52          1           0       12.350780   -3.000707   -1.387504
     53          1           0      -11.569391    0.609904   -2.319613
     54          1           0      -12.406137   -0.942346   -2.921927
     55          1           0      -10.534776   -0.729999   -2.192092
     56          1           0      -12.660238   -2.340502    0.821916
     57          1           0      -11.745060   -2.933869   -0.736952
     58          1           0      -13.339793   -2.464874   -0.686420
     59          1           0       13.741343    0.696521   -0.463845
     60          1           0       13.442881    1.635016    1.328887
     61          1           0       12.268044    1.856710   -0.017957
     62          1           0       10.741022   -0.349385    2.766283
     63          1           0       10.996360    1.504492    1.886396
     64          1           0       12.051555    0.534346    2.728039
     65          1           0      -10.187237   -1.885812    0.657335
     66          1           0       10.182100    1.590671   -0.157682
     67          1           0       -9.502758    1.131217    2.232859
     68          1           0      -10.817564    1.848209    3.096113
     69          1           0       -9.892409    2.767654    1.420850
     70          1           0        9.186553   -1.515142   -2.142604
     71          1           0        9.344583   -3.011423   -1.267859
     72          1           0       10.676061   -2.624590   -2.489837
     73          1           0       -8.259869    0.492646   -0.053973
     74          1           0        8.301857   -0.787723   -0.381851
     75          1           0       -8.146176   -2.906907    1.443870
     76          1           0       -6.385735   -3.292843    0.695641
     77          1           0       -7.876915   -3.572039   -0.268584
     78          1           0        8.797376    2.853473   -1.446607
     79          1           0        8.401012    3.168746    0.382958
     80          1           0        7.142156    3.363615   -0.943368
     81          1           0       -6.238916    0.393309   -0.075625
     82          1           0        5.844222   -0.110434   -0.546336
     83          1           0       -4.778257   -2.283947    0.549853
     84          1           0        5.160453    2.928810   -0.444636
     85          1           0       -3.602651    0.536581   -0.434993
     86          1           0        3.865253    0.139120   -0.231998
     87          1           0       -2.842773   -2.835999    1.218682
     88          1           0       -1.341882   -2.950376    0.398942
     89          1           0       -2.695986   -3.104075   -0.558187
     90          1           0        3.654938    3.523906   -1.603751
     91          1           0        3.364507    4.028851    0.019951
     92          1           0        1.770355    3.889932   -0.988864
     93          1           0       -0.387507   -0.839937   -0.191226
     94          1           0        1.583042    0.195423   -0.528275
     95          1           0       -1.888977    1.652752   -0.404684
     96          1           0       -0.023992    2.842687   -0.715407
 ---------------------------------------------------------------------

 SCF Done:  E(RB3LYP) =  -1557.46383419     A.U. after   16 cycles

 Excitation energies and oscillator strengths:

 Excited State   1:      Singlet-A      2.2846 eV  542.69 nm  f=2.8694  <S**2>=0.000
     147 ->149        -0.10348
     148 ->149         0.69962
     148 <-149        -0.10847
 This state for optimization and/or second-order correction.
 Total Energy, E(TD-HF/TD-DFT) =  -1557.37987571
 Copying the excited state density for this state as the 1-particle RhoCI density.

 The electronic state is 1-A.
 Alpha  occ. eigenvalues --  -10.20363 -10.20258 -10.20218 -10.20080 -10.20032
 Alpha  occ. eigenvalues --  -10.20003 -10.19987 -10.19725 -10.19499 -10.19404
 Alpha  occ. eigenvalues --  -10.19306 -10.19288 -10.19284 -10.19247 -10.19071
 Alpha  occ. eigenvalues --  -10.19001 -10.18976 -10.18828 -10.18816 -10.18729
 Alpha  occ. eigenvalues --  -10.18646 -10.18559 -10.18493 -10.18473 -10.18387
 Alpha  occ. eigenvalues --  -10.18270 -10.18053 -10.18033 -10.18006 -10.17901
 Alpha  occ. eigenvalues --  -10.17806 -10.17784 -10.17732 -10.17679 -10.17669
 Alpha  occ. eigenvalues --  -10.16646 -10.16632 -10.16525 -10.16486 -10.15426
 Alpha  occ. eigenvalues --   -0.85159  -0.85017  -0.84113  -0.83054  -0.82000
 Alpha  occ. eigenvalues --   -0.81712  -0.79600  -0.78626  -0.78113  -0.77524
 Alpha  occ. eigenvalues --   -0.76754  -0.75332  -0.74209  -0.72502  -0.71418
 Alpha  occ. eigenvalues --   -0.70953  -0.68864  -0.68554  -0.68252  -0.67871
 Alpha  occ. eigenvalues --   -0.67249  -0.66895  -0.66738  -0.66578  -0.66468
 Alpha  occ. eigenvalues --   -0.63412  -0.61282  -0.60005  -0.59399  -0.57742
 Alpha  occ. eigenvalues --   -0.57045  -0.56045  -0.55226  -0.53995  -0.52638
 Alpha  occ. eigenvalues --   -0.51884  -0.51758  -0.50763  -0.49437  -0.49036
 Alpha  occ. eigenvalues --   -0.48429  -0.48412  -0.47368  -0.46961  -0.46094
 Alpha  occ. eigenvalues --   -0.45928  -0.45400  -0.45105  -0.44928  -0.44492
 Alpha  occ. eigenvalues --   -0.43967  -0.43507  -0.43189  -0.42860  -0.42349
 Alpha  occ. eigenvalues --   -0.41399  -0.41256  -0.41032  -0.40888  -0.40666
 Alpha  occ. eigenvalues --   -0.40502  -0.40399  -0.40251  -0.39721  -0.39574
 Alpha  occ. eigenvalues --   -0.39285  -0.39062  -0.38575  -0.38458  -0.38261
 Alpha  occ. eigenvalues --   -0.37786  -0.37747  -0.37282  -0.37041  -0.36971
 Alpha  occ. eigenvalues --   -0.36472  -0.36114  -0.36004  -0.35675  -0.35377
 Alpha  occ. eigenvalues --   -0.34998  -0.34521  -0.34443  -0.34226  -0.33652
 Alpha  occ. eigenvalues --   -0.33366  -0.33153  -0.32883  -0.32323  -0.32011
 Alpha  occ. eigenvalues --   -0.31676  -0.31445  -0.30997  -0.30839  -0.30676
 Alpha  occ. eigenvalues --   -0.30652  -0.30334  -0.30081  -0.29182  -0.27998
 Alpha  occ. eigenvalues --   -0.27382  -0.26792  -0.26371  -0.24009  -0.23263
 Alpha  occ. eigenvalues --   -0.21117  -0.19256  -0.16558
 Alpha virt. eigenvalues --   -0.08128  -0.04339  -0.01762   0.01487   0.02980
 Alpha virt. eigenvalues --    0.04107   0.05601   0.06718   0.06740   0.07497
 Alpha virt. eigenvalues --    0.07612   0.07897   0.08426   0.08456   0.08603

 Mulliken charges:
               1
     1  C    0.017653
     2  C   -0.032195
     3  C   -0.154482
     4  C   -0.179992
     5  C   -0.198008
     6  C   -0.188382
     7  C    0.018216
     8  C    0.105387
     9  C   -0.205420
    10  C   -0.218301
    11  C    0.027732
    12  C    0.102929
    13  C   -0.281535
    14  C   -0.325422
    15  C   -0.304520
    16  C   -0.234744
    17  C   -0.139324
    18  C   -0.130647
    19  C   -0.293071
    20  C   -0.386655
    21  C   -0.071865
    22  C   -0.097169
    23  C    0.118890
    24  C    0.152466
    25  C   -0.359797
    26  C   -0.374412
    27  C   -0.133259
    28  C   -0.151194
    29  C   -0.089274
    30  C   -0.087636
    31  C   -0.109294
    32  C   -0.122193
    33  C    0.111083
    34  C    0.132053
    35  C   -0.356452
    36  C   -0.382602
    37  C   -0.081288
    38  C   -0.105765
    39  C   -0.080163
    40  C   -0.125831
    41  H    0.088013
    42  H    0.100419
    43  H    0.086694
    44  H    0.093797
    45  H    0.076485
    46  H    0.108743
    47  H    0.095019
    48  H    0.096826
    49  H    0.097556
    50  H    0.109533
    51  H    0.067206
    52  H    0.105888
    53  H    0.099662
    54  H    0.052200
    55  H    0.087264
    56  H    0.096316
    57  H    0.107715
    58  H    0.115232
    59  H    0.091329
    60  H    0.080691
    61  H    0.109295
    62  H    0.097063
    63  H    0.072231
    64  H    0.097700
    65  H    0.103556
    66  H    0.068177
    67  H    0.120669
    68  H    0.088091
    69  H    0.074084
    70  H    0.107169
    71  H    0.101080
    72  H    0.095120
    73  H    0.077670
    74  H    0.066893
    75  H    0.114942
    76  H    0.096198
    77  H    0.094067
    78  H    0.115454
    79  H    0.103520
    80  H    0.104903
    81  H    0.064854
    82  H    0.068767
    83  H    0.077926
    84  H    0.073662
    85  H    0.085013
    86  H    0.073525
    87  H    0.123102
    88  H    0.108625
    89  H    0.103275
    90  H    0.126529
    91  H    0.136354
    92  H    0.104390
    93  H    0.056408
    94  H    0.097085
    95  H    0.071813
    96  H    0.078686
 Sum of Mulliken charges =  -0.00000

 Dipole moment (field-independent basis, Debye):
    X=             -0.3950    Y=              0.0016    Z=             -0.1217  Tot=              0.4133
 Quadrupole moment (field-independent basis, Debye-Ang):
   XX=           -218.9371   YY=           -233.7348   ZZ=           -255.2353
   XY=              1.4358   XZ=             -4.8344   YZ=             -2.1441

 Normal termination of Gaussian 16 at Sun Jul 28 02:29:13 2019.
