 Gaussian 16, Revision A.03,
 Gaussian 16:  ES64L-G16RevA.03 25-Dec-2016

 ---------------------------------
 # td=(NStates=1) B3LYP/6-31G(d,p)
 ---------------------------------

 --
 TD
 --
 Symbolic Z-matrix:
 Charge =  0 Multiplicity = 1

                         Standard orientation:
 ---------------------------------------------------------------------
 Center     Atomic      Atomic             Coordinates (Angstroms)
 Number     Number       Type             X           Y           Z
 ---------------------------------------------------------------------
      1          6           0      -12.199327   -0.546116   -0.680614
      2          6           0       12.145856   -0.038150    0.831724
      3          6           0      -13.407448    0.248585   -0.462657
      4          6           0       12.940341   -1.175572    1.348581
      5          6           0      -13.101794    1.835344   -0.540723
      6          6           0       13.280392   -2.173659    0.271140
      7          6           0      -10.992327    0.042467    0.276370
      8          6           0       10.970222   -0.395694   -0.139622
      9          6           0      -12.264819    2.230281    0.668934
     10          6           0       12.061539   -2.636473   -0.542480
     11          6           0      -11.011148    1.254308    0.841131
     12          6           0       10.984312   -1.540370   -0.706967
     13          6           0      -11.710464   -0.566106   -2.142771
     14          6           0      -12.510510   -1.971210   -0.188187
     15          6           0       13.114223    0.982424    0.121589
     16          6           0       11.537649    0.804555    2.018787
     17          6           0       -9.886670   -0.947147    0.288571
     18          6           0        9.869970    0.537184   -0.278145
     19          6           0      -10.004950    1.790726    1.761208
     20          6           0        9.957979   -2.045449   -1.830045
     21          6           0       -8.592941   -0.522733    0.099802
     22          6           0        8.512210    0.302742   -0.236032
     23          6           0       -7.380766   -1.329039    0.276718
     24          6           0        7.493033    1.352551   -0.422266
     25          6           0       -7.582122   -2.839200    0.724770
     26          6           0        7.759212    2.782233   -0.677830
     27          6           0       -6.146893   -0.765955    0.227518
     28          6           0        6.208885    0.958761   -0.232379
     29          6           0       -4.807062   -1.481032    0.332126
     30          6           0        5.036284    1.721091   -0.335059
     31          6           0       -3.662914   -0.851649    0.272774
     32          6           0        3.777833    1.103313   -0.187785
     33          6           0       -2.291101   -1.337953    0.398025
     34          6           0        2.468948    1.792962   -0.340433
     35          6           0       -2.174440   -2.806447    0.568211
     36          6           0        2.632275    3.328898   -0.541641
     37          6           0       -1.218082   -0.520273    0.108035
     38          6           0        1.352503    1.078144   -0.280386
     39          6           0       -1.130537    0.883005   -0.170503
     40          6           0        0.025250    1.643151   -0.265046
     41          1           0      -14.032180    0.102967    0.418926
     42          1           0      -14.088311   -0.008094   -1.000665
     43          1           0       12.309051   -1.767495    2.187302
     44          1           0       13.681611   -0.688103    1.947848
     45          1           0      -14.135972    2.218196   -0.190823
     46          1           0      -12.813052    1.956634   -1.683437
     47          1           0       13.858678   -2.910855    0.639190
     48          1           0       13.869838   -1.765992   -0.535882
     49          1           0      -12.992492    2.457657    1.573493
     50          1           0      -11.900857    3.240448    0.490355
     51          1           0       11.356847   -3.434809   -0.077404
     52          1           0       12.269997   -3.088841   -1.541715
     53          1           0      -11.464669    0.549151   -2.292287
     54          1           0      -12.478379   -0.908915   -2.766694
     55          1           0      -10.719122   -1.068849   -2.530178
     56          1           0      -12.700580   -1.938488    0.898668
     57          1           0      -11.828168   -2.867577   -0.551685
     58          1           0      -13.322673   -2.472044   -0.743752
     59          1           0       13.483965    0.590597   -0.863091
     60          1           0       13.782391    1.518622    1.001087
     61          1           0       12.599142    1.725387   -0.416581
     62          1           0       10.775663    0.207022    2.395686
     63          1           0       11.073964    1.837215    1.688124
     64          1           0       12.252845    1.129650    2.717093
     65          1           0      -10.326689   -1.877339    0.785630
     66          1           0       10.044524    1.642055   -0.758921
     67          1           0       -9.324347    0.953358    2.041869
     68          1           0      -10.365354    2.416260    2.639708
     69          1           0       -9.290821    2.430141    1.272448
     70          1           0        9.120855   -1.253375   -1.952003
     71          1           0        9.384238   -3.067245   -1.360034
     72          1           0       10.601846   -2.194617   -2.561385
     73          1           0       -8.349764    0.555588   -0.313167
     74          1           0        8.308266   -0.730697   -0.141412
     75          1           0       -8.346355   -2.714176    1.494371
     76          1           0       -6.626859   -3.395415    0.897153
     77          1           0       -8.206406   -3.325570   -0.087223
     78          1           0        8.311064    3.012903   -1.633535
     79          1           0        8.276300    3.245730   -0.061677
     80          1           0        6.838470    3.362510   -0.784771
     81          1           0       -6.277944    0.162439   -0.081471
     82          1           0        5.989093   -0.167361   -0.362136
     83          1           0       -4.900253   -2.571315    0.690425
     84          1           0        5.059556    2.863427   -0.670814
     85          1           0       -3.734533    0.146542   -0.120096
     86          1           0        3.761400   -0.008501   -0.205767
     87          1           0       -2.504282   -3.199130    1.440469
     88          1           0       -1.018199   -2.969299    0.612511
     89          1           0       -2.646530   -3.234087   -0.313450
     90          1           0        3.158487    3.344480   -1.480755
     91          1           0        2.992385    4.035531    0.320001
     92          1           0        1.683530    3.674407   -0.756646
     93          1           0       -0.154372   -0.972320    0.212148
     94          1           0        1.479683    0.043329   -0.267273
     95          1           0       -2.128585    1.432525   -0.272782
     96          1           0        0.038447    2.650755   -0.391650
 ---------------------------------------------------------------------

 SCF Done:  E(RB3LYP) =  -1557.53980568     A.U. after   14 cycles

 Excitation energies and oscillator strengths:

 Excited State   1:      Singlet-A      2.4146 eV  513.47 nm  f=2.8878  <S**2>=0.000
     148 ->149         0.70300
 This state for optimization and/or second-order correction.
 Total Energy, E(TD-HF/TD-DFT) =  -1557.45106925
 Copying the excited state density for this state as the 1-particle RhoCI density.

 The electronic state is 1-A.
 Alpha  occ. eigenvalues --  -10.20135 -10.20008 -10.19988 -10.19925 -10.19894
 Alpha  occ. eigenvalues --  -10.19769 -10.19668 -10.19665 -10.19655 -10.19556
 Alpha  occ. eigenvalues --  -10.19515 -10.19425 -10.19332 -10.19320 -10.19300
 Alpha  occ. eigenvalues --  -10.19259 -10.19139 -10.18959 -10.18823 -10.18707
 Alpha  occ. eigenvalues --  -10.18609 -10.18554 -10.18480 -10.18442 -10.18382
 Alpha  occ. eigenvalues --  -10.18271 -10.18186 -10.17988 -10.17965 -10.17879
 Alpha  occ. eigenvalues --  -10.17846 -10.17824 -10.17754 -10.17752 -10.17474
 Alpha  occ. eigenvalues --  -10.17308 -10.17216 -10.16780 -10.16352 -10.15133
 Alpha  occ. eigenvalues --   -0.85239  -0.84310  -0.83554  -0.83003  -0.82193
 Alpha  occ. eigenvalues --   -0.81144  -0.78838  -0.78588  -0.77955  -0.77305
 Alpha  occ. eigenvalues --   -0.76467  -0.75069  -0.74158  -0.72508  -0.71613
 Alpha  occ. eigenvalues --   -0.70638  -0.69245  -0.68348  -0.68296  -0.68181
 Alpha  occ. eigenvalues --   -0.67717  -0.67362  -0.66833  -0.66806  -0.66496
 Alpha  occ. eigenvalues --   -0.62661  -0.61495  -0.60215  -0.58663  -0.57144
 Alpha  occ. eigenvalues --   -0.56570  -0.55894  -0.55210  -0.53997  -0.52741
 Alpha  occ. eigenvalues --   -0.52440  -0.51851  -0.50104  -0.49840  -0.48658
 Alpha  occ. eigenvalues --   -0.48102  -0.47609  -0.47188  -0.46466  -0.46227
 Alpha  occ. eigenvalues --   -0.45524  -0.44894  -0.44830  -0.44058  -0.43814
 Alpha  occ. eigenvalues --   -0.43603  -0.43548  -0.43198  -0.42817  -0.42436
 Alpha  occ. eigenvalues --   -0.42348  -0.42099  -0.41917  -0.41583  -0.41096
 Alpha  occ. eigenvalues --   -0.40759  -0.40181  -0.39954  -0.39669  -0.39506
 Alpha  occ. eigenvalues --   -0.39124  -0.38853  -0.38392  -0.38053  -0.37973
 Alpha  occ. eigenvalues --   -0.37892  -0.37571  -0.36953  -0.36788  -0.36612
 Alpha  occ. eigenvalues --   -0.36332  -0.35962  -0.35881  -0.35591  -0.35400
 Alpha  occ. eigenvalues --   -0.35111  -0.34490  -0.34394  -0.33868  -0.33633
 Alpha  occ. eigenvalues --   -0.33545  -0.33494  -0.32932  -0.32872  -0.32323
 Alpha  occ. eigenvalues --   -0.31792  -0.31459  -0.31088  -0.30905  -0.30755
 Alpha  occ. eigenvalues --   -0.30498  -0.29731  -0.29669  -0.28645  -0.28036
 Alpha  occ. eigenvalues --   -0.27456  -0.26415  -0.25868  -0.24147  -0.23444
 Alpha  occ. eigenvalues --   -0.21643  -0.19374  -0.16841
 Alpha virt. eigenvalues --   -0.07604  -0.04571  -0.01684   0.01449   0.03260
 Alpha virt. eigenvalues --    0.04391   0.05659   0.06104   0.07298   0.07554
 Alpha virt. eigenvalues --    0.07825   0.08107   0.08583   0.08818   0.09007

 Mulliken charges:
               1
     1  C    0.033125
     2  C   -0.004822
     3  C   -0.137779
     4  C   -0.146287
     5  C   -0.204432
     6  C   -0.181323
     7  C    0.009925
     8  C    0.091257
     9  C   -0.209873
    10  C   -0.218376
    11  C    0.080853
    12  C    0.011726
    13  C   -0.301799
    14  C   -0.326613
    15  C   -0.291408
    16  C   -0.304623
    17  C   -0.117570
    18  C   -0.142748
    19  C   -0.380612
    20  C   -0.329345
    21  C   -0.120904
    22  C   -0.091663
    23  C    0.108493
    24  C    0.112372
    25  C   -0.367087
    26  C   -0.371320
    27  C   -0.110167
    28  C   -0.122531
    29  C   -0.099085
    30  C   -0.081799
    31  C   -0.076006
    32  C   -0.125807
    33  C    0.093325
    34  C    0.091862
    35  C   -0.365500
    36  C   -0.368364
    37  C   -0.117583
    38  C   -0.092075
    39  C   -0.086498
    40  C   -0.090876
    41  H    0.080837
    42  H    0.080124
    43  H    0.063508
    44  H    0.095176
    45  H    0.074847
    46  H    0.096797
    47  H    0.100157
    48  H    0.105913
    49  H    0.089658
    50  H    0.105580
    51  H    0.094331
    52  H    0.097456
    53  H    0.091454
    54  H    0.105785
    55  H    0.102352
    56  H    0.109019
    57  H    0.081062
    58  H    0.091665
    59  H    0.087769
    60  H    0.078457
    61  H    0.106815
    62  H    0.112670
    63  H    0.085058
    64  H    0.093897
    65  H    0.112044
    66  H    0.061307
    67  H    0.115804
    68  H    0.100800
    69  H    0.116300
    70  H    0.109016
    71  H    0.073841
    72  H    0.126576
    73  H    0.086775
    74  H    0.084699
    75  H    0.124874
    76  H    0.106162
    77  H    0.112248
    78  H    0.106289
    79  H    0.137967
    80  H    0.104187
    81  H    0.056748
    82  H    0.074369
    83  H    0.070766
    84  H    0.084382
    85  H    0.074162
    86  H    0.073683
    87  H    0.131548
    88  H    0.088241
    89  H    0.131035
    90  H    0.132927
    91  H    0.117192
    92  H    0.108414
    93  H    0.067471
    94  H    0.076222
    95  H    0.076754
    96  H    0.078746
 Sum of Mulliken charges =  -0.00000

 Dipole moment (field-independent basis, Debye):
    X=              0.1569    Y=              0.1823    Z=             -0.8320  Tot=              0.8660
 Quadrupole moment (field-independent basis, Debye-Ang):
   XX=           -216.1586   YY=           -234.0015   ZZ=           -253.9205
   XY=              1.7091   XZ=             -5.0913   YZ=             -1.3804

 Normal termination of Gaussian 16 at Wed Jul 31 23:31:15 2019.
