 Gaussian 16, Revision A.03,
 Gaussian 16:  ES64L-G16RevA.03 25-Dec-2016

 ---------------------------------
 # td=(NStates=1) B3LYP/6-31G(d,p)
 ---------------------------------

 --
 TD
 --
 Symbolic Z-matrix:
 Charge =  0 Multiplicity = 1

                         Standard orientation:
 ---------------------------------------------------------------------
 Center     Atomic      Atomic             Coordinates (Angstroms)
 Number     Number       Type             X           Y           Z
 ---------------------------------------------------------------------
      1          6           0       12.240357    0.536875   -0.617348
      2          6           0      -12.195120   -0.187825    0.900450
      3          6           0       13.449317   -0.450537   -0.364192
      4          6           0      -13.157307    0.947958    1.378989
      5          6           0       13.161251   -1.883554   -0.346417
      6          6           0      -13.597046    1.842269    0.241992
      7          6           0       11.185215    0.052781    0.295493
      8          6           0      -11.011961    0.381307   -0.057329
      9          6           0       12.240339   -2.241527    0.806037
     10          6           0      -12.366407    2.549974   -0.347932
     11          6           0       11.090072   -1.183515    0.907166
     12          6           0      -11.170668    1.624221   -0.616698
     13          6           0       11.875979    0.566793   -2.030013
     14          6           0       12.634490    1.902136   -0.134941
     15          6           0      -13.024138   -1.222068    0.175537
     16          6           0      -11.477917   -0.731011    2.173844
     17          6           0        9.877152    0.818786    0.314133
     18          6           0       -9.972487   -0.566638   -0.382037
     19          6           0       10.056476   -1.679674    1.914838
     20          6           0      -10.150327    2.152308   -1.636877
     21          6           0        8.614813    0.480796    0.060381
     22          6           0       -8.583265   -0.286857   -0.419866
     23          6           0        7.499983    1.290120    0.102527
     24          6           0       -7.484872   -1.209091   -0.518614
     25          6           0        7.631150    2.759648    0.328330
     26          6           0       -7.807246   -2.708014   -0.866789
     27          6           0        6.242517    0.691103    0.023414
     28          6           0       -6.245282   -0.789906   -0.356630
     29          6           0        4.976400    1.327376    0.209429
     30          6           0       -5.024835   -1.530675   -0.413652
     31          6           0        3.798917    0.785504    0.018072
     32          6           0       -3.819834   -1.010708   -0.262041
     33          6           0        2.446327    1.366480    0.236440
     34          6           0       -2.507952   -1.666733   -0.392384
     35          6           0        2.284791    2.809721    0.626596
     36          6           0       -2.560608   -3.119271   -0.854095
     37          6           0        1.376074    0.572535    0.241693
     38          6           0       -1.373702   -0.972573   -0.170409
     39          6           0        1.224813   -0.770553   -0.156814
     40          6           0       -0.022323   -1.410634   -0.250078
     41          1           0       13.978776   -0.329678    0.649589
     42          1           0       14.188020   -0.132436   -1.080421
     43          1           0      -12.465814    1.376814    2.109653
     44          1           0      -14.007617    0.431974    1.996814
     45          1           0       14.128281   -2.376310   -0.361783
     46          1           0       12.727722   -2.161797   -1.308230
     47          1           0      -14.350889    2.673673    0.533988
     48          1           0      -14.125226    1.307892   -0.647466
     49          1           0       12.579555   -2.309015    1.833105
     50          1           0       11.746520   -3.268140    0.648431
     51          1           0      -12.065054    3.483183    0.450560
     52          1           0      -12.652918    3.063790   -1.278758
     53          1           0       11.655636   -0.372977   -2.410875
     54          1           0       12.753618    0.806646   -2.683881
     55          1           0       11.115002    1.116397   -2.329119
     56          1           0       12.835411    1.992403    0.861881
     57          1           0       11.908930    2.710607   -0.237158
     58          1           0       13.677988    2.178015   -0.433450
     59          1           0      -13.528198   -0.703118   -0.560236
     60          1           0      -13.658086   -1.740192    0.790485
     61          1           0      -12.514841   -2.006576   -0.499256
     62          1           0      -10.963844    0.003160    2.529424
     63          1           0      -11.103881   -1.874107    2.151487
     64          1           0      -12.206702   -1.025689    2.976257
     65          1           0       10.292374    1.977736    0.586997
     66          1           0      -10.131959   -1.564506   -0.555939
     67          1           0        9.424642   -0.890345    2.454384
     68          1           0       10.498054   -2.242938    2.558560
     69          1           0        9.331374   -2.376537    1.587390
     70          1           0       -9.516215    1.479916   -2.011905
     71          1           0       -9.662738    2.943572   -0.956157
     72          1           0      -10.876777    2.548185   -2.308568
     73          1           0        8.513688   -0.583445   -0.150572
     74          1           0       -8.541569    0.750129   -0.043660
     75          1           0        8.078186    2.972425    1.354913
     76          1           0        6.667528    3.395353    0.279670
     77          1           0        8.360576    3.035728   -0.329335
     78          1           0       -8.649542   -2.718029   -1.584470
     79          1           0       -8.396324   -3.155784   -0.042469
     80          1           0       -6.918632   -3.340474   -1.300845
     81          1           0        6.180791   -0.438301   -0.258418
     82          1           0       -6.151111    0.177293   -0.220409
     83          1           0        5.015340    2.507845    0.364174
     84          1           0       -5.311019   -2.563729   -0.520597
     85          1           0        4.026266   -0.246805   -0.274758
     86          1           0       -3.682252    0.171684   -0.096893
     87          1           0        2.678390    2.982044    1.662232
     88          1           0        0.940044    3.073810    0.788867
     89          1           0        2.684624    3.594531   -0.070948
     90          1           0       -3.216826   -3.372363   -1.784270
     91          1           0       -2.947367   -3.700228    0.088130
     92          1           0       -1.644264   -3.602133   -1.130686
     93          1           0        0.480087    1.037718    0.549033
     94          1           0       -1.436870    0.172936    0.239214
     95          1           0        2.042782   -1.509023   -0.470394
     96          1           0        0.097519   -2.384766   -0.664541
 ---------------------------------------------------------------------

 SCF Done:  E(RB3LYP) =  -1557.59672244     A.U. after   15 cycles

 Excitation energies and oscillator strengths:

 Excited State   1:      Singlet-A      2.3390 eV  530.07 nm  f=3.0306  <S**2>=0.000
     148 ->149         0.70615
 This state for optimization and/or second-order correction.
 Total Energy, E(TD-HF/TD-DFT) =  -1557.51076523
 Copying the excited state density for this state as the 1-particle RhoCI density.

 The electronic state is 1-A.
 Alpha  occ. eigenvalues --  -10.21213 -10.20506 -10.20501 -10.20118 -10.19987
 Alpha  occ. eigenvalues --  -10.19846 -10.19764 -10.19702 -10.19593 -10.19580
 Alpha  occ. eigenvalues --  -10.19567 -10.19560 -10.19538 -10.19477 -10.19349
 Alpha  occ. eigenvalues --  -10.19336 -10.19293 -10.19277 -10.18763 -10.18701
 Alpha  occ. eigenvalues --  -10.18692 -10.18663 -10.18600 -10.18576 -10.18311
 Alpha  occ. eigenvalues --  -10.18255 -10.18237 -10.18103 -10.17975 -10.17817
 Alpha  occ. eigenvalues --  -10.17701 -10.17509 -10.17473 -10.16891 -10.16870
 Alpha  occ. eigenvalues --  -10.16435 -10.16393 -10.16177 -10.15779 -10.15302
 Alpha  occ. eigenvalues --   -0.85695  -0.84438  -0.83673  -0.83358  -0.82553
 Alpha  occ. eigenvalues --   -0.81516  -0.79141  -0.78934  -0.78460  -0.77663
 Alpha  occ. eigenvalues --   -0.76844  -0.75866  -0.74356  -0.72604  -0.71992
 Alpha  occ. eigenvalues --   -0.70321  -0.69530  -0.69349  -0.68939  -0.68471
 Alpha  occ. eigenvalues --   -0.67833  -0.67540  -0.67187  -0.66550  -0.66109
 Alpha  occ. eigenvalues --   -0.62559  -0.61857  -0.59693  -0.58873  -0.57765
 Alpha  occ. eigenvalues --   -0.57220  -0.55757  -0.54950  -0.53920  -0.52970
 Alpha  occ. eigenvalues --   -0.52268  -0.51860  -0.50691  -0.49903  -0.49040
 Alpha  occ. eigenvalues --   -0.48177  -0.47784  -0.47184  -0.46833  -0.46095
 Alpha  occ. eigenvalues --   -0.45565  -0.45336  -0.44897  -0.44583  -0.44326
 Alpha  occ. eigenvalues --   -0.44127  -0.43743  -0.42678  -0.42431  -0.42313
 Alpha  occ. eigenvalues --   -0.42130  -0.41844  -0.41672  -0.41552  -0.41125
 Alpha  occ. eigenvalues --   -0.40771  -0.40551  -0.40179  -0.39944  -0.39424
 Alpha  occ. eigenvalues --   -0.39305  -0.38984  -0.38887  -0.38533  -0.38172
 Alpha  occ. eigenvalues --   -0.37926  -0.37663  -0.37166  -0.37023  -0.36566
 Alpha  occ. eigenvalues --   -0.36291  -0.35781  -0.35596  -0.35490  -0.34753
 Alpha  occ. eigenvalues --   -0.34653  -0.34192  -0.33832  -0.33761  -0.33653
 Alpha  occ. eigenvalues --   -0.33498  -0.33309  -0.32872  -0.32860  -0.32632
 Alpha  occ. eigenvalues --   -0.32284  -0.32129  -0.32017  -0.31553  -0.31356
 Alpha  occ. eigenvalues --   -0.31134  -0.30997  -0.29736  -0.29424  -0.28592
 Alpha  occ. eigenvalues --   -0.27972  -0.27226  -0.26725  -0.24155  -0.22599
 Alpha  occ. eigenvalues --   -0.20958  -0.18802  -0.16706
 Alpha virt. eigenvalues --   -0.07646  -0.04710  -0.02055   0.01560   0.02826
 Alpha virt. eigenvalues --    0.04504   0.05201   0.06677   0.07605   0.07794
 Alpha virt. eigenvalues --    0.07936   0.08335   0.08541   0.08953   0.09351

 Mulliken charges:
               1
     1  C    0.018961
     2  C   -0.006798
     3  C   -0.181637
     4  C   -0.161377
     5  C   -0.184698
     6  C   -0.176599
     7  C    0.058253
     8  C    0.050326
     9  C   -0.226884
    10  C   -0.204007
    11  C    0.042578
    12  C    0.020952
    13  C   -0.289701
    14  C   -0.316847
    15  C   -0.296109
    16  C   -0.296589
    17  C   -0.142560
    18  C   -0.111781
    19  C   -0.356350
    20  C   -0.324688
    21  C   -0.083771
    22  C   -0.126986
    23  C    0.136612
    24  C    0.121184
    25  C   -0.363666
    26  C   -0.394926
    27  C   -0.146927
    28  C   -0.088695
    29  C   -0.056134
    30  C   -0.057526
    31  C   -0.104929
    32  C   -0.120506
    33  C    0.121263
    34  C    0.136289
    35  C   -0.358204
    36  C   -0.369519
    37  C   -0.107286
    38  C   -0.114160
    39  C   -0.077764
    40  C   -0.104934
    41  H    0.080089
    42  H    0.082608
    43  H    0.095735
    44  H    0.079957
    45  H    0.092352
    46  H    0.098455
    47  H    0.084793
    48  H    0.095353
    49  H    0.112081
    50  H    0.089819
    51  H    0.070118
    52  H    0.099655
    53  H    0.104202
    54  H    0.087906
    55  H    0.116450
    56  H    0.114196
    57  H    0.102353
    58  H    0.085070
    59  H    0.106614
    60  H    0.104176
    61  H    0.078662
    62  H    0.115331
    63  H    0.083503
    64  H    0.081534
    65  H    0.040527
    66  H    0.070541
    67  H    0.110668
    68  H    0.110164
    69  H    0.113699
    70  H    0.128758
    71  H    0.108349
    72  H    0.105153
    73  H    0.085247
    74  H    0.083362
    75  H    0.113301
    76  H    0.101080
    77  H    0.130342
    78  H    0.119887
    79  H    0.126042
    80  H    0.108871
    81  H    0.066863
    82  H    0.055547
    83  H    0.053600
    84  H    0.073330
    85  H    0.073616
    86  H    0.070884
    87  H    0.130002
    88  H    0.048493
    89  H    0.124246
    90  H    0.109194
    91  H    0.113766
    92  H    0.116810
    93  H    0.075463
    94  H    0.062838
    95  H    0.086070
    96  H    0.068411
 Sum of Mulliken charges =  -0.00000

 Dipole moment (field-independent basis, Debye):
    X=             -0.1983    Y=             -0.6332    Z=             -0.1581  Tot=              0.6821
 Quadrupole moment (field-independent basis, Debye-Ang):
   XX=           -206.6648   YY=           -234.8592   ZZ=           -252.7990
   XY=             -4.6993   XZ=              1.1322   YZ=              3.3210

 Normal termination of Gaussian 16 at Fri Aug  2 01:12:08 2019.
