 Gaussian 16, Revision A.03,
 Gaussian 16:  ES64L-G16RevA.03 25-Dec-2016

 ---------------------------------
 # td=(NStates=1) B3LYP/6-31G(d,p)
 ---------------------------------

 --
 TD
 --
 Symbolic Z-matrix:
 Charge =  0 Multiplicity = 1

                         Standard orientation:
 ---------------------------------------------------------------------
 Center     Atomic      Atomic             Coordinates (Angstroms)
 Number     Number       Type             X           Y           Z
 ---------------------------------------------------------------------
      1          6           0       12.208112    0.540711   -0.663552
      2          6           0      -12.152728   -0.102231    0.811463
      3          6           0       13.398192   -0.230373   -0.579362
      4          6           0      -12.986487    1.088190    1.284408
      5          6           0       13.253923   -1.778527   -0.680623
      6          6           0      -13.431655    2.047446    0.126797
      7          6           0       11.005868   -0.030595    0.227210
      8          6           0      -11.063728    0.365420   -0.169703
      9          6           0       12.417922   -2.197471    0.572830
     10          6           0      -12.141270    2.610250   -0.528262
     11          6           0       11.238015   -1.246147    0.871480
     12          6           0      -11.101941    1.653950   -0.700718
     13          6           0       11.599626    0.423010   -2.143454
     14          6           0       12.333420    2.097429   -0.441960
     15          6           0      -13.056238   -1.050321    0.063477
     16          6           0      -11.509379   -0.824338    1.898070
     17          6           0        9.830665    0.853924    0.415955
     18          6           0       -9.925086   -0.617580   -0.363894
     19          6           0       10.276973   -1.801853    1.863592
     20          6           0       -9.938914    2.049515   -1.655559
     21          6           0        8.543318    0.435090    0.164682
     22          6           0       -8.588487   -0.301662   -0.268884
     23          6           0        7.426473    1.333110    0.362332
     24          6           0       -7.593474   -1.317410   -0.394893
     25          6           0        7.636555    2.728252    0.788833
     26          6           0       -7.936487   -2.778483   -0.492578
     27          6           0        6.161859    0.760542    0.248068
     28          6           0       -6.242998   -0.926495   -0.299193
     29          6           0        4.935279    1.413041    0.437750
     30          6           0       -5.050804   -1.640343   -0.379171
     31          6           0        3.733945    0.732411    0.406064
     32          6           0       -3.801091   -1.071628   -0.270753
     33          6           0        2.396046    1.344892    0.406397
     34          6           0       -2.475183   -1.734617   -0.404127
     35          6           0        2.270122    2.810045    0.602657
     36          6           0       -2.586370   -3.202941   -0.594143
     37          6           0        1.254810    0.622239    0.167459
     38          6           0       -1.346893   -1.017677   -0.255133
     39          6           0        1.118017   -0.829625   -0.124209
     40          6           0       -0.021921   -1.495250   -0.261120
     41          1           0       13.727920    0.073584    0.301881
     42          1           0       13.944047    0.088539   -1.455036
     43          1           0      -12.292681    1.747856    2.228943
     44          1           0      -13.905750    0.904750    1.922600
     45          1           0       14.280399   -2.155972   -0.766720
     46          1           0       12.753281   -1.985294   -1.731856
     47          1           0      -14.038098    3.051680    0.464433
     48          1           0      -13.906849    1.465092   -0.559664
     49          1           0       12.921404   -2.419876    1.581656
     50          1           0       12.096611   -3.147885    0.353602
     51          1           0      -11.810291    3.620783    0.083670
     52          1           0      -12.351020    3.161105   -1.442236
     53          1           0       11.355120   -0.616918   -2.244757
     54          1           0       12.439986    0.631008   -2.957293
     55          1           0       10.840360    1.103085   -2.368391
     56          1           0       12.695407    2.307527    0.556251
     57          1           0       11.447681    2.633976   -0.671205
     58          1           0       13.265246    2.350184   -1.009675
     59          1           0      -13.528461   -0.536372   -0.905513
     60          1           0      -13.950376   -1.488904    0.716944
     61          1           0      -12.471866   -1.866811   -0.458133
     62          1           0      -10.876194   -0.204658    2.678745
     63          1           0      -10.750040   -1.636205    1.374308
     64          1           0      -12.271086   -1.565047    2.581826
     65          1           0        9.940877    1.971564    0.257347
     66          1           0      -10.033837   -1.732723   -0.356380
     67          1           0        9.537156   -1.038097    1.930181
     68          1           0       10.848561   -2.157737    2.832902
     69          1           0        9.841700   -2.815610    1.501158
     70          1           0       -9.554104    1.234562   -2.162285
     71          1           0       -9.295917    2.709691   -1.195697
     72          1           0      -10.296277    2.705278   -2.646509
     73          1           0        8.440183   -0.575464    0.140815
     74          1           0       -8.381028    0.830913   -0.211703
     75          1           0        8.277664    2.768312    1.864920
     76          1           0        6.675034    3.273871    1.115660
     77          1           0        8.170032    3.304279    0.070324
     78          1           0       -8.512174   -3.082191   -1.323745
     79          1           0       -8.558770   -3.155102    0.309889
     80          1           0       -7.072491   -3.353285   -0.668918
     81          1           0        5.967637   -0.374750    0.020239
     82          1           0       -6.008829    0.059876   -0.159060
     83          1           0        4.866335    2.486385    0.764686
     84          1           0       -5.164895   -2.808528   -0.321519
     85          1           0        3.585574   -0.329206    0.334873
     86          1           0       -3.827914    0.025638   -0.183311
     87          1           0        3.014750    3.197170    1.459443
     88          1           0        1.253394    3.019536    0.850345
     89          1           0        2.554825    3.512081   -0.306046
     90          1           0       -3.143875   -3.668154   -1.396651
     91          1           0       -2.839667   -3.610990    0.420734
     92          1           0       -1.480401   -3.471053   -0.841881
     93          1           0        0.248365    1.220943    0.105568
     94          1           0       -1.313435    0.027346   -0.177958
     95          1           0        2.094841   -1.337761   -0.198500
     96          1           0        0.023904   -2.635441   -0.392711
 ---------------------------------------------------------------------

 SCF Done:  E(RB3LYP) =  -1557.62205432     A.U. after   15 cycles

 Excitation energies and oscillator strengths:

 Excited State   1:      Singlet-A      2.1574 eV  574.69 nm  f=2.9886  <S**2>=0.000
     148 ->149         0.70858
 This state for optimization and/or second-order correction.
 Total Energy, E(TD-HF/TD-DFT) =  -1557.54277047
 Copying the excited state density for this state as the 1-particle RhoCI density.

 The electronic state is 1-A.
 Alpha  occ. eigenvalues --  -10.20505 -10.20496 -10.20315 -10.20300 -10.20211
 Alpha  occ. eigenvalues --  -10.20120 -10.20025 -10.19965 -10.19759 -10.19715
 Alpha  occ. eigenvalues --  -10.19703 -10.19508 -10.19472 -10.19455 -10.19433
 Alpha  occ. eigenvalues --  -10.19424 -10.19394 -10.19382 -10.19373 -10.19271
 Alpha  occ. eigenvalues --  -10.19216 -10.19163 -10.19139 -10.19101 -10.18998
 Alpha  occ. eigenvalues --  -10.18959 -10.18945 -10.18933 -10.18914 -10.18890
 Alpha  occ. eigenvalues --  -10.18647 -10.18195 -10.18153 -10.17988 -10.17963
 Alpha  occ. eigenvalues --  -10.17735 -10.17586 -10.17179 -10.16425 -10.15545
 Alpha  occ. eigenvalues --   -0.85574  -0.84810  -0.83956  -0.83323  -0.82641
 Alpha  occ. eigenvalues --   -0.81771  -0.79244  -0.79212  -0.78450  -0.77502
 Alpha  occ. eigenvalues --   -0.76689  -0.75251  -0.74711  -0.72048  -0.71868
 Alpha  occ. eigenvalues --   -0.70189  -0.68950  -0.68185  -0.68090  -0.67503
 Alpha  occ. eigenvalues --   -0.67423  -0.66843  -0.66484  -0.66376  -0.65978
 Alpha  occ. eigenvalues --   -0.62905  -0.62257  -0.60142  -0.59470  -0.56931
 Alpha  occ. eigenvalues --   -0.56238  -0.54999  -0.54047  -0.53487  -0.53232
 Alpha  occ. eigenvalues --   -0.52869  -0.52725  -0.51079  -0.50627  -0.48772
 Alpha  occ. eigenvalues --   -0.48621  -0.48000  -0.47269  -0.46445  -0.46333
 Alpha  occ. eigenvalues --   -0.45617  -0.45328  -0.44938  -0.44587  -0.44257
 Alpha  occ. eigenvalues --   -0.43543  -0.43175  -0.42814  -0.42791  -0.42280
 Alpha  occ. eigenvalues --   -0.42138  -0.41831  -0.41638  -0.41453  -0.41155
 Alpha  occ. eigenvalues --   -0.40983  -0.40434  -0.40029  -0.39767  -0.39327
 Alpha  occ. eigenvalues --   -0.38966  -0.38627  -0.38558  -0.38457  -0.38092
 Alpha  occ. eigenvalues --   -0.37788  -0.37464  -0.37197  -0.36760  -0.36662
 Alpha  occ. eigenvalues --   -0.36415  -0.36308  -0.35591  -0.35460  -0.35371
 Alpha  occ. eigenvalues --   -0.35220  -0.34899  -0.34705  -0.34248  -0.34095
 Alpha  occ. eigenvalues --   -0.33907  -0.33561  -0.33110  -0.33019  -0.32562
 Alpha  occ. eigenvalues --   -0.32136  -0.31907  -0.31666  -0.31103  -0.30941
 Alpha  occ. eigenvalues --   -0.30285  -0.30066  -0.29784  -0.29093  -0.28825
 Alpha  occ. eigenvalues --   -0.28339  -0.27582  -0.26523  -0.24045  -0.22596
 Alpha  occ. eigenvalues --   -0.21137  -0.18461  -0.16643
 Alpha virt. eigenvalues --   -0.08300  -0.05918  -0.02043   0.00363   0.01927
 Alpha virt. eigenvalues --    0.03994   0.05971   0.06811   0.06924   0.07029
 Alpha virt. eigenvalues --    0.07442   0.08033   0.08302   0.08584   0.08997

 Mulliken charges:
               1
     1  C   -0.009745
     2  C    0.029178
     3  C   -0.159601
     4  C   -0.148663
     5  C   -0.199852
     6  C   -0.184724
     7  C    0.077906
     8  C    0.070960
     9  C   -0.216861
    10  C   -0.222426
    11  C    0.048431
    12  C    0.086528
    13  C   -0.293137
    14  C   -0.307743
    15  C   -0.283380
    16  C   -0.263375
    17  C   -0.159491
    18  C   -0.172916
    19  C   -0.352638
    20  C   -0.367176
    21  C   -0.076762
    22  C   -0.068650
    23  C    0.117497
    24  C    0.109421
    25  C   -0.373176
    26  C   -0.396252
    27  C   -0.111538
    28  C   -0.111370
    29  C   -0.075455
    30  C   -0.065482
    31  C   -0.099010
    32  C   -0.127520
    33  C    0.128819
    34  C    0.104802
    35  C   -0.370813
    36  C   -0.372433
    37  C   -0.142709
    38  C   -0.072278
    39  C   -0.093764
    40  C   -0.094205
    41  H    0.099214
    42  H    0.084836
    43  H    0.027351
    44  H    0.090851
    45  H    0.098225
    46  H    0.089327
    47  H    0.074383
    48  H    0.119119
    49  H    0.093706
    50  H    0.116388
    51  H    0.075913
    52  H    0.106976
    53  H    0.103934
    54  H    0.059705
    55  H    0.105438
    56  H    0.098911
    57  H    0.109649
    58  H    0.092810
    59  H    0.082668
    60  H    0.089762
    61  H    0.099183
    62  H    0.097382
    63  H    0.075212
    64  H    0.059118
    65  H    0.073391
    66  H    0.085457
    67  H    0.119754
    68  H    0.089734
    69  H    0.094586
    70  H    0.139261
    71  H    0.129731
    72  H    0.054070
    73  H    0.087551
    74  H    0.089320
    75  H    0.097973
    76  H    0.106058
    77  H    0.132304
    78  H    0.125893
    79  H    0.128269
    80  H    0.112964
    81  H    0.079034
    82  H    0.067545
    83  H    0.080054
    84  H    0.067242
    85  H    0.070674
    86  H    0.071775
    87  H    0.092024
    88  H    0.115320
    89  H    0.108334
    90  H    0.130863
    91  H    0.130003
    92  H    0.089363
    93  H    0.072199
    94  H    0.072537
    95  H    0.085343
    96  H    0.070911
 Sum of Mulliken charges =  -0.00000

 Dipole moment (field-independent basis, Debye):
    X=              0.1297    Y=             -0.2402    Z=             -0.3540  Tot=              0.4470
 Quadrupole moment (field-independent basis, Debye-Ang):
   XX=           -232.6420   YY=           -233.2278   ZZ=           -258.5822
   XY=              0.2220   XZ=              5.4045   YZ=              1.8954

 Normal termination of Gaussian 16 at Tue Jul 30 19:06:05 2019.
