 Gaussian 16, Revision A.03,
 Gaussian 16:  ES64L-G16RevA.03 25-Dec-2016

 ---------------------------------
 # td=(NStates=1) B3LYP/6-31G(d,p)
 ---------------------------------

 --
 TD
 --
 Symbolic Z-matrix:
 Charge =  0 Multiplicity = 1

                         Standard orientation:
 ---------------------------------------------------------------------
 Center     Atomic      Atomic             Coordinates (Angstroms)
 Number     Number       Type             X           Y           Z
 ---------------------------------------------------------------------
      1          6           0       12.036036    0.477345   -0.768745
      2          6           0      -12.147075    0.009694    0.886420
      3          6           0       13.389280   -0.206612   -0.656400
      4          6           0      -13.009579    1.270299    1.199626
      5          6           0       13.177962   -1.759721   -0.567448
      6          6           0      -13.328051    2.193664    0.100755
      7          6           0       11.046295   -0.010653    0.312752
      8          6           0      -11.041379    0.433389   -0.100300
      9          6           0       12.457475   -2.001902    0.752438
     10          6           0      -11.972003    2.714766   -0.426263
     11          6           0       11.201291   -1.074062    0.978645
     12          6           0      -10.892438    1.601895   -0.697160
     13          6           0       11.488037    0.391217   -2.164321
     14          6           0       12.390184    1.954622   -0.546277
     15          6           0      -13.125281   -0.980255    0.121439
     16          6           0      -11.580294   -0.687813    2.194702
     17          6           0        9.890010    0.889381    0.475359
     18          6           0       -9.925134   -0.683688   -0.291067
     19          6           0       10.235936   -1.654330    2.085398
     20          6           0      -10.011027    2.021961   -1.755474
     21          6           0        8.612353    0.475447    0.298866
     22          6           0       -8.591383   -0.474826   -0.229386
     23          6           0        7.439631    1.323233    0.447793
     24          6           0       -7.554276   -1.381146   -0.382233
     25          6           0        7.595600    2.735373    0.711575
     26          6           0       -7.965041   -2.744775   -0.667906
     27          6           0        6.146036    0.716325    0.139878
     28          6           0       -6.215028   -1.046038   -0.317327
     29          6           0        4.851434    1.313478    0.260576
     30          6           0       -5.032411   -1.840366   -0.414700
     31          6           0        3.690015    0.742465    0.087066
     32          6           0       -3.834450   -1.144998   -0.300663
     33          6           0        2.399271    1.298152    0.284090
     34          6           0       -2.541805   -1.919511   -0.384041
     35          6           0        2.229472    2.850991    0.542633
     36          6           0       -2.392498   -3.399620   -0.513819
     37          6           0        1.192209    0.621323    0.139255
     38          6           0       -1.383161   -1.100363   -0.241167
     39          6           0        1.135944   -0.823979   -0.128200
     40          6           0        0.027073   -1.534428   -0.249506
     41          1           0       14.140984    0.144884    0.084220
     42          1           0       13.860651   -0.088159   -1.792880
     43          1           0      -12.322154    1.877238    1.953959
     44          1           0      -13.731345    0.797373    1.717995
     45          1           0       13.989458   -2.356585   -0.268892
     46          1           0       12.520347   -2.070981   -1.400786
     47          1           0      -13.823638    3.192445    0.507369
     48          1           0      -13.876187    1.845892   -0.790247
     49          1           0       13.119331   -1.816682    1.697663
     50          1           0       12.075420   -2.926625    0.663535
     51          1           0      -11.633215    3.521334    0.377264
     52          1           0      -11.956961    3.018921   -1.629361
     53          1           0       11.438019   -0.635137   -2.431696
     54          1           0       12.095886    0.914728   -2.816477
     55          1           0       10.437907    0.940776   -2.270516
     56          1           0       12.423383    2.288169    0.432475
     57          1           0       11.597727    2.633601   -0.979235
     58          1           0       13.294696    2.264777   -1.075225
     59          1           0      -13.425235   -0.515473   -0.735862
     60          1           0      -13.821937   -1.310346    0.747951
     61          1           0      -12.805877   -1.855483   -0.319317
     62          1           0      -10.868602   -0.095292    2.829764
     63          1           0      -11.070664   -1.584990    2.221643
     64          1           0      -12.533472   -0.621881    2.868293
     65          1           0        9.978687    1.970668    0.846334
     66          1           0      -10.309376   -1.707355   -0.531247
     67          1           0        9.526877   -0.912644    2.359392
     68          1           0       10.758868   -2.081958    2.971620
     69          1           0        9.871740   -2.596205    1.449870
     70          1           0       -9.173405    1.176793   -1.849921
     71          1           0       -9.579770    3.095654   -1.560808
     72          1           0      -10.591686    2.195281   -2.780385
     73          1           0        8.565858   -0.509433    0.049791
     74          1           0       -8.199496    0.512047   -0.056659
     75          1           0        8.204863    2.813090    1.566526
     76          1           0        6.657043    3.224429    1.308387
     77          1           0        7.882276    3.556329   -0.225401
     78          1           0       -8.409662   -2.983705   -1.691296
     79          1           0       -8.720868   -3.029485    0.081832
     80          1           0       -6.933158   -3.368484   -0.887647
     81          1           0        6.145907   -0.204079    0.026841
     82          1           0       -5.878007   -0.040338   -0.083845
     83          1           0        4.852527    2.397196    0.803818
     84          1           0       -4.972691   -3.024683   -0.770077
     85          1           0        3.711430   -0.368954   -0.078810
     86          1           0       -3.857835   -0.134140   -0.318928
     87          1           0        3.177956    3.167455    1.270650
     88          1           0        1.228477    3.251542    0.905308
     89          1           0        2.714900    3.433381   -0.329643
     90          1           0       -2.900942   -3.867670   -1.539353
     91          1           0       -2.867664   -4.049980    0.305934
     92          1           0       -1.384284   -3.820983   -0.479209
     93          1           0        0.294314    1.222449   -0.012234
     94          1           0       -1.547166    0.080869   -0.501380
     95          1           0        2.025058   -1.576256   -0.509629
     96          1           0        0.069318   -2.778940   -0.632667
 ---------------------------------------------------------------------

 SCF Done:  E(RB3LYP) =  -1557.48312321     A.U. after   15 cycles

 Excitation energies and oscillator strengths:

 Excited State   1:      Singlet-A      2.2618 eV  548.17 nm  f=2.5131  <S**2>=0.000
     148 ->149         0.70578
 This state for optimization and/or second-order correction.
 Total Energy, E(TD-HF/TD-DFT) =  -1557.40000463
 Copying the excited state density for this state as the 1-particle RhoCI density.

 The electronic state is 1-A.
 Alpha  occ. eigenvalues --  -10.21476 -10.20950 -10.20875 -10.20676 -10.20635
 Alpha  occ. eigenvalues --  -10.20501 -10.20471 -10.20338 -10.20295 -10.20172
 Alpha  occ. eigenvalues --  -10.19914 -10.19758 -10.19494 -10.19374 -10.19359
 Alpha  occ. eigenvalues --  -10.19332 -10.19177 -10.19078 -10.18977 -10.18958
 Alpha  occ. eigenvalues --  -10.18898 -10.18756 -10.18728 -10.18620 -10.18582
 Alpha  occ. eigenvalues --  -10.18498 -10.18425 -10.18132 -10.18008 -10.17957
 Alpha  occ. eigenvalues --  -10.17897 -10.17773 -10.17757 -10.17745 -10.17511
 Alpha  occ. eigenvalues --  -10.17324 -10.17191 -10.16775 -10.16313 -10.14995
 Alpha  occ. eigenvalues --   -0.85619  -0.84617  -0.83376  -0.83263  -0.81941
 Alpha  occ. eigenvalues --   -0.81167  -0.79106  -0.78656  -0.78359  -0.77464
 Alpha  occ. eigenvalues --   -0.76571  -0.75606  -0.74400  -0.72048  -0.71663
 Alpha  occ. eigenvalues --   -0.69425  -0.68900  -0.68448  -0.68188  -0.67978
 Alpha  occ. eigenvalues --   -0.67593  -0.67462  -0.66488  -0.66069  -0.65441
 Alpha  occ. eigenvalues --   -0.62323  -0.61668  -0.58881  -0.58347  -0.57114
 Alpha  occ. eigenvalues --   -0.56641  -0.55631  -0.55279  -0.54063  -0.53150
 Alpha  occ. eigenvalues --   -0.52195  -0.51329  -0.50122  -0.49311  -0.49037
 Alpha  occ. eigenvalues --   -0.48654  -0.47579  -0.47408  -0.46712  -0.46522
 Alpha  occ. eigenvalues --   -0.46157  -0.45043  -0.44661  -0.44079  -0.43379
 Alpha  occ. eigenvalues --   -0.43114  -0.42751  -0.42436  -0.42219  -0.42065
 Alpha  occ. eigenvalues --   -0.41949  -0.41497  -0.41362  -0.41260  -0.40515
 Alpha  occ. eigenvalues --   -0.40376  -0.40190  -0.40095  -0.39953  -0.39720
 Alpha  occ. eigenvalues --   -0.39403  -0.38953  -0.38537  -0.38501  -0.37892
 Alpha  occ. eigenvalues --   -0.37848  -0.37666  -0.37360  -0.37228  -0.36219
 Alpha  occ. eigenvalues --   -0.35851  -0.35443  -0.35282  -0.35058  -0.34975
 Alpha  occ. eigenvalues --   -0.34605  -0.34510  -0.34261  -0.33878  -0.33659
 Alpha  occ. eigenvalues --   -0.33241  -0.33099  -0.32850  -0.32399  -0.32222
 Alpha  occ. eigenvalues --   -0.31915  -0.31653  -0.31457  -0.31026  -0.30818
 Alpha  occ. eigenvalues --   -0.30537  -0.30038  -0.29518  -0.28507  -0.28142
 Alpha  occ. eigenvalues --   -0.27004  -0.26861  -0.25593  -0.24376  -0.23159
 Alpha  occ. eigenvalues --   -0.21746  -0.18897  -0.16717
 Alpha virt. eigenvalues --   -0.07935  -0.05703  -0.01402   0.00972   0.02969
 Alpha virt. eigenvalues --    0.04016   0.04844   0.05517   0.05963   0.06363
 Alpha virt. eigenvalues --    0.06765   0.07335   0.07469   0.07651   0.09081

 Mulliken charges:
               1
     1  C    0.011038
     2  C   -0.017318
     3  C   -0.168748
     4  C   -0.145957
     5  C   -0.188641
     6  C   -0.179599
     7  C    0.088572
     8  C    0.076877
     9  C   -0.213141
    10  C   -0.212523
    11  C    0.016615
    12  C    0.090934
    13  C   -0.291398
    14  C   -0.315775
    15  C   -0.307339
    16  C   -0.308225
    17  C   -0.154649
    18  C   -0.175047
    19  C   -0.342208
    20  C   -0.367905
    21  C   -0.056568
    22  C   -0.072784
    23  C    0.097584
    24  C    0.151309
    25  C   -0.366283
    26  C   -0.377898
    27  C   -0.085789
    28  C   -0.145308
    29  C   -0.066952
    30  C   -0.059477
    31  C   -0.089084
    32  C   -0.105744
    33  C    0.125359
    34  C    0.119528
    35  C   -0.370872
    36  C   -0.373401
    37  C   -0.146697
    38  C   -0.121653
    39  C   -0.070686
    40  C   -0.097418
    41  H    0.096365
    42  H    0.054891
    43  H    0.077490
    44  H    0.091787
    45  H    0.101607
    46  H    0.097765
    47  H    0.083656
    48  H    0.103884
    49  H    0.090774
    50  H    0.102826
    51  H    0.090046
    52  H    0.062191
    53  H    0.096277
    54  H    0.111635
    55  H    0.091460
    56  H    0.106683
    57  H    0.082508
    58  H    0.100064
    59  H    0.109633
    60  H    0.105929
    61  H    0.100660
    62  H    0.099341
    63  H    0.119608
    64  H    0.078274
    65  H    0.081988
    66  H    0.082366
    67  H    0.123296
    68  H    0.107554
    69  H    0.096351
    70  H    0.103330
    71  H    0.103963
    72  H    0.099703
    73  H    0.076508
    74  H    0.075593
    75  H    0.130432
    76  H    0.085267
    77  H    0.103389
    78  H    0.112334
    79  H    0.117935
    80  H    0.075687
    81  H    0.052402
    82  H    0.074094
    83  H    0.057125
    84  H    0.081963
    85  H    0.079029
    86  H    0.087774
    87  H    0.083782
    88  H    0.116694
    89  H    0.118464
    90  H    0.094417
    91  H    0.117761
    92  H    0.122391
    93  H    0.097950
    94  H    0.068380
    95  H    0.086475
    96  H    0.047523
 Sum of Mulliken charges =  -0.00000

 Dipole moment (field-independent basis, Debye):
    X=              1.2072    Y=             -0.3474    Z=              0.0249  Tot=              1.2564
 Quadrupole moment (field-independent basis, Debye-Ang):
   XX=           -219.2546   YY=           -236.3989   ZZ=           -254.3803
   XY=              0.5215   XZ=              6.6139   YZ=              3.7468

 Normal termination of Gaussian 16 at Tue Jul 23 21:25:44 2019.
