 Gaussian 16, Revision A.03,
 Gaussian 16:  ES64L-G16RevA.03 25-Dec-2016

 ---------------------------------
 # td=(NStates=1) B3LYP/6-31G(d,p)
 ---------------------------------

 --
 TD
 --
 Symbolic Z-matrix:
 Charge =  0 Multiplicity = 1

                         Standard orientation:
 ---------------------------------------------------------------------
 Center     Atomic      Atomic             Coordinates (Angstroms)
 Number     Number       Type             X           Y           Z
 ---------------------------------------------------------------------
      1          6           0      -12.087780   -0.662096   -0.742975
      2          6           0       12.023584   -0.020924    0.811197
      3          6           0      -13.434411    0.260510   -0.566575
      4          6           0       12.997781   -1.167320    1.351059
      5          6           0      -13.016766    1.678116   -0.636410
      6          6           0       13.389885   -2.049990    0.135767
      7          6           0      -11.059860   -0.048716    0.367505
      8          6           0       10.965405   -0.520686   -0.115202
      9          6           0      -12.325886    2.112323    0.629884
     10          6           0       12.079159   -2.705898   -0.465901
     11          6           0      -11.306941    1.187745    1.008486
     12          6           0       10.890254   -1.724457   -0.658558
     13          6           0      -11.622782   -0.809742   -2.089084
     14          6           0      -12.581150   -2.113022   -0.233947
     15          6           0       12.911178    1.108919    0.220662
     16          6           0       11.414686    0.514375    2.183414
     17          6           0       -9.791653   -0.901997    0.503747
     18          6           0        9.960192    0.538576   -0.287518
     19          6           0      -10.340528    1.731102    2.048679
     20          6           0        9.903583   -2.259500   -1.774348
     21          6           0       -8.591051   -0.472962    0.234216
     22          6           0        8.620559    0.407333   -0.157346
     23          6           0       -7.376657   -1.295777    0.314561
     24          6           0        7.587081    1.260775   -0.339427
     25          6           0       -7.567592   -2.789351    0.673913
     26          6           0        7.862970    2.724956   -0.705118
     27          6           0       -6.120320   -0.653184    0.160933
     28          6           0        6.312393    0.860417   -0.162186
     29          6           0       -4.888237   -1.357260    0.301315
     30          6           0        5.139157    1.622428   -0.449253
     31          6           0       -3.695581   -0.554728    0.179537
     32          6           0        3.833265    1.186618   -0.477441
     33          6           0       -2.339634   -0.990409    0.300202
     34          6           0        2.559809    1.908958   -0.590824
     35          6           0       -2.209054   -2.603027    0.503941
     36          6           0        2.636802    3.425740   -0.754423
     37          6           0       -1.303951   -0.297677    0.216310
     38          6           0        1.373760    1.163735   -0.336890
     39          6           0       -1.070057    1.041290   -0.256038
     40          6           0        0.112081    1.743821   -0.342182
     41          1           0      -13.911560    0.024884    0.355182
     42          1           0      -14.065975    0.099287   -1.447805
     43          1           0       12.621782   -1.780578    2.011056
     44          1           0       13.821142   -0.716755    1.820349
     45          1           0      -13.750407    2.385989   -0.668203
     46          1           0      -12.529052    1.891101   -1.510316
     47          1           0       14.087734   -2.891869    0.341756
     48          1           0       13.951676   -1.491324   -0.678607
     49          1           0      -13.027612    2.160883    1.338799
     50          1           0      -11.764467    3.109503    0.481220
     51          1           0       11.735852   -3.490690    0.452012
     52          1           0       12.151780   -3.195810   -1.572443
     53          1           0      -11.318066    0.176276   -2.514661
     54          1           0      -12.249124   -1.244813   -2.988657
     55          1           0      -10.664333   -1.382910   -2.086122
     56          1           0      -13.095111   -2.167910    0.702398
     57          1           0      -11.831287   -2.880036   -0.398957
     58          1           0      -13.478068   -2.204362   -0.888739
     59          1           0       13.359176    0.717066   -0.694322
     60          1           0       13.569642    1.643492    0.988681
     61          1           0       12.225226    2.037270   -0.136585
     62          1           0       10.906667   -0.297739    2.830152
     63          1           0       10.561723    1.235871    2.047909
     64          1           0       12.148169    0.831598    2.834090
     65          1           0       -9.979099   -1.883074    0.582283
     66          1           0       10.650875    1.459047   -0.421484
     67          1           0       -9.604981    0.942742    2.391968
     68          1           0      -10.879556    2.021371    2.800589
     69          1           0       -9.503119    2.366523    1.708156
     70          1           0        9.288485   -1.367547   -2.094527
     71          1           0        9.375099   -3.133964   -1.288043
     72          1           0       10.551930   -2.588798   -2.661473
     73          1           0       -8.272999    0.429644    0.091543
     74          1           0        8.042800   -0.434526    0.213019
     75          1           0       -7.788861   -2.807886    1.698368
     76          1           0       -6.695529   -3.294733    0.558802
     77          1           0       -8.213967   -3.323121   -0.135187
     78          1           0        8.484559    2.693653   -1.514117
     79          1           0        8.563514    3.268325   -0.000284
     80          1           0        6.935751    3.276712   -0.831372
     81          1           0       -6.233148    0.408764   -0.112323
     82          1           0        6.222518   -0.213147   -0.009273
     83          1           0       -4.822329   -2.409896    0.395293
     84          1           0        5.397517    2.649904   -0.678820
     85          1           0       -3.892890    0.502020    0.166573
     86          1           0        3.564463    0.063158   -0.339623
     87          1           0       -2.792080   -3.034657    1.325897
     88          1           0       -1.254434   -2.938972    0.701895
     89          1           0       -2.604974   -3.173292   -0.386469
     90          1           0        3.214856    3.780035   -1.564979
     91          1           0        3.148971    3.997765    0.050285
     92          1           0        1.607078    3.844046   -0.860243
     93          1           0       -0.344659   -1.066621    0.372094
     94          1           0        1.499657    0.007271   -0.235297
     95          1           0       -2.031011    1.663965   -0.297175
     96          1           0       -0.152107    2.852789   -0.266356
 ---------------------------------------------------------------------

 SCF Done:  E(RB3LYP) =  -1557.58848919     A.U. after   16 cycles

 Excitation energies and oscillator strengths:

 Excited State   1:      Singlet-A      2.1570 eV  574.81 nm  f=3.1389  <S**2>=0.000
     148 ->149         0.70836
     148 <-149        -0.10772
 This state for optimization and/or second-order correction.
 Total Energy, E(TD-HF/TD-DFT) =  -1557.50922204
 Copying the excited state density for this state as the 1-particle RhoCI density.

 The electronic state is 1-A.
 Alpha  occ. eigenvalues --  -10.20985 -10.20761 -10.20549 -10.20283 -10.20050
 Alpha  occ. eigenvalues --  -10.19843 -10.19602 -10.19594 -10.19551 -10.19521
 Alpha  occ. eigenvalues --  -10.19461 -10.19396 -10.19258 -10.19114 -10.19062
 Alpha  occ. eigenvalues --  -10.19015 -10.18966 -10.18963 -10.18833 -10.18779
 Alpha  occ. eigenvalues --  -10.18545 -10.18525 -10.18310 -10.18296 -10.18123
 Alpha  occ. eigenvalues --  -10.17985 -10.17796 -10.17788 -10.17722 -10.17600
 Alpha  occ. eigenvalues --  -10.17289 -10.17145 -10.17127 -10.17123 -10.16773
 Alpha  occ. eigenvalues --  -10.16710 -10.16658 -10.16650 -10.16036 -10.15094
 Alpha  occ. eigenvalues --   -0.85119  -0.84412  -0.83727  -0.83470  -0.82232
 Alpha  occ. eigenvalues --   -0.81411  -0.78855  -0.78435  -0.77602  -0.77149
 Alpha  occ. eigenvalues --   -0.76453  -0.75171  -0.74185  -0.72506  -0.71277
 Alpha  occ. eigenvalues --   -0.69900  -0.69296  -0.68727  -0.68153  -0.68012
 Alpha  occ. eigenvalues --   -0.67756  -0.67445  -0.66996  -0.66316  -0.65840
 Alpha  occ. eigenvalues --   -0.63508  -0.62487  -0.60005  -0.59407  -0.57286
 Alpha  occ. eigenvalues --   -0.56764  -0.56588  -0.54642  -0.54462  -0.53058
 Alpha  occ. eigenvalues --   -0.52766  -0.51817  -0.50926  -0.49411  -0.49085
 Alpha  occ. eigenvalues --   -0.48757  -0.47320  -0.46827  -0.46417  -0.46054
 Alpha  occ. eigenvalues --   -0.45693  -0.45171  -0.45021  -0.44527  -0.43826
 Alpha  occ. eigenvalues --   -0.43613  -0.43301  -0.43225  -0.42569  -0.42338
 Alpha  occ. eigenvalues --   -0.42108  -0.41793  -0.41055  -0.40602  -0.40299
 Alpha  occ. eigenvalues --   -0.40215  -0.40166  -0.40074  -0.39879  -0.39766
 Alpha  occ. eigenvalues --   -0.39186  -0.39071  -0.38699  -0.38548  -0.38239
 Alpha  occ. eigenvalues --   -0.38072  -0.37924  -0.37469  -0.37218  -0.37020
 Alpha  occ. eigenvalues --   -0.36356  -0.36292  -0.36191  -0.35708  -0.35298
 Alpha  occ. eigenvalues --   -0.34959  -0.34538  -0.34314  -0.34280  -0.34153
 Alpha  occ. eigenvalues --   -0.33543  -0.33310  -0.32850  -0.32723  -0.32583
 Alpha  occ. eigenvalues --   -0.32241  -0.31991  -0.31623  -0.31550  -0.31047
 Alpha  occ. eigenvalues --   -0.30471  -0.30215  -0.29869  -0.29137  -0.28230
 Alpha  occ. eigenvalues --   -0.27333  -0.26912  -0.26157  -0.24347  -0.22175
 Alpha  occ. eigenvalues --   -0.21152  -0.18760  -0.16244
 Alpha virt. eigenvalues --   -0.08240  -0.05061  -0.01638   0.01313   0.02991
 Alpha virt. eigenvalues --    0.04273   0.05786   0.06704   0.06816   0.07733
 Alpha virt. eigenvalues --    0.08272   0.08384   0.09017   0.09307   0.09633

 Mulliken charges:
               1
     1  C    0.009858
     2  C   -0.031727
     3  C   -0.188260
     4  C   -0.154189
     5  C   -0.181203
     6  C   -0.201071
     7  C    0.031337
     8  C    0.110665
     9  C   -0.215438
    10  C   -0.196120
    11  C    0.054080
    12  C    0.034142
    13  C   -0.300980
    14  C   -0.311963
    15  C   -0.296394
    16  C   -0.305477
    17  C   -0.147401
    18  C   -0.166124
    19  C   -0.358948
    20  C   -0.348164
    21  C   -0.005238
    22  C   -0.080378
    23  C    0.061822
    24  C    0.161732
    25  C   -0.367933
    26  C   -0.372015
    27  C   -0.124766
    28  C   -0.138474
    29  C   -0.074627
    30  C   -0.089529
    31  C   -0.134667
    32  C   -0.118378
    33  C    0.152078
    34  C    0.126128
    35  C   -0.378395
    36  C   -0.382137
    37  C   -0.116284
    38  C   -0.119267
    39  C   -0.120158
    40  C   -0.078805
    41  H    0.095584
    42  H    0.084460
    43  H    0.106008
    44  H    0.092618
    45  H    0.084301
    46  H    0.101157
    47  H    0.087499
    48  H    0.086432
    49  H    0.112775
    50  H    0.092930
    51  H    0.069620
    52  H    0.075033
    53  H    0.098284
    54  H    0.092508
    55  H    0.102924
    56  H    0.103473
    57  H    0.096091
    58  H    0.093784
    59  H    0.117745
    60  H    0.105347
    61  H    0.078392
    62  H    0.084670
    63  H    0.100803
    64  H    0.104773
    65  H    0.082865
    66  H    0.078765
    67  H    0.099879
    68  H    0.113985
    69  H    0.109150
    70  H    0.119341
    71  H    0.119525
    72  H    0.103096
    73  H    0.051114
    74  H    0.071848
    75  H    0.138273
    76  H    0.109929
    77  H    0.107195
    78  H    0.129173
    79  H    0.105675
    80  H    0.102976
    81  H    0.083224
    82  H    0.070864
    83  H    0.093289
    84  H    0.070699
    85  H    0.076928
    86  H    0.061826
    87  H    0.110114
    88  H    0.108831
    89  H    0.113078
    90  H    0.126396
    91  H    0.120784
    92  H    0.104289
    93  H    0.049623
    94  H    0.094335
    95  H    0.073412
    96  H    0.094972
 Sum of Mulliken charges =  -0.00000

 Dipole moment (field-independent basis, Debye):
    X=              0.5746    Y=              0.3209    Z=              0.0921  Tot=              0.6646
 Quadrupole moment (field-independent basis, Debye-Ang):
   XX=           -214.0033   YY=           -234.5381   ZZ=           -253.0740
   XY=              0.0436   XZ=              1.9679   YZ=             -2.2703

 Normal termination of Gaussian 16 at Wed Jul 31 16:05:37 2019.
