 Gaussian 16, Revision A.03,
 Gaussian 16:  ES64L-G16RevA.03 25-Dec-2016

 ---------------------------------
 # td=(NStates=1) B3LYP/6-31G(d,p)
 ---------------------------------

 --
 TD
 --
 Symbolic Z-matrix:
 Charge =  0 Multiplicity = 1

                         Standard orientation:
 ---------------------------------------------------------------------
 Center     Atomic      Atomic             Coordinates (Angstroms)
 Number     Number       Type             X           Y           Z
 ---------------------------------------------------------------------
      1          6           0      -12.195186   -0.522458   -0.541604
      2          6           0       12.094326   -0.058074    0.982876
      3          6           0      -13.553149    0.388764   -0.336147
      4          6           0       12.990087   -1.193272    1.244423
      5          6           0      -13.330649    1.827963   -0.502830
      6          6           0       13.373155   -2.108662    0.053346
      7          6           0      -11.083534   -0.094202    0.255360
      8          6           0       11.010789   -0.453668    0.011851
      9          6           0      -12.343544    2.224640    0.666100
     10          6           0       12.126358   -2.543434   -0.661493
     11          6           0      -11.117613    1.193518    0.806043
     12          6           0       10.980575   -1.505609   -0.724878
     13          6           0      -11.741086   -0.536072   -1.994259
     14          6           0      -12.550525   -2.018990   -0.160651
     15          6           0       13.067805    0.997282    0.306868
     16          6           0       11.610107    0.506136    2.315050
     17          6           0       -9.885793   -0.925697    0.366946
     18          6           0        9.934323    0.650535   -0.073275
     19          6           0      -10.192753    1.833062    1.790752
     20          6           0        9.873351   -1.869619   -1.717259
     21          6           0       -8.564949   -0.599002    0.183864
     22          6           0        8.727355    0.357745   -0.019442
     23          6           0       -7.429444   -1.285751    0.340928
     24          6           0        7.537939    1.420779   -0.277557
     25          6           0       -7.679255   -2.736685    0.726464
     26          6           0        8.032389    2.832338   -0.579279
     27          6           0       -6.204561   -0.722530    0.282807
     28          6           0        6.176334    0.992595   -0.364272
     29          6           0       -4.930639   -1.465867    0.281647
     30          6           0        4.985513    1.623085   -0.573345
     31          6           0       -3.711982   -0.750225    0.153788
     32          6           0        3.834411    1.037622   -0.503194
     33          6           0       -2.358646   -1.359187    0.000984
     34          6           0        2.573292    1.869681   -0.585726
     35          6           0       -2.246738   -2.838233    0.337473
     36          6           0        2.519762    3.371344   -0.733327
     37          6           0       -1.145742   -0.560460   -0.150184
     38          6           0        1.435151    1.080132   -0.411466
     39          6           0       -1.038731    0.778176   -0.241773
     40          6           0        0.121046    1.577615   -0.439581
     41          1           0      -14.017468    0.172865    0.644588
     42          1           0      -14.368189    0.018360   -0.996053
     43          1           0       12.555867   -1.932334    1.923013
     44          1           0       13.988116   -0.806037    1.650972
     45          1           0      -14.083880    2.311352   -0.374694
     46          1           0      -12.919133    2.149623   -1.392067
     47          1           0       13.891435   -3.138779    0.333662
     48          1           0       14.038580   -1.583787   -0.573447
     49          1           0      -12.759030    2.365859    1.831042
     50          1           0      -11.906117    3.226035    0.703380
     51          1           0       11.908743   -3.351179   -0.117898
     52          1           0       12.502492   -2.805713   -1.721098
     53          1           0      -11.379861    0.499438   -2.505264
     54          1           0      -12.640998   -0.855857   -2.534881
     55          1           0      -10.826187   -1.312102   -1.832389
     56          1           0      -12.970132   -1.984851    0.900292
     57          1           0      -11.699433   -2.582240   -0.393277
     58          1           0      -13.396769   -2.490733   -0.844210
     59          1           0       13.296931    0.625705   -0.562103
     60          1           0       13.880103    1.363608    0.952791
     61          1           0       12.696440    1.973904    0.214138
     62          1           0       10.961155   -0.005236    3.019034
     63          1           0       11.218655    1.537597    2.245202
     64          1           0       12.388086    0.532001    2.848808
     65          1           0      -10.238880   -1.935337    0.571542
     66          1           0       10.525077    1.706166   -0.116571
     67          1           0       -9.456697    1.101576    2.103934
     68          1           0      -10.868064    2.137973    2.680120
     69          1           0       -9.771203    2.637679    1.236207
     70          1           0        9.440721   -1.084131   -2.112562
     71          1           0        9.181825   -2.584010   -1.144141
     72          1           0       10.316859   -2.539586   -2.532491
     73          1           0       -8.393925    0.615000    0.021624
     74          1           0        8.504120   -0.736822   -0.342943
     75          1           0       -8.298207   -2.833707    1.656763
     76          1           0       -6.739073   -3.444113    1.105602
     77          1           0       -8.146702   -3.377455   -0.031873
     78          1           0        8.791961    2.739272   -1.399193
     79          1           0        8.666583    3.072150    0.190660
     80          1           0        7.307304    3.539677   -0.471905
     81          1           0       -6.004356    0.286652    0.097076
     82          1           0        6.260293   -0.099662   -0.287245
     83          1           0       -5.030448   -2.539304    0.386096
     84          1           0        5.158557    2.664479   -0.466541
     85          1           0       -3.807097    0.303657    0.073158
     86          1           0        3.549389    0.002516   -0.132261
     87          1           0       -2.218517   -3.279838    1.576338
     88          1           0       -1.351381   -3.429766   -0.097331
     89          1           0       -3.175403   -3.601201   -0.290441
     90          1           0        3.001405    3.645853   -1.594537
     91          1           0        3.189638    3.889741   -0.033543
     92          1           0        1.496035    3.648143   -0.630588
     93          1           0       -0.288161   -1.166399    0.032050
     94          1           0        1.656659    0.058683   -0.179054
     95          1           0       -1.893770    1.361786    0.188529
     96          1           0        0.078754    2.820920   -0.572181
 ---------------------------------------------------------------------

 SCF Done:  E(RB3LYP) =  -1557.44970912     A.U. after   16 cycles

 Excitation energies and oscillator strengths:

 Excited State   1:      Singlet-A      2.0105 eV  616.67 nm  f=2.9906  <S**2>=0.000
     148 ->149         0.71204
     148 <-149        -0.14258
 This state for optimization and/or second-order correction.
 Total Energy, E(TD-HF/TD-DFT) =  -1557.37582322
 Copying the excited state density for this state as the 1-particle RhoCI density.

 The electronic state is 1-A.
 Alpha  occ. eigenvalues --  -10.22486 -10.21416 -10.21217 -10.20827 -10.20493
 Alpha  occ. eigenvalues --  -10.19708 -10.19504 -10.19429 -10.19381 -10.19366
 Alpha  occ. eigenvalues --  -10.19241 -10.19209 -10.19083 -10.18948 -10.18934
 Alpha  occ. eigenvalues --  -10.18907 -10.18798 -10.18756 -10.18639 -10.18553
 Alpha  occ. eigenvalues --  -10.18510 -10.18394 -10.18389 -10.18287 -10.18260
 Alpha  occ. eigenvalues --  -10.18079 -10.18058 -10.17887 -10.17872 -10.17821
 Alpha  occ. eigenvalues --  -10.17799 -10.17743 -10.17522 -10.17378 -10.17322
 Alpha  occ. eigenvalues --  -10.17153 -10.17135 -10.16131 -10.15566 -10.15471
 Alpha  occ. eigenvalues --   -0.86071  -0.84984  -0.83774  -0.83195  -0.81819
 Alpha  occ. eigenvalues --   -0.80848  -0.79559  -0.78893  -0.78433  -0.77489
 Alpha  occ. eigenvalues --   -0.76833  -0.75973  -0.74175  -0.73181  -0.71698
 Alpha  occ. eigenvalues --   -0.70508  -0.70331  -0.69236  -0.68934  -0.67811
 Alpha  occ. eigenvalues --   -0.67532  -0.67135  -0.66409  -0.65498  -0.65149
 Alpha  occ. eigenvalues --   -0.63009  -0.61052  -0.59893  -0.59080  -0.58299
 Alpha  occ. eigenvalues --   -0.56718  -0.55500  -0.55113  -0.53530  -0.53370
 Alpha  occ. eigenvalues --   -0.52444  -0.51735  -0.50569  -0.50169  -0.48907
 Alpha  occ. eigenvalues --   -0.48221  -0.47560  -0.47231  -0.46815  -0.46071
 Alpha  occ. eigenvalues --   -0.45915  -0.45737  -0.45400  -0.44802  -0.44295
 Alpha  occ. eigenvalues --   -0.44017  -0.43595  -0.43115  -0.42908  -0.42654
 Alpha  occ. eigenvalues --   -0.42344  -0.41963  -0.41802  -0.41322  -0.41314
 Alpha  occ. eigenvalues --   -0.40980  -0.40698  -0.40060  -0.39786  -0.39532
 Alpha  occ. eigenvalues --   -0.39240  -0.39184  -0.38283  -0.38168  -0.37977
 Alpha  occ. eigenvalues --   -0.37810  -0.37695  -0.37476  -0.36838  -0.36686
 Alpha  occ. eigenvalues --   -0.36471  -0.35721  -0.35404  -0.35105  -0.34868
 Alpha  occ. eigenvalues --   -0.34389  -0.34304  -0.34008  -0.33674  -0.33484
 Alpha  occ. eigenvalues --   -0.33325  -0.33027  -0.32889  -0.32619  -0.32277
 Alpha  occ. eigenvalues --   -0.32120  -0.32096  -0.31783  -0.31543  -0.30954
 Alpha  occ. eigenvalues --   -0.30415  -0.29750  -0.29396  -0.28796  -0.28486
 Alpha  occ. eigenvalues --   -0.27885  -0.27371  -0.26283  -0.23865  -0.23041
 Alpha  occ. eigenvalues --   -0.21135  -0.18948  -0.15847
 Alpha virt. eigenvalues --   -0.08808  -0.04816  -0.01962   0.01309   0.02786
 Alpha virt. eigenvalues --    0.03855   0.05606   0.05947   0.06466   0.06841
 Alpha virt. eigenvalues --    0.07552   0.08065   0.08121   0.08333   0.08586

 Mulliken charges:
               1
     1  C   -0.053363
     2  C   -0.014156
     3  C   -0.186170
     4  C   -0.173349
     5  C   -0.137955
     6  C   -0.206143
     7  C    0.126211
     8  C    0.071685
     9  C   -0.234330
    10  C   -0.206140
    11  C    0.036930
    12  C    0.042139
    13  C   -0.257675
    14  C   -0.301748
    15  C   -0.304990
    16  C   -0.294821
    17  C   -0.169350
    18  C   -0.088502
    19  C   -0.350082
    20  C   -0.365475
    21  C   -0.102966
    22  C   -0.112468
    23  C    0.182732
    24  C    0.033243
    25  C   -0.384889
    26  C   -0.365872
    27  C   -0.135723
    28  C   -0.113780
    29  C   -0.058193
    30  C   -0.067353
    31  C   -0.117772
    32  C   -0.095718
    33  C    0.088453
    34  C    0.098815
    35  C   -0.333843
    36  C   -0.362555
    37  C   -0.095784
    38  C   -0.085433
    39  C   -0.101121
    40  C   -0.117875
    41  H    0.090736
    42  H    0.074043
    43  H    0.085968
    44  H    0.078535
    45  H    0.093221
    46  H    0.107037
    47  H    0.069876
    48  H    0.099788
    49  H    0.061768
    50  H    0.095938
    51  H    0.118775
    52  H    0.084585
    53  H    0.083238
    54  H    0.098333
    55  H    0.086912
    56  H    0.103412
    57  H    0.109007
    58  H    0.078976
    59  H    0.117467
    60  H    0.096128
    61  H    0.094031
    62  H    0.100702
    63  H    0.088703
    64  H    0.111440
    65  H    0.088502
    66  H    0.077850
    67  H    0.114243
    68  H    0.095541
    69  H    0.123125
    70  H    0.136255
    71  H    0.114595
    72  H    0.092874
    73  H    0.056014
    74  H    0.090117
    75  H    0.123338
    76  H    0.077209
    77  H    0.123895
    78  H    0.124434
    79  H    0.129920
    80  H    0.107232
    81  H    0.076583
    82  H    0.061064
    83  H    0.085548
    84  H    0.077820
    85  H    0.081234
    86  H    0.091400
    87  H    0.085368
    88  H    0.107681
    89  H    0.056979
    90  H    0.137894
    91  H    0.119319
    92  H    0.109962
    93  H    0.084301
    94  H    0.077819
    95  H    0.088747
    96  H    0.069907
 Sum of Mulliken charges =  -0.00000

 Dipole moment (field-independent basis, Debye):
    X=              2.0219    Y=              1.0642    Z=              0.4468  Tot=              2.3281
 Quadrupole moment (field-independent basis, Debye-Ang):
   XX=           -205.4208   YY=           -231.8213   ZZ=           -256.3935
   XY=              0.7255   XZ=             -2.1291   YZ=             -1.4119

 Normal termination of Gaussian 16 at Fri Jul 26 17:24:32 2019.
