 Gaussian 16, Revision A.03,
 Gaussian 16:  ES64L-G16RevA.03 25-Dec-2016

 ---------------------------------
 # td=(NStates=1) B3LYP/6-31G(d,p)
 ---------------------------------

 --
 TD
 --
 Symbolic Z-matrix:
 Charge =  0 Multiplicity = 1

                         Standard orientation:
 ---------------------------------------------------------------------
 Center     Atomic      Atomic             Coordinates (Angstroms)
 Number     Number       Type             X           Y           Z
 ---------------------------------------------------------------------
      1          6           0       12.222431   -0.618235    0.680736
      2          6           0      -12.130170    0.019977   -0.771158
      3          6           0       13.596924    0.149999    0.643504
      4          6           0      -13.082963   -1.195239   -1.107003
      5          6           0       13.398414    1.624153    0.651541
      6          6           0      -13.477067   -2.086886    0.013696
      7          6           0       11.087457    0.043973   -0.174455
      8          6           0      -11.027441   -0.477846    0.220779
      9          6           0       12.586696    2.016008   -0.639178
     10          6           0      -12.191747   -2.669620    0.575465
     11          6           0       11.262893    1.259551   -0.701093
     12          6           0      -11.011927   -1.718236    0.755287
     13          6           0       11.694269   -0.772833    2.134154
     14          6           0       12.572621   -2.111290    0.213764
     15          6           0      -13.014678    1.120686   -0.093360
     16          6           0      -11.543817    0.518602   -2.057948
     17          6           0        9.879457   -0.853356   -0.274102
     18          6           0      -10.013026    0.529306    0.249162
     19          6           0       10.164847    1.881545   -1.580446
     20          6           0       -9.850353   -2.185751    1.610144
     21          6           0        8.582727   -0.384128   -0.408868
     22          6           0       -8.631779    0.351805    0.315559
     23          6           0        7.386939   -1.204590   -0.602560
     24          6           0       -7.596402    1.346141    0.251774
     25          6           0        7.680596   -2.720117   -0.665115
     26          6           0       -8.033264    2.781738    0.536257
     27          6           0        6.131048   -0.592052   -0.323354
     28          6           0       -6.256465    0.940538    0.286209
     29          6           0        4.867058   -1.229868   -0.519541
     30          6           0       -5.080861    1.823696    0.327116
     31          6           0        3.628163   -0.639855   -0.244604
     32          6           0       -3.756051    1.244608    0.293855
     33          6           0        2.365215   -1.258082   -0.329146
     34          6           0       -2.527805    1.844239    0.334675
     35          6           0        2.257421   -2.706299   -0.550215
     36          6           0       -2.568102    3.340859    0.791607
     37          6           0        1.129005   -0.527257   -0.314626
     38          6           0       -1.372210    1.167764    0.177883
     39          6           0        0.970188    0.759541    0.054911
     40          6           0       -0.100124    1.632547    0.323855
     41          1           0       14.154438   -0.094708   -0.239920
     42          1           0       14.180228   -0.162250    1.468117
     43          1           0      -12.727730   -1.721408   -1.835988
     44          1           0      -14.019545   -0.728156   -1.614382
     45          1           0       14.388217    2.131544    0.711364
     46          1           0       12.887641    2.058799    1.462310
     47          1           0      -13.931753   -2.963370   -0.453160
     48          1           0      -14.142022   -1.608529    0.797543
     49          1           0       13.097492    1.719946   -1.579962
     50          1           0       12.448031    3.193256   -0.617595
     51          1           0      -11.760591   -3.307094   -0.225689
     52          1           0      -12.497054   -3.387152    1.357521
     53          1           0       11.579902   -0.012982    2.668785
     54          1           0       12.490547   -1.194529    2.846363
     55          1           0       10.660577   -1.165638    2.291359
     56          1           0       12.741044   -2.018934   -0.971224
     57          1           0       11.607355   -2.744227    0.355866
     58          1           0       13.567119   -2.418793    0.569073
     59          1           0      -13.337545    0.793760    0.571480
     60          1           0      -13.844920    1.347666   -0.659083
     61          1           0      -12.423905    2.090745   -0.006710
     62          1           0      -10.739446   -0.206930   -2.242175
     63          1           0      -11.124838    1.693338   -1.811464
     64          1           0      -12.352945    0.510147   -2.863808
     65          1           0        9.864253   -1.853143   -0.400579
     66          1           0      -10.345369    1.651902    0.113132
     67          1           0        9.481083    1.065941   -2.200548
     68          1           0       10.629501    2.498272   -2.382382
     69          1           0        9.516918    2.469774   -1.121235
     70          1           0       -9.162506   -1.267531    1.826222
     71          1           0       -9.434106   -3.146988    1.052113
     72          1           0      -10.309339   -2.577751    2.611453
     73          1           0        8.259403    0.672008   -0.391829
     74          1           0       -8.153736   -0.528793    0.244158
     75          1           0        8.300318   -2.895511   -1.553361
     76          1           0        6.741510   -3.228954   -0.848832
     77          1           0        8.090166   -3.110137    0.300862
     78          1           0       -8.626161    2.942161    1.411207
     79          1           0       -8.798712    3.017323   -0.262035
     80          1           0       -7.274166    3.661477    0.351255
     81          1           0        6.384322    0.615703   -0.144970
     82          1           0       -6.080313   -0.140135    0.177294
     83          1           0        4.794687   -2.179464   -0.870328
     84          1           0       -5.272845    2.821901    0.390757
     85          1           0        3.674170    0.435588    0.126578
     86          1           0       -3.633539    0.170778    0.041776
     87          1           0        2.972878   -3.046091   -1.278273
     88          1           0        1.159859   -3.037894   -0.825373
     89          1           0        2.637861   -3.377931    0.305784
     90          1           0       -3.379173    3.541201    1.597922
     91          1           0       -2.914339    3.861788   -0.127699
     92          1           0       -1.621569    3.599602    1.101742
     93          1           0       -0.001512   -1.086582   -0.526081
     94          1           0       -1.465917    0.023332   -0.095601
     95          1           0        1.877329    1.318749    0.230277
     96          1           0        0.000053    2.630491    0.656997
 ---------------------------------------------------------------------

 SCF Done:  E(RB3LYP) =  -1557.53093952     A.U. after   17 cycles

 Excitation energies and oscillator strengths:

 Excited State   1:      Singlet-A      1.7659 eV  702.09 nm  f=3.1729  <S**2>=0.000
     148 ->149         0.71429
     148 <-149        -0.17769
 This state for optimization and/or second-order correction.
 Total Energy, E(TD-HF/TD-DFT) =  -1557.46604320
 Copying the excited state density for this state as the 1-particle RhoCI density.

 The electronic state is 1-A.
 Alpha  occ. eigenvalues --  -10.21151 -10.20855 -10.20591 -10.20444 -10.20118
 Alpha  occ. eigenvalues --  -10.19752 -10.19712 -10.19711 -10.19536 -10.19429
 Alpha  occ. eigenvalues --  -10.19409 -10.19339 -10.19247 -10.19229 -10.19203
 Alpha  occ. eigenvalues --  -10.19129 -10.19128 -10.18893 -10.18855 -10.18769
 Alpha  occ. eigenvalues --  -10.18756 -10.18718 -10.18661 -10.18644 -10.18598
 Alpha  occ. eigenvalues --  -10.18594 -10.18522 -10.18384 -10.18382 -10.18304
 Alpha  occ. eigenvalues --  -10.18234 -10.18209 -10.18008 -10.17630 -10.17594
 Alpha  occ. eigenvalues --  -10.17471 -10.17047 -10.16591 -10.15628 -10.13905
 Alpha  occ. eigenvalues --   -0.85292  -0.84240  -0.84041  -0.82998  -0.81753
 Alpha  occ. eigenvalues --   -0.81374  -0.79059  -0.78729  -0.77847  -0.77453
 Alpha  occ. eigenvalues --   -0.76906  -0.75272  -0.74119  -0.71930  -0.71504
 Alpha  occ. eigenvalues --   -0.70617  -0.69950  -0.68684  -0.68314  -0.68276
 Alpha  occ. eigenvalues --   -0.67764  -0.67606  -0.66937  -0.66034  -0.65519
 Alpha  occ. eigenvalues --   -0.63616  -0.61993  -0.59961  -0.59268  -0.57385
 Alpha  occ. eigenvalues --   -0.56660  -0.56018  -0.55195  -0.54292  -0.52891
 Alpha  occ. eigenvalues --   -0.52106  -0.52025  -0.50639  -0.50173  -0.49309
 Alpha  occ. eigenvalues --   -0.48412  -0.47517  -0.47105  -0.46676  -0.46463
 Alpha  occ. eigenvalues --   -0.45994  -0.45068  -0.44863  -0.44234  -0.43485
 Alpha  occ. eigenvalues --   -0.43003  -0.42915  -0.42574  -0.42340  -0.42013
 Alpha  occ. eigenvalues --   -0.41818  -0.41714  -0.41356  -0.41154  -0.40921
 Alpha  occ. eigenvalues --   -0.40570  -0.40207  -0.40131  -0.39593  -0.39395
 Alpha  occ. eigenvalues --   -0.39107  -0.38956  -0.38712  -0.38627  -0.38389
 Alpha  occ. eigenvalues --   -0.37753  -0.37708  -0.37454  -0.37261  -0.36859
 Alpha  occ. eigenvalues --   -0.36705  -0.36538  -0.36347  -0.35735  -0.35622
 Alpha  occ. eigenvalues --   -0.35194  -0.34769  -0.34121  -0.33970  -0.33806
 Alpha  occ. eigenvalues --   -0.33769  -0.33179  -0.32975  -0.32823  -0.32505
 Alpha  occ. eigenvalues --   -0.32287  -0.32010  -0.31727  -0.31568  -0.31188
 Alpha  occ. eigenvalues --   -0.30682  -0.30264  -0.29611  -0.28993  -0.28583
 Alpha  occ. eigenvalues --   -0.28072  -0.27458  -0.26523  -0.24626  -0.23180
 Alpha  occ. eigenvalues --   -0.20983  -0.18752  -0.15233
 Alpha virt. eigenvalues --   -0.09508  -0.05335  -0.02237   0.00660   0.02937
 Alpha virt. eigenvalues --    0.04670   0.05805   0.06128   0.06432   0.07478
 Alpha virt. eigenvalues --    0.08151   0.08157   0.08493   0.08770   0.09404

 Mulliken charges:
               1
     1  C   -0.000768
     2  C   -0.031891
     3  C   -0.180083
     4  C   -0.173390
     5  C   -0.185797
     6  C   -0.181015
     7  C    0.099697
     8  C    0.098311
     9  C   -0.229494
    10  C   -0.230358
    11  C    0.048907
    12  C    0.061924
    13  C   -0.292859
    14  C   -0.294544
    15  C   -0.222007
    16  C   -0.267378
    17  C   -0.124567
    18  C   -0.144198
    19  C   -0.364390
    20  C   -0.354684
    21  C   -0.091082
    22  C   -0.095770
    23  C    0.084859
    24  C    0.107507
    25  C   -0.379926
    26  C   -0.381026
    27  C   -0.115037
    28  C   -0.127176
    29  C   -0.081702
    30  C   -0.082418
    31  C   -0.104698
    32  C   -0.126320
    33  C    0.120294
    34  C    0.122833
    35  C   -0.385006
    36  C   -0.364451
    37  C   -0.109424
    38  C   -0.090739
    39  C   -0.067743
    40  C   -0.103167
    41  H    0.096681
    42  H    0.090646
    43  H    0.096705
    44  H    0.061339
    45  H    0.079110
    46  H    0.108665
    47  H    0.096643
    48  H    0.094606
    49  H    0.114426
    50  H    0.081943
    51  H    0.104979
    52  H    0.097926
    53  H    0.110895
    54  H    0.071518
    55  H    0.097383
    56  H    0.071109
    57  H    0.095341
    58  H    0.107869
    59  H    0.078507
    60  H    0.090813
    61  H    0.076552
    62  H    0.111188
    63  H    0.059119
    64  H    0.093692
    65  H    0.085822
    66  H    0.075598
    67  H    0.095887
    68  H    0.090828
    69  H    0.133306
    70  H    0.122727
    71  H    0.098837
    72  H    0.095755
    73  H    0.069351
    74  H    0.079825
    75  H    0.125828
    76  H    0.104876
    77  H    0.131703
    78  H    0.134749
    79  H    0.107328
    80  H    0.092152
    81  H    0.070508
    82  H    0.075055
    83  H    0.076343
    84  H    0.078237
    85  H    0.081501
    86  H    0.066411
    87  H    0.121504
    88  H    0.105744
    89  H    0.113833
    90  H    0.110992
    91  H    0.123194
    92  H    0.109783
    93  H    0.057606
    94  H    0.061887
    95  H    0.067974
    96  H    0.085978
 Sum of Mulliken charges =  -0.00000

 Dipole moment (field-independent basis, Debye):
    X=              0.0003    Y=             -0.5303    Z=             -0.0043  Tot=              0.5304
 Quadrupole moment (field-independent basis, Debye-Ang):
   XX=           -208.8965   YY=           -233.9425   ZZ=           -256.2361
   XY=             11.6519   XZ=              2.3865   YZ=              4.0536

 Normal termination of Gaussian 16 at Thu Aug  1 02:21:17 2019.
