 Gaussian 16, Revision A.03,
 Gaussian 16:  ES64L-G16RevA.03 25-Dec-2016

 ---------------------------------
 # td=(NStates=1) B3LYP/6-31G(d,p)
 ---------------------------------

 --
 TD
 --
 Symbolic Z-matrix:
 Charge =  0 Multiplicity = 1

                         Standard orientation:
 ---------------------------------------------------------------------
 Center     Atomic      Atomic             Coordinates (Angstroms)
 Number     Number       Type             X           Y           Z
 ---------------------------------------------------------------------
      1          6           0       12.123339    0.390799   -0.705183
      2          6           0      -12.106842   -0.144291    0.972637
      3          6           0       13.515708   -0.477064   -0.417778
      4          6           0      -13.028136    1.080885    1.236683
      5          6           0       13.031949   -2.017623   -0.246258
      6          6           0      -13.423022    1.995337    0.064367
      7          6           0       10.991846   -0.013952    0.335772
      8          6           0      -10.959219    0.338025   -0.028300
      9          6           0       12.127676   -2.096054    0.936711
     10          6           0      -12.126323    2.596055   -0.406919
     11          6           0       11.099041   -1.153572    1.042526
     12          6           0      -10.993823    1.580609   -0.636305
     13          6           0       11.597863    0.152485   -2.245715
     14          6           0       12.597667    1.814846   -0.522063
     15          6           0      -12.891614   -1.192091    0.175229
     16          6           0      -11.562964   -0.658719    2.336875
     17          6           0        9.847185    0.923350    0.433734
     18          6           0       -9.866195   -0.601604   -0.065897
     19          6           0       10.055755   -1.400702    2.196323
     20          6           0       -9.958314    2.177094   -1.684089
     21          6           0        8.576188    0.546822    0.205304
     22          6           0       -8.523019   -0.341122   -0.244612
     23          6           0        7.421098    1.403452    0.327469
     24          6           0       -7.519882   -1.393717   -0.295389
     25          6           0        7.590354    2.934484    0.355781
     26          6           0       -7.926914   -2.735056   -0.563351
     27          6           0        6.231587    0.799937    0.224648
     28          6           0       -6.170618   -0.884005   -0.451987
     29          6           0        4.846157    1.491804    0.252086
     30          6           0       -5.002092   -1.690181   -0.655397
     31          6           0        3.668945    0.794838    0.291748
     32          6           0       -3.747071   -1.094973   -0.458995
     33          6           0        2.349507    1.446497    0.196823
     34          6           0       -2.483525   -1.802278   -0.700266
     35          6           0        2.252919    2.899945    0.538568
     36          6           0       -2.492201   -3.303051   -0.911897
     37          6           0        1.208908    0.699135    0.008915
     38          6           0       -1.316181   -1.047536   -0.397799
     39          6           0        1.148872   -0.762771   -0.162377
     40          6           0        0.032277   -1.597464   -0.526280
     41          1           0       13.959006   -0.158397    0.470650
     42          1           0       14.143822   -0.365719   -1.474423
     43          1           0      -12.649519    1.689342    2.015874
     44          1           0      -13.691965    0.544322    1.980317
     45          1           0       14.072699   -2.480454   -0.092412
     46          1           0       12.467818   -2.308984   -1.222398
     47          1           0      -14.195649    2.775350    0.179330
     48          1           0      -13.910124    1.258211   -0.886782
     49          1           0       12.689436   -2.001415    1.929165
     50          1           0       11.839937   -3.186491    1.074659
     51          1           0      -11.878287    3.430401    0.531645
     52          1           0      -12.154291    3.267098   -1.335091
     53          1           0       11.495149   -0.978195   -2.330938
     54          1           0       12.279573    0.793936   -2.830708
     55          1           0       10.670898    0.673725   -2.182321
     56          1           0       12.528467    2.110380    0.538136
     57          1           0       11.886142    2.613430   -0.915253
     58          1           0       13.655485    2.019892   -1.167420
     59          1           0      -13.617929   -0.767008   -0.660784
     60          1           0      -13.648370   -1.563615    0.931073
     61          1           0      -12.298775   -2.114300   -0.151176
     62          1           0      -10.919419    0.242691    2.739245
     63          1           0      -10.941248   -1.557992    2.265578
     64          1           0      -12.301922   -0.976582    3.176249
     65          1           0       10.004916    1.986591    0.585217
     66          1           0      -10.037307   -1.747908    0.073726
     67          1           0        9.444771   -0.581796    2.236736
     68          1           0       10.409904   -1.555994    3.157377
     69          1           0        9.272437   -2.094306    1.940915
     70          1           0       -9.362688    1.300077   -1.988460
     71          1           0       -9.558395    3.202144   -1.287975
     72          1           0      -10.597635    2.441484   -2.501534
     73          1           0        8.366680   -0.548253   -0.179473
     74          1           0       -8.318631    0.641879   -0.376801
     75          1           0        7.986201    3.381319    1.483575
     76          1           0        6.691988    3.574834    0.316660
     77          1           0        8.366604    3.109392   -0.496342
     78          1           0       -8.383657   -2.822838   -1.457700
     79          1           0       -8.342759   -3.046365    0.380122
     80          1           0       -6.997225   -3.407456   -0.576617
     81          1           0        6.198942   -0.319883    0.028076
     82          1           0       -6.036952    0.189160   -0.257920
     83          1           0        5.069090    2.394384    0.527955
     84          1           0       -4.968859   -2.781020   -0.727590
     85          1           0        3.519309   -0.285122    0.311754
     86          1           0       -3.643235   -0.012257   -0.403710
     87          1           0        2.880723    3.104096    1.334168
     88          1           0        1.118541    3.087189    0.586421
     89          1           0        2.556902    3.534600   -0.307965
     90          1           0       -3.086954   -3.516183   -1.696926
     91          1           0       -3.049340   -3.671718   -0.043649
     92          1           0       -1.508683   -3.655744   -1.080494
     93          1           0        0.268807    1.123127    0.169467
     94          1           0       -1.360917    0.018908   -0.434934
     95          1           0        2.040302   -1.308573   -0.107506
     96          1           0        0.274879   -2.644827   -0.620836
 ---------------------------------------------------------------------

 SCF Done:  E(RB3LYP) =  -1557.59468332     A.U. after   16 cycles

 Excitation energies and oscillator strengths:

 Excited State   1:      Singlet-A      2.1159 eV  585.97 nm  f=2.6417  <S**2>=0.000
     148 ->149         0.69665
     148 ->150        -0.12619
     148 <-149        -0.10706
 This state for optimization and/or second-order correction.
 Total Energy, E(TD-HF/TD-DFT) =  -1557.51692606
 Copying the excited state density for this state as the 1-particle RhoCI density.

 The electronic state is 1-A.
 Alpha  occ. eigenvalues --  -10.21504 -10.20759 -10.20491 -10.20432 -10.20209
 Alpha  occ. eigenvalues --  -10.20068 -10.19961 -10.19915 -10.19786 -10.19651
 Alpha  occ. eigenvalues --  -10.19588 -10.19514 -10.19234 -10.19185 -10.19178
 Alpha  occ. eigenvalues --  -10.19152 -10.19102 -10.19096 -10.19082 -10.18949
 Alpha  occ. eigenvalues --  -10.18948 -10.18925 -10.18895 -10.18868 -10.18797
 Alpha  occ. eigenvalues --  -10.18725 -10.18665 -10.18606 -10.18597 -10.18454
 Alpha  occ. eigenvalues --  -10.18366 -10.18314 -10.18304 -10.18152 -10.17848
 Alpha  occ. eigenvalues --  -10.17557 -10.17505 -10.17451 -10.17272 -10.15408
 Alpha  occ. eigenvalues --   -0.84415  -0.84252  -0.83071  -0.82709  -0.82010
 Alpha  occ. eigenvalues --   -0.81395  -0.78028  -0.77642  -0.77566  -0.76986
 Alpha  occ. eigenvalues --   -0.76424  -0.74852  -0.73966  -0.72091  -0.71575
 Alpha  occ. eigenvalues --   -0.70536  -0.68911  -0.68009  -0.67890  -0.67582
 Alpha  occ. eigenvalues --   -0.67126  -0.66951  -0.66240  -0.66111  -0.65558
 Alpha  occ. eigenvalues --   -0.62814  -0.61527  -0.59195  -0.58874  -0.56410
 Alpha  occ. eigenvalues --   -0.55964  -0.55255  -0.54354  -0.53951  -0.53133
 Alpha  occ. eigenvalues --   -0.52512  -0.51820  -0.50852  -0.49800  -0.49046
 Alpha  occ. eigenvalues --   -0.47454  -0.47167  -0.46796  -0.46368  -0.46298
 Alpha  occ. eigenvalues --   -0.45873  -0.45333  -0.44540  -0.44388  -0.44035
 Alpha  occ. eigenvalues --   -0.43567  -0.43254  -0.42904  -0.42736  -0.42531
 Alpha  occ. eigenvalues --   -0.42213  -0.42177  -0.41752  -0.41370  -0.41158
 Alpha  occ. eigenvalues --   -0.40913  -0.40664  -0.40044  -0.39819  -0.39579
 Alpha  occ. eigenvalues --   -0.39383  -0.38595  -0.38437  -0.38102  -0.37883
 Alpha  occ. eigenvalues --   -0.37702  -0.37520  -0.37099  -0.36892  -0.36293
 Alpha  occ. eigenvalues --   -0.35949  -0.35676  -0.35553  -0.35256  -0.34987
 Alpha  occ. eigenvalues --   -0.34734  -0.34604  -0.34458  -0.34188  -0.33888
 Alpha  occ. eigenvalues --   -0.33696  -0.33362  -0.33280  -0.32972  -0.32876
 Alpha  occ. eigenvalues --   -0.32224  -0.32098  -0.31853  -0.31106  -0.30427
 Alpha  occ. eigenvalues --   -0.29933  -0.29538  -0.29301  -0.29054  -0.28091
 Alpha  occ. eigenvalues --   -0.26936  -0.26599  -0.25738  -0.23816  -0.22632
 Alpha  occ. eigenvalues --   -0.20746  -0.18953  -0.15916
 Alpha virt. eigenvalues --   -0.08045  -0.05096  -0.02061   0.00355   0.02240
 Alpha virt. eigenvalues --    0.03874   0.05361   0.06618   0.07075   0.07293
 Alpha virt. eigenvalues --    0.07590   0.07943   0.08341   0.08469   0.08738

 Mulliken charges:
               1
     1  C    0.001563
     2  C    0.000476
     3  C   -0.172084
     4  C   -0.167509
     5  C   -0.194356
     6  C   -0.165032
     7  C    0.041566
     8  C    0.085818
     9  C   -0.224668
    10  C   -0.185288
    11  C    0.097217
    12  C    0.034835
    13  C   -0.303569
    14  C   -0.300998
    15  C   -0.286496
    16  C   -0.309985
    17  C   -0.160570
    18  C   -0.142627
    19  C   -0.372394
    20  C   -0.364862
    21  C   -0.086736
    22  C   -0.073211
    23  C    0.148408
    24  C    0.068833
    25  C   -0.362141
    26  C   -0.366111
    27  C   -0.151416
    28  C   -0.117380
    29  C   -0.070678
    30  C   -0.091680
    31  C   -0.094858
    32  C   -0.108081
    33  C    0.106381
    34  C    0.081050
    35  C   -0.368629
    36  C   -0.371192
    37  C   -0.123092
    38  C   -0.115062
    39  C   -0.096915
    40  C   -0.110758
    41  H    0.106702
    42  H    0.064700
    43  H    0.098680
    44  H    0.074012
    45  H    0.088125
    46  H    0.090533
    47  H    0.101791
    48  H    0.048289
    49  H    0.098758
    50  H    0.100791
    51  H    0.059375
    52  H    0.084843
    53  H    0.098707
    54  H    0.102566
    55  H    0.115447
    56  H    0.105383
    57  H    0.077941
    58  H    0.075811
    59  H    0.097315
    60  H    0.085477
    61  H    0.098694
    62  H    0.101949
    63  H    0.107799
    64  H    0.092956
    65  H    0.087163
    66  H    0.066242
    67  H    0.124967
    68  H    0.107882
    69  H    0.104727
    70  H    0.122265
    71  H    0.112997
    72  H    0.118784
    73  H    0.083274
    74  H    0.079056
    75  H    0.080802
    76  H    0.120353
    77  H    0.121753
    78  H    0.143457
    79  H    0.131243
    80  H    0.091708
    81  H    0.069938
    82  H    0.082727
    83  H    0.068868
    84  H    0.080195
    85  H    0.086200
    86  H    0.076864
    87  H    0.129086
    88  H    0.099952
    89  H    0.120283
    90  H    0.134981
    91  H    0.128635
    92  H    0.113388
    93  H    0.078384
    94  H    0.089429
    95  H    0.072956
    96  H    0.087033
 Sum of Mulliken charges =  -0.00000

 Dipole moment (field-independent basis, Debye):
    X=             -0.5206    Y=              0.1041    Z=              0.5351  Tot=              0.7538
 Quadrupole moment (field-independent basis, Debye-Ang):
   XX=           -242.9157   YY=           -232.5204   ZZ=           -254.6974
   XY=              0.5734   XZ=              3.8097   YZ=              0.7983

 Normal termination of Gaussian 16 at Wed Jul 31 13:27:00 2019.
