 Gaussian 16, Revision A.03,
 Gaussian 16:  ES64L-G16RevA.03 25-Dec-2016

 ---------------------------------
 # td=(NStates=1) B3LYP/6-31G(d,p)
 ---------------------------------

 --
 TD
 --
 Symbolic Z-matrix:
 Charge =  0 Multiplicity = 1

                         Standard orientation:
 ---------------------------------------------------------------------
 Center     Atomic      Atomic             Coordinates (Angstroms)
 Number     Number       Type             X           Y           Z
 ---------------------------------------------------------------------
      1          6           0       12.207685    0.577341   -0.502631
      2          6           0      -12.244084   -0.064256    0.767836
      3          6           0       13.557764   -0.253605   -0.494988
      4          6           0      -13.089207    1.255336    1.301219
      5          6           0       13.102537   -1.754017   -0.605595
      6          6           0      -13.422420    2.281394    0.095442
      7          6           0       11.032800   -0.014684    0.324709
      8          6           0      -11.070700    0.324592   -0.181776
      9          6           0       12.314651   -2.148949    0.629501
     10          6           0      -12.077985    2.628098   -0.526724
     11          6           0       11.183541   -1.189035    0.870948
     12          6           0      -11.053747    1.496904   -0.790846
     13          6           0       11.867525    0.668491   -2.021907
     14          6           0       12.681590    1.999771   -0.096377
     15          6           0      -13.188064   -0.983034   -0.099248
     16          6           0      -11.776883   -0.763905    2.016170
     17          6           0        9.878077    0.935756    0.398758
     18          6           0       -9.988129   -0.620507   -0.196166
     19          6           0       10.190697   -1.714256    1.739280
     20          6           0       -9.897654    2.077328   -1.640650
     21          6           0        8.653275    0.470567    0.347474
     22          6           0       -8.632013   -0.325212    0.020528
     23          6           0        7.435387    1.292321    0.320133
     24          6           0       -7.486944   -1.297467   -0.176488
     25          6           0        7.656162    2.790483    0.636215
     26          6           0       -7.848977   -2.770151   -0.464083
     27          6           0        6.219007    0.596288    0.219602
     28          6           0       -6.237683   -0.922515   -0.195951
     29          6           0        4.900840    1.287604    0.187498
     30          6           0       -5.014147   -1.629759   -0.424031
     31          6           0        3.710116    0.640335    0.020590
     32          6           0       -3.800308   -1.026750   -0.215288
     33          6           0        2.392984    1.240434    0.231774
     34          6           0       -2.565701   -1.759601   -0.418898
     35          6           0        2.272401    2.639574    0.621642
     36          6           0       -2.665716   -3.240833   -0.738738
     37          6           0        1.179079    0.460423    0.118432
     38          6           0       -1.337607   -1.140640   -0.244537
     39          6           0        1.196948   -0.894713   -0.233978
     40          6           0       -0.011503   -1.606687   -0.423618
     41          1           0       14.144320   -0.124135    0.417663
     42          1           0       14.069633   -0.219582   -1.609024
     43          1           0      -12.462711    1.624358    2.041984
     44          1           0      -13.911110    0.984391    1.962849
     45          1           0       14.091767   -2.442722   -0.885805
     46          1           0       12.437893   -1.817695   -1.395112
     47          1           0      -14.130056    2.928879    0.489700
     48          1           0      -14.182469    1.836724   -0.601013
     49          1           0       13.019540   -2.283011    1.402079
     50          1           0       11.839325   -3.088166    0.478711
     51          1           0      -11.567203    3.371714    0.144731
     52          1           0      -12.145101    3.090872   -1.446512
     53          1           0       11.497791   -0.219063   -2.439720
     54          1           0       12.530028    1.113129   -2.843468
     55          1           0       10.892134    1.388720   -2.159760
     56          1           0       12.709445    1.852921    0.989303
     57          1           0       11.786439    2.659931   -0.351049
     58          1           0       13.622703    2.396188   -0.603207
     59          1           0      -13.616210   -0.535687   -1.047401
     60          1           0      -13.970592   -1.378653    0.550670
     61          1           0      -12.657792   -1.786269   -0.476984
     62          1           0      -10.943196   -0.343675    2.634709
     63          1           0      -11.272757   -1.761483    1.925008
     64          1           0      -12.723699   -1.115435    2.587305
     65          1           0       10.042513    2.010125    0.302555
     66          1           0      -10.319926   -1.529322   -0.297106
     67          1           0        9.680657   -0.806299    2.214877
     68          1           0       10.653465   -2.321629    2.717927
     69          1           0        9.290349   -2.208472    1.257529
     70          1           0       -9.108785    1.301900   -1.908600
     71          1           0       -9.364373    2.961322   -1.226097
     72          1           0      -10.437557    2.651018   -2.493600
     73          1           0        8.400031   -0.452867    0.229119
     74          1           0       -8.186053    0.732411    0.014377
     75          1           0        8.144943    2.825360    1.502603
     76          1           0        6.705918    3.260176    0.538352
     77          1           0        8.350159    3.143889   -0.054061
     78          1           0       -8.824546   -2.892364   -1.046183
     79          1           0       -8.140108   -3.291949    0.684509
     80          1           0       -6.997268   -3.195202   -0.974661
     81          1           0        6.144465   -0.418548   -0.283487
     82          1           0       -6.217695    0.228891    0.064399
     83          1           0        4.899717    2.260010    0.419383
     84          1           0       -5.059763   -2.800892   -0.705613
     85          1           0        3.670219   -0.353677   -0.280511
     86          1           0       -3.799227    0.025173    0.032087
     87          1           0        2.779266    2.826107    1.522921
     88          1           0        1.205628    3.149237    0.809432
     89          1           0        2.703708    3.297575   -0.166916
     90          1           0       -3.089479   -3.315821   -1.662822
     91          1           0       -3.076740   -3.679410    0.118605
     92          1           0       -1.708759   -3.800494   -0.994443
     93          1           0        0.318711    1.186104    0.246618
     94          1           0       -1.064980   -0.044255   -0.214214
     95          1           0        2.083029   -1.491975   -0.491024
     96          1           0       -0.077190   -2.643159   -0.692999
 ---------------------------------------------------------------------

 SCF Done:  E(RB3LYP) =  -1557.59102856     A.U. after   15 cycles

 Excitation energies and oscillator strengths:

 Excited State   1:      Singlet-A      2.1600 eV  574.00 nm  f=3.0807  <S**2>=0.000
     148 ->149         0.70790
     148 <-149        -0.11874
 This state for optimization and/or second-order correction.
 Total Energy, E(TD-HF/TD-DFT) =  -1557.51164933
 Copying the excited state density for this state as the 1-particle RhoCI density.

 The electronic state is 1-A.
 Alpha  occ. eigenvalues --  -10.20599 -10.20495 -10.20362 -10.20357 -10.20171
 Alpha  occ. eigenvalues --  -10.20116 -10.20083 -10.19955 -10.19922 -10.19846
 Alpha  occ. eigenvalues --  -10.19783 -10.19363 -10.19124 -10.18751 -10.18747
 Alpha  occ. eigenvalues --  -10.18719 -10.18712 -10.18670 -10.18651 -10.18613
 Alpha  occ. eigenvalues --  -10.18595 -10.18594 -10.18543 -10.18410 -10.18272
 Alpha  occ. eigenvalues --  -10.18168 -10.18144 -10.18073 -10.18040 -10.17954
 Alpha  occ. eigenvalues --  -10.17886 -10.17835 -10.17640 -10.17611 -10.17517
 Alpha  occ. eigenvalues --  -10.17482 -10.17324 -10.17113 -10.17098 -10.16746
 Alpha  occ. eigenvalues --   -0.85768  -0.84134  -0.83489  -0.83000  -0.82234
 Alpha  occ. eigenvalues --   -0.81251  -0.78949  -0.78781  -0.77670  -0.77426
 Alpha  occ. eigenvalues --   -0.76871  -0.75270  -0.74076  -0.72800  -0.71731
 Alpha  occ. eigenvalues --   -0.70715  -0.69794  -0.68007  -0.67811  -0.67433
 Alpha  occ. eigenvalues --   -0.67260  -0.67127  -0.66383  -0.66316  -0.65773
 Alpha  occ. eigenvalues --   -0.63116  -0.62123  -0.60464  -0.58659  -0.58333
 Alpha  occ. eigenvalues --   -0.57235  -0.55857  -0.54825  -0.54514  -0.53682
 Alpha  occ. eigenvalues --   -0.53050  -0.51589  -0.51191  -0.49510  -0.49284
 Alpha  occ. eigenvalues --   -0.48255  -0.47574  -0.47018  -0.46605  -0.46413
 Alpha  occ. eigenvalues --   -0.45646  -0.45393  -0.45269  -0.44540  -0.44425
 Alpha  occ. eigenvalues --   -0.43974  -0.43383  -0.43138  -0.42715  -0.42605
 Alpha  occ. eigenvalues --   -0.42571  -0.42029  -0.41849  -0.41366  -0.41119
 Alpha  occ. eigenvalues --   -0.40448  -0.40079  -0.39894  -0.39718  -0.39606
 Alpha  occ. eigenvalues --   -0.39444  -0.39125  -0.38760  -0.38346  -0.38302
 Alpha  occ. eigenvalues --   -0.37899  -0.37748  -0.37716  -0.37445  -0.37246
 Alpha  occ. eigenvalues --   -0.36395  -0.36230  -0.35599  -0.34703  -0.34522
 Alpha  occ. eigenvalues --   -0.34235  -0.34106  -0.33888  -0.33741  -0.33670
 Alpha  occ. eigenvalues --   -0.33551  -0.33440  -0.33132  -0.32880  -0.32579
 Alpha  occ. eigenvalues --   -0.32232  -0.32127  -0.31561  -0.31224  -0.30696
 Alpha  occ. eigenvalues --   -0.30487  -0.30318  -0.29824  -0.28500  -0.27974
 Alpha  occ. eigenvalues --   -0.27587  -0.26988  -0.26230  -0.24612  -0.23111
 Alpha  occ. eigenvalues --   -0.21382  -0.19586  -0.16273
 Alpha virt. eigenvalues --   -0.08392  -0.05009  -0.02111   0.00528   0.02898
 Alpha virt. eigenvalues --    0.04370   0.05936   0.06959   0.07187   0.07741
 Alpha virt. eigenvalues --    0.08184   0.08450   0.08556   0.08867   0.09093

 Mulliken charges:
               1
     1  C   -0.022982
     2  C    0.008282
     3  C   -0.163403
     4  C   -0.189912
     5  C   -0.191759
     6  C   -0.193908
     7  C    0.096803
     8  C    0.067056
     9  C   -0.210208
    10  C   -0.203272
    11  C    0.075993
    12  C    0.048863
    13  C   -0.301251
    14  C   -0.289697
    15  C   -0.301787
    16  C   -0.319208
    17  C   -0.138081
    18  C   -0.110161
    19  C   -0.387087
    20  C   -0.361543
    21  C   -0.021903
    22  C   -0.113192
    23  C    0.068372
    24  C    0.126921
    25  C   -0.365699
    26  C   -0.348230
    27  C   -0.148307
    28  C   -0.120568
    29  C   -0.078473
    30  C   -0.096556
    31  C   -0.080835
    32  C   -0.082648
    33  C    0.092321
    34  C    0.066013
    35  C   -0.391028
    36  C   -0.374878
    37  C   -0.125538
    38  C   -0.086895
    39  C   -0.083928
    40  C   -0.113318
    41  H    0.090352
    42  H    0.081720
    43  H    0.103594
    44  H    0.079003
    45  H    0.046727
    46  H    0.107539
    47  H    0.100211
    48  H    0.089268
    49  H    0.111554
    50  H    0.107933
    51  H    0.107290
    52  H    0.096466
    53  H    0.109632
    54  H    0.096587
    55  H    0.055091
    56  H    0.099868
    57  H    0.079852
    58  H    0.106492
    59  H    0.100647
    60  H    0.092455
    61  H    0.104486
    62  H    0.112481
    63  H    0.089863
    64  H    0.086417
    65  H    0.084225
    66  H    0.079857
    67  H    0.113950
    68  H    0.076876
    69  H    0.115432
    70  H    0.116570
    71  H    0.112205
    72  H    0.087740
    73  H    0.059649
    74  H    0.079792
    75  H    0.141094
    76  H    0.111337
    77  H    0.131392
    78  H    0.109473
    79  H    0.079340
    80  H    0.111660
    81  H    0.084544
    82  H    0.056674
    83  H    0.069251
    84  H    0.086694
    85  H    0.067117
    86  H    0.089872
    87  H    0.133959
    88  H    0.090458
    89  H    0.117439
    90  H    0.139526
    91  H    0.139417
    92  H    0.099310
    93  H    0.100620
    94  H    0.062980
    95  H    0.103187
    96  H    0.058468
 Sum of Mulliken charges =  -0.00000

 Dipole moment (field-independent basis, Debye):
    X=              0.0524    Y=              0.3745    Z=             -0.2072  Tot=              0.4312
 Quadrupole moment (field-independent basis, Debye-Ang):
   XX=           -239.3117   YY=           -235.5796   ZZ=           -254.5073
   XY=             -0.6734   XZ=             -0.2087   YZ=              3.5400

 Normal termination of Gaussian 16 at Thu Aug  1 14:59:42 2019.
