 Gaussian 16, Revision A.03,
 Gaussian 16:  ES64L-G16RevA.03 25-Dec-2016

 ---------------------------------
 # td=(NStates=1) B3LYP/6-31G(d,p)
 ---------------------------------

 --
 TD
 --
 Symbolic Z-matrix:
 Charge =  0 Multiplicity = 1

                         Standard orientation:
 ---------------------------------------------------------------------
 Center     Atomic      Atomic             Coordinates (Angstroms)
 Number     Number       Type             X           Y           Z
 ---------------------------------------------------------------------
      1          6           0       12.209010    0.548033   -0.652274
      2          6           0      -12.083904   -0.066382    0.925221
      3          6           0       13.452829   -0.445966   -0.510035
      4          6           0      -12.991599    0.986085    1.445739
      5          6           0       13.089002   -1.976199   -0.457089
      6          6           0      -13.317886    2.003461    0.198683
      7          6           0       11.005939   -0.060326    0.298119
      8          6           0      -10.970340    0.412979   -0.032345
      9          6           0       12.218116   -2.215272    0.880018
     10          6           0      -12.103095    2.509440   -0.455886
     11          6           0       11.062160   -1.220217    1.001205
     12          6           0      -10.956346    1.594507   -0.605194
     13          6           0       11.629924    0.536178   -2.134191
     14          6           0       12.688829    1.895669   -0.224768
     15          6           0      -13.007834   -1.136495    0.179294
     16          6           0      -11.579862   -0.682068    2.145367
     17          6           0        9.804608    0.863934    0.368517
     18          6           0       -9.914775   -0.635523   -0.160022
     19          6           0       10.092175   -1.644236    2.004247
     20          6           0       -9.897556    2.060097   -1.690402
     21          6           0        8.513524    0.451508    0.345525
     22          6           0       -8.552855   -0.398945   -0.221282
     23          6           0        7.369617    1.379015    0.395189
     24          6           0       -7.494672   -1.351171   -0.437706
     25          6           0        7.566326    2.934487    0.573214
     26          6           0       -7.883826   -2.792978   -0.599434
     27          6           0        6.111956    0.754684    0.292667
     28          6           0       -6.249098   -0.799506   -0.408621
     29          6           0        4.864661    1.454552    0.340942
     30          6           0       -5.025514   -1.549954   -0.457106
     31          6           0        3.717401    0.754339    0.168618
     32          6           0       -3.807625   -1.001687   -0.440405
     33          6           0        2.346631    1.303553    0.124400
     34          6           0       -2.504743   -1.658794   -0.606587
     35          6           0        2.273984    2.809180    0.386570
     36          6           0       -2.455942   -3.226944   -0.781585
     37          6           0        1.233570    0.568904   -0.074636
     38          6           0       -1.313485   -0.946850   -0.491893
     39          6           0        1.136111   -0.770095   -0.244320
     40          6           0        0.000855   -1.485897   -0.505747
     41          1           0       13.977980   -0.258648    0.477416
     42          1           0       14.243658   -0.204817   -1.306518
     43          1           0      -12.449384    1.769099    2.147336
     44          1           0      -13.997546    0.723275    1.927932
     45          1           0       14.027926   -2.475337   -0.433885
     46          1           0       12.525663   -2.177780   -1.316362
     47          1           0      -14.093835    2.801173    0.734083
     48          1           0      -13.907509    1.489935   -0.634961
     49          1           0       12.827115   -2.138923    1.832422
     50          1           0       11.718242   -3.215111    0.801056
     51          1           0      -11.759854    3.355138    0.318472
     52          1           0      -12.371271    3.011946   -1.428783
     53          1           0       11.609745   -0.562510   -2.268007
     54          1           0       12.336575    0.932776   -2.670004
     55          1           0       10.651441    0.960301   -2.274308
     56          1           0       12.891518    1.911165    0.869746
     57          1           0       11.789227    2.543893   -0.250644
     58          1           0       13.428593    2.099189   -0.871257
     59          1           0      -13.441672   -0.828793   -0.662477
     60          1           0      -13.868599   -1.471322    0.862237
     61          1           0      -12.499873   -2.062710   -0.169960
     62          1           0      -10.648635   -0.172216    2.571838
     63          1           0      -11.114446   -1.576269    2.020878
     64          1           0      -12.299143   -0.826401    2.920225
     65          1           0        9.972145    1.943967    0.307256
     66          1           0      -10.254972   -1.665915   -0.205660
     67          1           0        9.441397   -0.878975    2.383304
     68          1           0       10.634904   -2.108067    2.820261
     69          1           0        9.315534   -2.472810    1.653274
     70          1           0       -9.578872    1.134062   -2.198414
     71          1           0       -8.827028    2.655686   -1.122515
     72          1           0      -10.443386    2.791500   -2.272127
     73          1           0        8.307313   -0.536417    0.055543
     74          1           0       -8.351180    0.730170   -0.024829
     75          1           0        8.344999    2.983580    1.320358
     76          1           0        6.702149    3.512702    0.750978
     77          1           0        7.990315    3.464334   -0.411109
     78          1           0       -8.753514   -2.898632   -1.378245
     79          1           0       -8.410424   -2.920695    0.374836
     80          1           0       -6.955863   -3.354643   -0.733879
     81          1           0        6.148730   -0.374424    0.141852
     82          1           0       -6.196611    0.211296   -0.271928
     83          1           0        4.873949    2.546818    0.314067
     84          1           0       -4.970776   -2.586279   -0.762258
     85          1           0        4.002285   -0.476327    0.036551
     86          1           0       -3.744974   -0.007733   -0.386653
     87          1           0        2.991408    3.331427    1.183631
     88          1           0        1.194056    2.911362    0.623287
     89          1           0        2.534294    3.493934   -0.511414
     90          1           0       -3.304678   -3.578623   -1.602467
     91          1           0       -3.040369   -3.665895    0.154407
     92          1           0       -1.404904   -3.615443   -0.938009
     93          1           0        0.227517    1.141107   -0.229520
     94          1           0       -1.621354    0.165380   -0.438478
     95          1           0        1.867856   -1.427972   -0.189228
     96          1           0        0.076502   -2.606134   -0.931386
 ---------------------------------------------------------------------

 SCF Done:  E(RB3LYP) =  -1557.63537888     A.U. after   15 cycles

 Excitation energies and oscillator strengths:

 Excited State   1:      Singlet-A      2.2101 eV  560.98 nm  f=3.0776  <S**2>=0.000
     148 ->149         0.70709
 This state for optimization and/or second-order correction.
 Total Energy, E(TD-HF/TD-DFT) =  -1557.55415800
 Copying the excited state density for this state as the 1-particle RhoCI density.

 The electronic state is 1-A.
 Alpha  occ. eigenvalues --  -10.20975 -10.20600 -10.20580 -10.20574 -10.20330
 Alpha  occ. eigenvalues --  -10.20233 -10.20172 -10.20034 -10.20015 -10.19776
 Alpha  occ. eigenvalues --  -10.19609 -10.19593 -10.19462 -10.19387 -10.19303
 Alpha  occ. eigenvalues --  -10.19275 -10.19087 -10.19033 -10.18949 -10.18926
 Alpha  occ. eigenvalues --  -10.18918 -10.18896 -10.18889 -10.18713 -10.18611
 Alpha  occ. eigenvalues --  -10.18562 -10.18542 -10.18473 -10.18400 -10.18375
 Alpha  occ. eigenvalues --  -10.18180 -10.18148 -10.17834 -10.17693 -10.17505
 Alpha  occ. eigenvalues --  -10.17327 -10.16928 -10.16370 -10.15849 -10.15357
 Alpha  occ. eigenvalues --   -0.85513  -0.83894  -0.83496  -0.83314  -0.81851
 Alpha  occ. eigenvalues --   -0.81014  -0.79235  -0.79084  -0.78636  -0.77146
 Alpha  occ. eigenvalues --   -0.76193  -0.74930  -0.74054  -0.71893  -0.71212
 Alpha  occ. eigenvalues --   -0.69771  -0.69093  -0.68732  -0.68445  -0.68233
 Alpha  occ. eigenvalues --   -0.67358  -0.66626  -0.66429  -0.66240  -0.65982
 Alpha  occ. eigenvalues --   -0.62619  -0.61418  -0.59429  -0.58865  -0.57171
 Alpha  occ. eigenvalues --   -0.56484  -0.55802  -0.54617  -0.54174  -0.52715
 Alpha  occ. eigenvalues --   -0.52587  -0.52037  -0.50198  -0.49628  -0.48620
 Alpha  occ. eigenvalues --   -0.48171  -0.47914  -0.47415  -0.46441  -0.46216
 Alpha  occ. eigenvalues --   -0.45357  -0.45136  -0.44609  -0.44381  -0.43958
 Alpha  occ. eigenvalues --   -0.43417  -0.42919  -0.42298  -0.41991  -0.41834
 Alpha  occ. eigenvalues --   -0.41721  -0.41689  -0.41116  -0.40659  -0.40628
 Alpha  occ. eigenvalues --   -0.40406  -0.40023  -0.39928  -0.39819  -0.39127
 Alpha  occ. eigenvalues --   -0.38998  -0.38920  -0.38822  -0.38673  -0.38383
 Alpha  occ. eigenvalues --   -0.38112  -0.37802  -0.37406  -0.37168  -0.36938
 Alpha  occ. eigenvalues --   -0.36676  -0.36477  -0.36328  -0.35759  -0.35385
 Alpha  occ. eigenvalues --   -0.35264  -0.34934  -0.34685  -0.34108  -0.34066
 Alpha  occ. eigenvalues --   -0.33547  -0.33517  -0.33246  -0.32778  -0.32580
 Alpha  occ. eigenvalues --   -0.32494  -0.31959  -0.31716  -0.31362  -0.31066
 Alpha  occ. eigenvalues --   -0.30424  -0.29970  -0.29443  -0.28997  -0.28357
 Alpha  occ. eigenvalues --   -0.27617  -0.27474  -0.26617  -0.24345  -0.23154
 Alpha  occ. eigenvalues --   -0.21131  -0.18932  -0.16465
 Alpha virt. eigenvalues --   -0.08115  -0.04857  -0.01930   0.01012   0.02741
 Alpha virt. eigenvalues --    0.04115   0.06020   0.06446   0.06913   0.07034
 Alpha virt. eigenvalues --    0.07153   0.07934   0.08200   0.08368   0.08880

 Mulliken charges:
               1
     1  C   -0.021444
     2  C    0.017410
     3  C   -0.186986
     4  C   -0.174913
     5  C   -0.192200
     6  C   -0.193822
     7  C    0.052162
     8  C    0.080869
     9  C   -0.228994
    10  C   -0.206735
    11  C    0.070446
    12  C    0.058896
    13  C   -0.292038
    14  C   -0.282754
    15  C   -0.304934
    16  C   -0.289944
    17  C   -0.153190
    18  C   -0.161294
    19  C   -0.361701
    20  C   -0.327178
    21  C   -0.085896
    22  C   -0.099294
    23  C    0.095054
    24  C    0.120470
    25  C   -0.365664
    26  C   -0.367608
    27  C   -0.132692
    28  C   -0.107629
    29  C   -0.057020
    30  C   -0.077884
    31  C   -0.103478
    32  C   -0.097543
    33  C    0.108257
    34  C    0.108791
    35  C   -0.373029
    36  C   -0.364140
    37  C   -0.119455
    38  C   -0.095164
    39  C   -0.020364
    40  C   -0.148647
    41  H    0.085969
    42  H    0.069268
    43  H    0.080106
    44  H    0.093291
    45  H    0.097520
    46  H    0.109071
    47  H    0.060605
    48  H    0.084086
    49  H    0.103015
    50  H    0.100553
    51  H    0.086213
    52  H    0.096024
    53  H    0.098072
    54  H    0.103840
    55  H    0.112084
    56  H    0.101833
    57  H    0.089304
    58  H    0.108750
    59  H    0.115221
    60  H    0.084301
    61  H    0.089804
    62  H    0.089158
    63  H    0.095296
    64  H    0.100758
    65  H    0.078850
    66  H    0.077835
    67  H    0.124551
    68  H    0.103910
    69  H    0.087008
    70  H    0.135725
    71  H    0.059516
    72  H    0.107845
    73  H    0.089652
    74  H    0.079227
    75  H    0.129027
    76  H    0.118165
    77  H    0.100110
    78  H    0.117628
    79  H    0.132143
    80  H    0.114572
    81  H    0.076735
    82  H    0.078234
    83  H    0.083530
    84  H    0.065826
    85  H    0.057986
    86  H    0.060814
    87  H    0.106686
    88  H    0.111012
    89  H    0.110615
    90  H    0.093309
    91  H    0.112567
    92  H    0.109512
    93  H    0.076616
    94  H    0.075969
    95  H    0.071524
    96  H    0.080435
 Sum of Mulliken charges =  -0.00000

 Dipole moment (field-independent basis, Debye):
    X=              0.4819    Y=              0.0059    Z=             -0.4516  Tot=              0.6605
 Quadrupole moment (field-independent basis, Debye-Ang):
   XX=           -223.0480   YY=           -236.7343   ZZ=           -255.9272
   XY=              3.9607   XZ=              1.6027   YZ=              0.8235

 Normal termination of Gaussian 16 at Thu Aug  1 04:32:19 2019.
