 Gaussian 16, Revision A.03,
 Gaussian 16:  ES64L-G16RevA.03 25-Dec-2016

 ---------------------------------
 # td=(NStates=1) B3LYP/6-31G(d,p)
 ---------------------------------

 --
 TD
 --
 Symbolic Z-matrix:
 Charge =  0 Multiplicity = 1

                         Standard orientation:
 ---------------------------------------------------------------------
 Center     Atomic      Atomic             Coordinates (Angstroms)
 Number     Number       Type             X           Y           Z
 ---------------------------------------------------------------------
      1          6           0      -12.203509    0.629871    0.617328
      2          6           0       11.991417   -0.092853   -0.898028
      3          6           0      -13.498813   -0.213463    0.687736
      4          6           0       12.832418    1.267132   -1.323740
      5          6           0      -13.272325   -1.769027    0.712588
      6          6           0       13.312771    2.047756   -0.093517
      7          6           0      -11.023297   -0.047319   -0.218538
      8          6           0       10.987927    0.434921    0.122909
      9          6           0      -12.436773   -2.077484   -0.563043
     10          6           0       12.008982    2.657161    0.637846
     11          6           0      -11.245501   -1.314609   -0.738661
     12          6           0       11.031954    1.596892    0.842080
     13          6           0      -11.779577    0.733004    2.152899
     14          6           0      -12.679295    2.128846    0.168445
     15          6           0       13.071396   -1.050865   -0.193093
     16          6           0       11.478838   -0.619484   -2.112499
     17          6           0       -9.842286    0.803496   -0.299408
     18          6           0        9.967064   -0.574740    0.344717
     19          6           0      -10.161063   -2.009862   -1.655740
     20          6           0       10.120672    1.939858    1.995441
     21          6           0       -8.470915    0.406763   -0.219684
     22          6           0        8.650777   -0.325107    0.149809
     23          6           0       -7.370293    1.268090   -0.465436
     24          6           0        7.513840   -1.296183    0.366031
     25          6           0       -7.665322    2.728360   -0.863133
     26          6           0        7.930632   -2.675518    0.612253
     27          6           0       -6.139602    0.707472   -0.267062
     28          6           0        6.274625   -0.893675    0.276180
     29          6           0       -4.840881    1.406890   -0.534983
     30          6           0        5.098657   -1.716823    0.290378
     31          6           0       -3.698902    0.674803   -0.239773
     32          6           0        3.856406   -1.188495    0.123116
     33          6           0       -2.324338    1.252444   -0.343145
     34          6           0        2.643364   -1.786061    0.273909
     35          6           0       -2.218314    2.742738   -0.551668
     36          6           0        2.646562   -3.302079    0.676211
     37          6           0       -1.125680    0.506967   -0.143577
     38          6           0        1.470508   -1.125738    0.132692
     39          6           0       -1.079981   -0.898733    0.157402
     40          6           0        0.096926   -1.579381    0.319546
     41          1           0      -14.043090    0.124007   -0.345222
     42          1           0      -14.155749    0.174441    1.457992
     43          1           0       12.335022    1.968808   -1.943240
     44          1           0       13.703855    0.821243   -1.764284
     45          1           0      -14.391276   -2.305382    0.706030
     46          1           0      -12.950831   -1.827353    1.767428
     47          1           0       14.040123    3.024808   -0.218759
     48          1           0       13.799293    1.346743    0.670363
     49          1           0      -13.045111   -1.979259   -1.540786
     50          1           0      -12.195074   -3.190548   -0.542187
     51          1           0       11.602013    3.424565    0.032898
     52          1           0       12.644997    3.277254    1.510757
     53          1           0      -11.565378   -0.076477    2.545869
     54          1           0      -12.425244    1.137490    2.699879
     55          1           0      -10.768518    1.349796    1.944920
     56          1           0      -13.066282    2.073241   -0.926867
     57          1           0      -12.014771    2.994377    0.426202
     58          1           0      -13.543893    2.329778    0.825974
     59          1           0       13.512463   -0.584382    0.582646
     60          1           0       13.924621   -1.227785   -0.744149
     61          1           0       12.643690   -2.032958    0.136650
     62          1           0       10.569918    0.029377   -2.365145
     63          1           0       10.993740   -1.403224   -1.703954
     64          1           0       12.152283   -0.910813   -2.819265
     65          1           0       -9.893583    1.945489   -0.278244
     66          1           0       10.169436   -1.595501    0.467895
     67          1           0       -9.259214   -1.314645   -1.904744
     68          1           0      -10.575935   -2.267669   -2.604974
     69          1           0       -9.540300   -2.830501   -1.142270
     70          1           0        9.521774    1.215974    2.297066
     71          1           0        9.478843    2.907598    1.660405
     72          1           0       10.853625    2.376092    2.881775
     73          1           0       -8.436807   -0.687473    0.033243
     74          1           0        8.600016    0.740619   -0.168704
     75          1           0       -7.907888    2.738504   -1.891577
     76          1           0       -6.698687    3.306035   -0.900319
     77          1           0       -8.235274    3.434431   -0.320202
     78          1           0        8.216333   -2.755963    1.751455
     79          1           0        8.874991   -2.962893   -0.243076
     80          1           0        7.069742   -3.356828    0.436526
     81          1           0       -5.956281   -0.214529    0.153215
     82          1           0        5.744727    0.124861    0.072796
     83          1           0       -5.005145    2.430664   -1.018189
     84          1           0        5.220030   -2.585485    0.802688
     85          1           0       -3.887544   -0.330771    0.392561
     86          1           0        3.776446   -0.171326   -0.523877
     87          1           0       -2.674220    2.992303   -1.684847
     88          1           0       -1.063042    2.902760   -0.727376
     89          1           0       -2.809750    3.534284    0.051383
     90          1           0        3.414389   -3.430923    1.561373
     91          1           0        2.986367   -3.990255   -0.159973
     92          1           0        1.692376   -3.860340    0.995428
     93          1           0       -0.158663    1.173230   -0.175748
     94          1           0        1.496780   -0.048894   -0.280564
     95          1           0       -2.081702   -1.425567    0.080928
     96          1           0       -0.143050   -2.786810    0.383468
 ---------------------------------------------------------------------

 SCF Done:  E(RB3LYP) =  -1557.49170751     A.U. after   15 cycles

 Excitation energies and oscillator strengths:

 Excited State   1:      Singlet-A      2.1820 eV  568.21 nm  f=2.7896  <S**2>=0.000
     148 ->149         0.70600
 This state for optimization and/or second-order correction.
 Total Energy, E(TD-HF/TD-DFT) =  -1557.41151971
 Copying the excited state density for this state as the 1-particle RhoCI density.

 The electronic state is 1-A.
 Alpha  occ. eigenvalues --  -10.21260 -10.21084 -10.21059 -10.20918 -10.20626
 Alpha  occ. eigenvalues --  -10.20579 -10.20424 -10.20410 -10.20243 -10.20204
 Alpha  occ. eigenvalues --  -10.20096 -10.19994 -10.19983 -10.19961 -10.19953
 Alpha  occ. eigenvalues --  -10.19902 -10.19874 -10.19726 -10.19577 -10.19372
 Alpha  occ. eigenvalues --  -10.19354 -10.19240 -10.19053 -10.19007 -10.18847
 Alpha  occ. eigenvalues --  -10.18732 -10.18720 -10.18690 -10.18522 -10.18514
 Alpha  occ. eigenvalues --  -10.18456 -10.18436 -10.18247 -10.18171 -10.17869
 Alpha  occ. eigenvalues --  -10.17250 -10.16630 -10.16284 -10.15280 -10.14373
 Alpha  occ. eigenvalues --   -0.85356  -0.84146  -0.84048  -0.82785  -0.82296
 Alpha  occ. eigenvalues --   -0.81168  -0.79421  -0.78534  -0.77971  -0.77310
 Alpha  occ. eigenvalues --   -0.76173  -0.74744  -0.73732  -0.72186  -0.71355
 Alpha  occ. eigenvalues --   -0.70012  -0.69484  -0.68827  -0.68406  -0.67467
 Alpha  occ. eigenvalues --   -0.67376  -0.66922  -0.66442  -0.66296  -0.65654
 Alpha  occ. eigenvalues --   -0.62393  -0.61558  -0.58987  -0.58625  -0.56683
 Alpha  occ. eigenvalues --   -0.56556  -0.55722  -0.54683  -0.53862  -0.53466
 Alpha  occ. eigenvalues --   -0.52828  -0.51693  -0.50957  -0.49944  -0.48698
 Alpha  occ. eigenvalues --   -0.48148  -0.46896  -0.46836  -0.46266  -0.46170
 Alpha  occ. eigenvalues --   -0.45329  -0.44635  -0.44463  -0.43923  -0.43721
 Alpha  occ. eigenvalues --   -0.43375  -0.43352  -0.42911  -0.42370  -0.42044
 Alpha  occ. eigenvalues --   -0.41791  -0.41678  -0.41642  -0.41333  -0.41262
 Alpha  occ. eigenvalues --   -0.40727  -0.40193  -0.39943  -0.39665  -0.39158
 Alpha  occ. eigenvalues --   -0.39090  -0.39004  -0.38137  -0.37979  -0.37815
 Alpha  occ. eigenvalues --   -0.37671  -0.37322  -0.37280  -0.36588  -0.36514
 Alpha  occ. eigenvalues --   -0.36340  -0.36153  -0.35824  -0.35333  -0.35250
 Alpha  occ. eigenvalues --   -0.34946  -0.34849  -0.34495  -0.34470  -0.33888
 Alpha  occ. eigenvalues --   -0.33776  -0.33396  -0.33002  -0.32791  -0.32387
 Alpha  occ. eigenvalues --   -0.32208  -0.31954  -0.31557  -0.31324  -0.31148
 Alpha  occ. eigenvalues --   -0.30117  -0.29306  -0.28913  -0.28181  -0.27898
 Alpha  occ. eigenvalues --   -0.27272  -0.26534  -0.25851  -0.24474  -0.22939
 Alpha  occ. eigenvalues --   -0.21098  -0.18828  -0.16745
 Alpha virt. eigenvalues --   -0.08340  -0.05512  -0.02097   0.00086   0.02057
 Alpha virt. eigenvalues --    0.03485   0.05006   0.05638   0.06074   0.06990
 Alpha virt. eigenvalues --    0.07168   0.07518   0.07631   0.08183   0.08459

 Mulliken charges:
               1
     1  C   -0.021535
     2  C   -0.025284
     3  C   -0.176612
     4  C   -0.171181
     5  C   -0.176731
     6  C   -0.189651
     7  C    0.087985
     8  C    0.058640
     9  C   -0.224161
    10  C   -0.223784
    11  C    0.068865
    12  C    0.086868
    13  C   -0.265396
    14  C   -0.306687
    15  C   -0.319573
    16  C   -0.267277
    17  C   -0.144912
    18  C   -0.147189
    19  C   -0.372211
    20  C   -0.322113
    21  C   -0.105177
    22  C   -0.081670
    23  C    0.101281
    24  C    0.097028
    25  C   -0.389190
    26  C   -0.364323
    27  C   -0.103804
    28  C   -0.088407
    29  C   -0.064106
    30  C   -0.079310
    31  C   -0.136534
    32  C   -0.136620
    33  C    0.105569
    34  C    0.168444
    35  C   -0.356011
    36  C   -0.373130
    37  C   -0.113423
    38  C   -0.136291
    39  C   -0.087694
    40  C   -0.088699
    41  H    0.048295
    42  H    0.085350
    43  H    0.094735
    44  H    0.080951
    45  H    0.067238
    46  H    0.110829
    47  H    0.055565
    48  H    0.091269
    49  H    0.113927
    50  H    0.101802
    51  H    0.117423
    52  H    0.072861
    53  H    0.104139
    54  H    0.097764
    55  H    0.073504
    56  H    0.097586
    57  H    0.095519
    58  H    0.100790
    59  H    0.115997
    60  H    0.106155
    61  H    0.093060
    62  H    0.095368
    63  H    0.101014
    64  H    0.107937
    65  H    0.083178
    66  H    0.076376
    67  H    0.108379
    68  H    0.114996
    69  H    0.106069
    70  H    0.121927
    71  H    0.087323
    72  H    0.085431
    73  H    0.084417
    74  H    0.075257
    75  H    0.141524
    76  H    0.092453
    77  H    0.137373
    78  H    0.120797
    79  H    0.087937
    80  H    0.114680
    81  H    0.077489
    82  H    0.076285
    83  H    0.089242
    84  H    0.077613
    85  H    0.086064
    86  H    0.068763
    87  H    0.082252
    88  H    0.096540
    89  H    0.125844
    90  H    0.101367
    91  H    0.117537
    92  H    0.105776
    93  H    0.078836
    94  H    0.075074
    95  H    0.095328
    96  H    0.062801
 Sum of Mulliken charges =  -0.00000

 Dipole moment (field-independent basis, Debye):
    X=             -0.7969    Y=             -0.2724    Z=             -0.1417  Tot=              0.8540
 Quadrupole moment (field-independent basis, Debye-Ang):
   XX=           -230.7754   YY=           -235.1678   ZZ=           -255.0730
   XY=             -6.4275   XZ=             -1.3688   YZ=             -3.5849

 Normal termination of Gaussian 16 at Thu Aug  1 15:23:38 2019.
