 Gaussian 16, Revision A.03,
 Gaussian 16:  ES64L-G16RevA.03 25-Dec-2016

 ---------------------------------
 # td=(NStates=1) B3LYP/6-31G(d,p)
 ---------------------------------

 --
 TD
 --
 Symbolic Z-matrix:
 Charge =  0 Multiplicity = 1

                         Standard orientation:
 ---------------------------------------------------------------------
 Center     Atomic      Atomic             Coordinates (Angstroms)
 Number     Number       Type             X           Y           Z
 ---------------------------------------------------------------------
      1          6           0      -12.115787   -0.669591   -0.644703
      2          6           0       12.157495   -0.014394    0.848463
      3          6           0      -13.452894    0.259187   -0.554008
      4          6           0       12.958837   -1.315763    1.346790
      5          6           0      -13.144776    1.782075   -0.370469
      6          6           0       13.237758   -2.308767    0.210826
      7          6           0      -11.106145   -0.120498    0.244991
      8          6           0       10.906411   -0.429528   -0.042208
      9          6           0      -12.288115    2.018879    0.868982
     10          6           0       11.886499   -2.808208   -0.436263
     11          6           0      -11.162675    1.018814    0.918718
     12          6           0       10.804484   -1.736599   -0.599878
     13          6           0      -11.607335   -0.544385   -2.131242
     14          6           0      -12.425227   -2.084569   -0.358507
     15          6           0       13.162787    0.841142    0.031718
     16          6           0       11.713971    0.690772    2.172397
     17          6           0       -9.716877   -0.963739    0.388663
     18          6           0        9.898438    0.611927   -0.258227
     19          6           0      -10.296045    1.478830    2.053321
     20          6           0        9.758818   -2.016426   -1.641463
     21          6           0       -8.510876   -0.453029    0.329722
     22          6           0        8.566448    0.344848   -0.294170
     23          6           0       -7.338652   -1.287215    0.352251
     24          6           0        7.583663    1.372561   -0.423968
     25          6           0       -7.444373   -2.743376    0.531287
     26          6           0        7.922757    2.911383   -0.731464
     27          6           0       -6.120873   -0.661273    0.293480
     28          6           0        6.283068    1.007130   -0.205061
     29          6           0       -4.847774   -1.235508    0.313617
     30          6           0        4.997363    1.704326   -0.355836
     31          6           0       -3.737662   -0.522173    0.118313
     32          6           0        3.766204    1.133927   -0.230317
     33          6           0       -2.472937   -1.102232    0.159639
     34          6           0        2.499007    1.873094   -0.334715
     35          6           0       -2.256296   -2.560118    0.481878
     36          6           0        2.690182    3.431013   -0.585484
     37          6           0       -1.208542   -0.500845   -0.060724
     38          6           0        1.341556    1.227946   -0.367970
     39          6           0       -1.142530    1.068917   -0.403328
     40          6           0       -0.024519    1.710104   -0.580151
     41          1           0      -14.306310   -0.230854    0.158406
     42          1           0      -14.065273    0.231643   -1.488977
     43          1           0       12.478074   -1.576498    2.151643
     44          1           0       13.974650   -1.151974    1.948272
     45          1           0      -14.099792    2.271371   -0.420625
     46          1           0      -12.666197    2.076285   -1.393090
     47          1           0       13.954252   -3.056722    0.464011
     48          1           0       13.930395   -1.883563   -0.645136
     49          1           0      -12.756645    1.939181    1.911790
     50          1           0      -11.771168    3.111796    0.914272
     51          1           0       11.408717   -3.481017   -0.060722
     52          1           0       12.167060   -3.176959   -1.407351
     53          1           0      -11.463131    0.464346   -2.543082
     54          1           0      -12.174451   -1.072546   -2.908361
     55          1           0      -10.638529   -0.921328   -2.296490
     56          1           0      -12.832380   -1.990573    0.686060
     57          1           0      -11.635588   -2.897576   -0.517348
     58          1           0      -13.253660   -2.594327   -0.950644
     59          1           0       13.231718    0.358535   -0.925726
     60          1           0       13.982842    1.118700    0.634216
     61          1           0       12.592064    1.840263   -0.227267
     62          1           0       10.920829    0.124308    2.594010
     63          1           0       11.318173    1.675409    1.741691
     64          1           0       12.485244    0.493865    2.720115
     65          1           0       -9.914658   -1.949975    0.654303
     66          1           0       10.222424    1.678069   -0.061831
     67          1           0       -9.600557    0.732412    2.771991
     68          1           0      -10.823211    2.119640    2.757925
     69          1           0       -9.538750    2.307722    1.719170
     70          1           0        9.038668   -1.185198   -1.920772
     71          1           0        9.070802   -2.914745   -1.291303
     72          1           0        9.999554   -2.407825   -2.549848
     73          1           0       -8.436441    0.545601   -0.016512
     74          1           0        8.104309   -0.550963    0.189058
     75          1           0       -8.369581   -3.061100    1.271979
     76          1           0       -6.489376   -3.408677    0.896508
     77          1           0       -7.587622   -3.343578   -0.408121
     78          1           0        8.633374    2.886953   -1.762633
     79          1           0        8.435449    3.232681    0.181154
     80          1           0        7.184918    3.538442   -0.797710
     81          1           0       -6.215841    0.434771    0.056625
     82          1           0        6.205402   -0.057309    0.051455
     83          1           0       -4.778494   -2.350953    0.452192
     84          1           0        4.999517    2.701491   -0.815016
     85          1           0       -3.884077    0.713149    0.142360
     86          1           0        3.708048    0.044541    0.096386
     87          1           0       -2.442862   -2.761061    1.478886
     88          1           0       -1.326781   -2.935728    0.166279
     89          1           0       -2.664336   -3.323927   -0.298106
     90          1           0        3.102810    3.347200   -1.651134
     91          1           0        3.501836    3.808761    0.176984
     92          1           0        1.877621    4.151633   -0.442662
     93          1           0       -0.304318   -0.881400   -0.036071
     94          1           0        1.427187    0.245743   -0.248229
     95          1           0       -2.033598    1.740111   -0.439272
     96          1           0       -0.171343    2.779921   -0.793089
 ---------------------------------------------------------------------

 SCF Done:  E(RB3LYP) =  -1557.52267494     A.U. after   14 cycles

 Excitation energies and oscillator strengths:

 Excited State   1:      Singlet-A      2.4050 eV  515.53 nm  f=2.1045  <S**2>=0.000
     148 ->149         0.70494
 This state for optimization and/or second-order correction.
 Total Energy, E(TD-HF/TD-DFT) =  -1557.43429389
 Copying the excited state density for this state as the 1-particle RhoCI density.

 The electronic state is 1-A.
 Alpha  occ. eigenvalues --  -10.20703 -10.20495 -10.20104 -10.19910 -10.19841
 Alpha  occ. eigenvalues --  -10.19840 -10.19839 -10.19743 -10.19666 -10.19585
 Alpha  occ. eigenvalues --  -10.19573 -10.19533 -10.19228 -10.19226 -10.19101
 Alpha  occ. eigenvalues --  -10.19082 -10.19052 -10.19015 -10.18899 -10.18786
 Alpha  occ. eigenvalues --  -10.18756 -10.18742 -10.18694 -10.18605 -10.18536
 Alpha  occ. eigenvalues --  -10.18401 -10.18378 -10.18370 -10.18358 -10.18034
 Alpha  occ. eigenvalues --  -10.17756 -10.17741 -10.17519 -10.17422 -10.17416
 Alpha  occ. eigenvalues --  -10.17135 -10.17028 -10.16720 -10.16341 -10.15876
 Alpha  occ. eigenvalues --   -0.85111  -0.83848  -0.83692  -0.82672  -0.81941
 Alpha  occ. eigenvalues --   -0.81292  -0.78856  -0.78644  -0.78329  -0.77163
 Alpha  occ. eigenvalues --   -0.76263  -0.74909  -0.73728  -0.72238  -0.71579
 Alpha  occ. eigenvalues --   -0.69016  -0.68778  -0.68339  -0.68241  -0.68148
 Alpha  occ. eigenvalues --   -0.68138  -0.68076  -0.67097  -0.66204  -0.65541
 Alpha  occ. eigenvalues --   -0.62833  -0.61976  -0.60136  -0.58867  -0.57439
 Alpha  occ. eigenvalues --   -0.56861  -0.55920  -0.55171  -0.53138  -0.52747
 Alpha  occ. eigenvalues --   -0.52327  -0.51864  -0.50977  -0.49591  -0.48569
 Alpha  occ. eigenvalues --   -0.47298  -0.46925  -0.46623  -0.46404  -0.45960
 Alpha  occ. eigenvalues --   -0.45705  -0.45042  -0.44939  -0.44537  -0.44266
 Alpha  occ. eigenvalues --   -0.43829  -0.43362  -0.43177  -0.42930  -0.42595
 Alpha  occ. eigenvalues --   -0.41915  -0.41472  -0.41403  -0.41107  -0.40838
 Alpha  occ. eigenvalues --   -0.40647  -0.40407  -0.40161  -0.40126  -0.39513
 Alpha  occ. eigenvalues --   -0.39053  -0.38941  -0.38621  -0.38439  -0.37493
 Alpha  occ. eigenvalues --   -0.37437  -0.37093  -0.36644  -0.36495  -0.36124
 Alpha  occ. eigenvalues --   -0.35710  -0.35461  -0.35238  -0.35138  -0.34834
 Alpha  occ. eigenvalues --   -0.34527  -0.34362  -0.34285  -0.33921  -0.33663
 Alpha  occ. eigenvalues --   -0.33628  -0.33184  -0.32864  -0.32670  -0.32402
 Alpha  occ. eigenvalues --   -0.32325  -0.31622  -0.31440  -0.31235  -0.30822
 Alpha  occ. eigenvalues --   -0.30338  -0.29887  -0.29742  -0.29110  -0.27951
 Alpha  occ. eigenvalues --   -0.27824  -0.27194  -0.26106  -0.24320  -0.22721
 Alpha  occ. eigenvalues --   -0.21402  -0.18411  -0.16764
 Alpha virt. eigenvalues --   -0.07167  -0.05464  -0.01270   0.00988   0.02968
 Alpha virt. eigenvalues --    0.04390   0.05887   0.06476   0.07640   0.07842
 Alpha virt. eigenvalues --    0.08133   0.08294   0.08817   0.09167   0.09357

 Mulliken charges:
               1
     1  C    0.018407
     2  C   -0.039460
     3  C   -0.188490
     4  C   -0.170515
     5  C   -0.194024
     6  C   -0.196109
     7  C    0.057005
     8  C    0.071518
     9  C   -0.214458
    10  C   -0.187987
    11  C    0.096166
    12  C    0.034975
    13  C   -0.318695
    14  C   -0.309545
    15  C   -0.275386
    16  C   -0.294302
    17  C   -0.137260
    18  C   -0.143446
    19  C   -0.356476
    20  C   -0.366505
    21  C   -0.062842
    22  C   -0.122062
    23  C    0.149366
    24  C    0.118064
    25  C   -0.385186
    26  C   -0.344475
    27  C   -0.133466
    28  C   -0.146085
    29  C   -0.061178
    30  C   -0.086252
    31  C   -0.096469
    32  C   -0.114394
    33  C    0.102754
    34  C    0.107557
    35  C   -0.372527
    36  C   -0.370199
    37  C   -0.119674
    38  C   -0.099659
    39  C   -0.088479
    40  C   -0.091424
    41  H    0.063432
    42  H    0.090940
    43  H    0.104081
    44  H    0.053697
    45  H    0.098784
    46  H    0.098509
    47  H    0.093256
    48  H    0.083898
    49  H    0.111040
    50  H    0.080300
    51  H    0.118170
    52  H    0.100191
    53  H    0.094374
    54  H    0.092717
    55  H    0.107690
    56  H    0.099770
    57  H    0.099152
    58  H    0.095094
    59  H    0.117495
    60  H    0.109643
    61  H    0.064228
    62  H    0.109931
    63  H    0.090037
    64  H    0.110561
    65  H    0.083986
    66  H    0.091031
    67  H    0.090999
    68  H    0.108670
    69  H    0.093487
    70  H    0.124132
    71  H    0.076149
    72  H    0.116679
    73  H    0.088821
    74  H    0.104643
    75  H    0.095699
    76  H    0.093791
    77  H    0.126700
    78  H    0.091282
    79  H    0.120280
    80  H    0.118723
    81  H    0.068204
    82  H    0.061385
    83  H    0.090085
    84  H    0.081764
    85  H    0.073824
    86  H    0.076232
    87  H    0.132716
    88  H    0.112678
    89  H    0.089211
    90  H    0.125968
    91  H    0.106256
    92  H    0.112632
    93  H    0.083071
    94  H    0.059285
    95  H    0.077072
    96  H    0.068774
 Sum of Mulliken charges =  -0.00000

 Dipole moment (field-independent basis, Debye):
    X=             -0.7982    Y=             -0.8978    Z=              0.0335  Tot=              1.2018
 Quadrupole moment (field-independent basis, Debye-Ang):
   XX=           -221.0785   YY=           -232.5712   ZZ=           -253.3663
   XY=             -6.9528   XZ=              3.9583   YZ=             -0.2188

 Normal termination of Gaussian 16 at Tue Jul 23 16:33:45 2019.
