 Gaussian 16, Revision A.03,
 Gaussian 16:  ES64L-G16RevA.03 25-Dec-2016

 ---------------------------------
 # td=(NStates=1) B3LYP/6-31G(d,p)
 ---------------------------------

 --
 TD
 --
 Symbolic Z-matrix:
 Charge =  0 Multiplicity = 1

                         Standard orientation:
 ---------------------------------------------------------------------
 Center     Atomic      Atomic             Coordinates (Angstroms)
 Number     Number       Type             X           Y           Z
 ---------------------------------------------------------------------
      1          6           0       12.134550    0.476366   -0.730309
      2          6           0      -12.118947   -0.136628    0.865157
      3          6           0       13.466092   -0.210481   -0.529209
      4          6           0      -12.995373    1.107513    1.369299
      5          6           0       13.243584   -1.809909   -0.452473
      6          6           0      -13.392894    2.109168    0.251424
      7          6           0       11.056249   -0.048515    0.205003
      8          6           0      -10.945493    0.363755   -0.039373
      9          6           0       12.340160   -2.061538    0.801288
     10          6           0      -12.012939    2.625489   -0.462775
     11          6           0       11.226728   -1.128473    1.039675
     12          6           0      -10.926000    1.605446   -0.544332
     13          6           0       11.640448    0.267085   -2.201371
     14          6           0       12.340150    1.996766   -0.413596
     15          6           0      -13.049184   -1.112281    0.145421
     16          6           0      -11.471473   -0.647965    2.085539
     17          6           0        9.868021    0.916880    0.224853
     18          6           0       -9.948458   -0.513864   -0.208196
     19          6           0       10.324709   -1.611051    2.154622
     20          6           0      -10.062491    2.090291   -1.666905
     21          6           0        8.569227    0.538931    0.331534
     22          6           0       -8.538534   -0.345533   -0.343223
     23          6           0        7.446128    1.330529    0.486770
     24          6           0       -7.553797   -1.390698   -0.397881
     25          6           0        7.676970    2.837336    0.631966
     26          6           0       -7.906587   -2.787346   -0.707786
     27          6           0        6.167459    0.816244    0.261300
     28          6           0       -6.247167   -0.848619   -0.304269
     29          6           0        4.798368    1.432809    0.298792
     30          6           0       -5.016337   -1.595815   -0.525492
     31          6           0        3.657031    0.748349    0.237222
     32          6           0       -3.803133   -1.114854   -0.358816
     33          6           0        2.307392    1.217886    0.203076
     34          6           0       -2.537948   -1.871091   -0.378806
     35          6           0        2.148238    2.810178    0.263194
     36          6           0       -2.582752   -3.288661   -0.801929
     37          6           0        1.211609    0.498235    0.015255
     38          6           0       -1.363015   -1.134957   -0.165934
     39          6           0        1.114157   -0.985359   -0.133725
     40          6           0       -0.075752   -1.690201   -0.346112
     41          1           0       13.946259    0.077707    0.463550
     42          1           0       14.206581   -0.013283   -1.219953
     43          1           0      -12.563084    1.828203    2.077703
     44          1           0      -14.058809    0.825963    1.857033
     45          1           0       14.224698   -2.370644   -0.494807
     46          1           0       12.756927   -2.060616   -1.357138
     47          1           0      -13.947417    3.013629    0.559969
     48          1           0      -14.128779    1.791477   -0.671199
     49          1           0       13.111789   -1.867307    1.567360
     50          1           0       11.741041   -2.923055    0.736687
     51          1           0      -11.680094    3.536421    0.192392
     52          1           0      -12.180201    3.207546   -1.416098
     53          1           0       11.534710   -0.835896   -2.363276
     54          1           0       12.245354    0.864086   -2.920329
     55          1           0       10.808978    0.798933   -2.353238
     56          1           0       12.415678    2.119003    0.689384
     57          1           0       11.538927    2.574277   -0.974994
     58          1           0       13.277387    2.203308   -0.903032
     59          1           0      -13.367121   -0.492703   -0.753269
     60          1           0      -13.904404   -1.341444    0.649400
     61          1           0      -12.281460   -1.875979   -0.406326
     62          1           0      -11.104535    0.135518    2.776592
     63          1           0      -10.908233   -1.541547    2.048190
     64          1           0      -12.385462   -1.132725    2.721640
     65          1           0       10.011067    1.923565    0.267003
     66          1           0      -10.022063   -1.659662   -0.228087
     67          1           0        9.443393   -0.877958    2.585314
     68          1           0       10.761464   -1.835268    3.016078
     69          1           0        9.898359   -2.356484    1.702803
     70          1           0       -9.472803    1.357099   -2.165848
     71          1           0       -9.253025    2.723825   -1.303853
     72          1           0      -10.668555    2.617453   -2.335084
     73          1           0        8.264083   -0.585549    0.251230
     74          1           0       -8.053079    0.644731   -0.231900
     75          1           0        8.475197    3.188801    1.496556
     76          1           0        6.855628    3.400246    0.785053
     77          1           0        8.414316    3.134759   -0.273730
     78          1           0       -8.155014   -2.904864   -1.764913
     79          1           0       -8.824774   -3.187230   -0.115107
     80          1           0       -7.024710   -3.435276   -0.567938
     81          1           0        6.071039   -0.239617   -0.036799
     82          1           0       -6.078723    0.219576   -0.263340
     83          1           0        4.705163    2.539562    0.468469
     84          1           0       -5.161286   -2.693026   -0.716811
     85          1           0        3.700898   -0.313487    0.182837
     86          1           0       -3.829586    0.038975   -0.079882
     87          1           0        2.713463    3.118576    1.121124
     88          1           0        0.998229    3.032204    0.324065
     89          1           0        2.864784    3.158918   -0.468871
     90          1           0       -3.310222   -3.332150   -1.628794
     91          1           0       -3.026824   -3.961095    0.176478
     92          1           0       -1.562253   -3.568844   -0.811936
     93          1           0        0.169552    1.103615   -0.250982
     94          1           0       -1.306354   -0.134507    0.101466
     95          1           0        1.992280   -1.582803   -0.236821
     96          1           0       -0.022361   -2.787472   -0.457290
 ---------------------------------------------------------------------

 SCF Done:  E(RB3LYP) =  -1557.59810212     A.U. after   15 cycles

 Excitation energies and oscillator strengths:

 Excited State   1:      Singlet-A      2.1719 eV  570.85 nm  f=2.7590  <S**2>=0.000
     148 ->149         0.70150
 This state for optimization and/or second-order correction.
 Total Energy, E(TD-HF/TD-DFT) =  -1557.51828596
 Copying the excited state density for this state as the 1-particle RhoCI density.

 The electronic state is 1-A.
 Alpha  occ. eigenvalues --  -10.20442 -10.20353 -10.20266 -10.20218 -10.20033
 Alpha  occ. eigenvalues --  -10.19874 -10.19805 -10.19805 -10.19646 -10.19625
 Alpha  occ. eigenvalues --  -10.19522 -10.19504 -10.19502 -10.19441 -10.19223
 Alpha  occ. eigenvalues --  -10.19164 -10.19096 -10.19027 -10.18989 -10.18975
 Alpha  occ. eigenvalues --  -10.18737 -10.18734 -10.18717 -10.18540 -10.18420
 Alpha  occ. eigenvalues --  -10.18393 -10.18307 -10.18176 -10.18166 -10.18152
 Alpha  occ. eigenvalues --  -10.18102 -10.17915 -10.17896 -10.17710 -10.17679
 Alpha  occ. eigenvalues --  -10.17367 -10.17100 -10.16695 -10.16348 -10.16140
 Alpha  occ. eigenvalues --   -0.85492  -0.84825  -0.83545  -0.83024  -0.82070
 Alpha  occ. eigenvalues --   -0.81613  -0.79308  -0.79151  -0.78670  -0.76983
 Alpha  occ. eigenvalues --   -0.76205  -0.75098  -0.74061  -0.72112  -0.71953
 Alpha  occ. eigenvalues --   -0.69777  -0.69400  -0.68471  -0.68441  -0.68367
 Alpha  occ. eigenvalues --   -0.67819  -0.67722  -0.66767  -0.66397  -0.65809
 Alpha  occ. eigenvalues --   -0.62889  -0.62090  -0.59798  -0.59016  -0.57020
 Alpha  occ. eigenvalues --   -0.56632  -0.55965  -0.55622  -0.53775  -0.52856
 Alpha  occ. eigenvalues --   -0.52064  -0.51953  -0.50373  -0.50230  -0.49852
 Alpha  occ. eigenvalues --   -0.48442  -0.48011  -0.47171  -0.46437  -0.46173
 Alpha  occ. eigenvalues --   -0.46001  -0.44916  -0.44790  -0.44356  -0.44285
 Alpha  occ. eigenvalues --   -0.43889  -0.43483  -0.43153  -0.42453  -0.42431
 Alpha  occ. eigenvalues --   -0.42337  -0.42308  -0.41845  -0.41589  -0.41456
 Alpha  occ. eigenvalues --   -0.41152  -0.40769  -0.40369  -0.39456  -0.39397
 Alpha  occ. eigenvalues --   -0.39194  -0.38706  -0.38497  -0.38020  -0.37833
 Alpha  occ. eigenvalues --   -0.37803  -0.37660  -0.37445  -0.37111  -0.37057
 Alpha  occ. eigenvalues --   -0.36690  -0.36176  -0.36066  -0.35758  -0.35447
 Alpha  occ. eigenvalues --   -0.34875  -0.34788  -0.34501  -0.33842  -0.33818
 Alpha  occ. eigenvalues --   -0.33397  -0.33231  -0.33015  -0.32703  -0.32408
 Alpha  occ. eigenvalues --   -0.31933  -0.31175  -0.30950  -0.30663  -0.30529
 Alpha  occ. eigenvalues --   -0.30225  -0.30109  -0.29742  -0.29111  -0.28756
 Alpha  occ. eigenvalues --   -0.28288  -0.28187  -0.26465  -0.24619  -0.22908
 Alpha  occ. eigenvalues --   -0.20593  -0.18469  -0.16309
 Alpha virt. eigenvalues --   -0.07937  -0.05504  -0.02479   0.00993   0.02969
 Alpha virt. eigenvalues --    0.04236   0.06423   0.06856   0.07117   0.07621
 Alpha virt. eigenvalues --    0.07907   0.08026   0.08316   0.08791   0.09161

 Mulliken charges:
               1
     1  C   -0.007886
     2  C    0.005234
     3  C   -0.176182
     4  C   -0.179380
     5  C   -0.217100
     6  C   -0.190468
     7  C    0.064697
     8  C    0.125189
     9  C   -0.194811
    10  C   -0.247117
    11  C    0.017529
    12  C    0.066737
    13  C   -0.292808
    14  C   -0.309356
    15  C   -0.294674
    16  C   -0.278794
    17  C   -0.120024
    18  C   -0.148152
    19  C   -0.341583
    20  C   -0.366123
    21  C   -0.102011
    22  C   -0.104117
    23  C    0.155381
    24  C    0.131499
    25  C   -0.365151
    26  C   -0.385563
    27  C   -0.150825
    28  C   -0.141154
    29  C   -0.088793
    30  C   -0.074614
    31  C   -0.076710
    32  C   -0.100784
    33  C    0.118218
    34  C    0.082753
    35  C   -0.376387
    36  C   -0.347770
    37  C   -0.146905
    38  C   -0.066528
    39  C   -0.103514
    40  C   -0.109076
    41  H    0.073495
    42  H    0.093826
    43  H    0.105959
    44  H    0.073029
    45  H    0.084039
    46  H    0.100969
    47  H    0.091669
    48  H    0.065927
    49  H    0.110772
    50  H    0.102460
    51  H    0.088880
    52  H    0.098617
    53  H    0.102331
    54  H    0.081757
    55  H    0.113542
    56  H    0.111019
    57  H    0.093011
    58  H    0.100065
    59  H    0.105896
    60  H    0.118707
    61  H    0.087580
    62  H    0.109423
    63  H    0.108042
    64  H    0.051248
    65  H    0.082110
    66  H    0.062974
    67  H    0.092452
    68  H    0.122114
    69  H    0.132247
    70  H    0.114262
    71  H    0.111300
    72  H    0.110548
    73  H    0.062280
    74  H    0.070900
    75  H    0.088010
    76  H    0.114954
    77  H    0.105539
    78  H    0.138346
    79  H    0.111443
    80  H    0.114340
    81  H    0.076482
    82  H    0.081498
    83  H    0.066703
    84  H    0.064090
    85  H    0.072142
    86  H    0.062254
    87  H    0.124174
    88  H    0.102906
    89  H    0.128509
    90  H    0.133571
    91  H    0.086312
    92  H    0.116298
    93  H    0.073989
    94  H    0.076909
    95  H    0.086244
    96  H    0.078957
 Sum of Mulliken charges =  -0.00000

 Dipole moment (field-independent basis, Debye):
    X=              0.2760    Y=             -0.2054    Z=             -0.2888  Tot=              0.4492
 Quadrupole moment (field-independent basis, Debye-Ang):
   XX=           -220.4859   YY=           -234.8557   ZZ=           -255.5237
   XY=             -3.8720   XZ=              3.8200   YZ=              1.7275

 Normal termination of Gaussian 16 at Mon Jul 29 12:46:30 2019.
