 Gaussian 16, Revision A.03,
 Gaussian 16:  ES64L-G16RevA.03 25-Dec-2016

 ---------------------------------
 # td=(NStates=1) B3LYP/6-31G(d,p)
 ---------------------------------

 --
 TD
 --
 Symbolic Z-matrix:
 Charge =  0 Multiplicity = 1

                         Standard orientation:
 ---------------------------------------------------------------------
 Center     Atomic      Atomic             Coordinates (Angstroms)
 Number     Number       Type             X           Y           Z
 ---------------------------------------------------------------------
      1          6           0       12.121744    0.654135   -0.716711
      2          6           0      -12.135611   -0.075303    0.863626
      3          6           0       13.448372   -0.205732   -0.768291
      4          6           0      -12.965603    1.122330    1.272574
      5          6           0       13.167064   -1.754802   -0.713732
      6          6           0      -13.443762    2.118360    0.165110
      7          6           0       11.001612   -0.080170    0.156365
      8          6           0      -10.981486    0.540940   -0.041619
      9          6           0       12.502821   -2.040821    0.660367
     10          6           0      -12.145289    2.820790   -0.429970
     11          6           0       11.103351   -1.213560    0.852572
     12          6           0      -11.080085    1.758571   -0.593126
     13          6           0       11.499017    0.838948   -2.090737
     14          6           0       12.409335    2.119274   -0.277181
     15          6           0      -12.864010   -1.158060    0.076868
     16          6           0      -11.596586   -0.746442    2.106278
     17          6           0        9.850322    0.844062    0.413768
     18          6           0       -9.925570   -0.454974   -0.224193
     19          6           0       10.309168   -1.827716    1.898592
     20          6           0       -9.988121    2.104576   -1.633004
     21          6           0        8.598269    0.359665    0.512256
     22          6           0       -8.557684   -0.345297   -0.294114
     23          6           0        7.363067    1.277921    0.585562
     24          6           0       -7.538877   -1.309466   -0.580023
     25          6           0        7.535191    2.783871    0.675596
     26          6           0       -7.992046   -2.717156   -0.709883
     27          6           0        6.202044    0.708073    0.426268
     28          6           0       -6.264982   -0.808652   -0.504227
     29          6           0        4.934963    1.390164    0.332666
     30          6           0       -4.979284   -1.568485   -0.526241
     31          6           0        3.768541    0.729421    0.123577
     32          6           0       -3.758154   -1.113288   -0.323166
     33          6           0        2.374058    1.224150    0.261483
     34          6           0       -2.509386   -1.845339   -0.430585
     35          6           0        2.222692    2.606358    0.568550
     36          6           0       -2.559785   -3.355974   -0.584002
     37          6           0        1.288565    0.365581    0.090823
     38          6           0       -1.308385   -1.214967   -0.189160
     39          6           0        1.288458   -1.111070   -0.124269
     40          6           0       -0.000561   -1.736269   -0.434791
     41          1           0       13.985214   -0.031584    0.094627
     42          1           0       13.842179    0.095479   -1.648899
     43          1           0      -12.445122    1.667484    1.887556
     44          1           0      -14.014607    0.934803    1.632495
     45          1           0       14.235034   -2.037317   -0.759266
     46          1           0       12.641718   -2.261898   -1.589639
     47          1           0      -14.289341    2.848519    0.538429
     48          1           0      -13.999745    1.506903   -0.568921
     49          1           0       13.083131   -1.927758    1.627759
     50          1           0       12.086215   -3.073733    0.483119
     51          1           0      -11.848210    3.868194    0.065272
     52          1           0      -12.344313    3.118351   -1.514399
     53          1           0       11.288572   -0.215146   -2.532257
     54          1           0       12.178285    1.401657   -2.727552
     55          1           0       10.602363    1.506814   -2.149577
     56          1           0       13.101758    2.079004    0.738492
     57          1           0       11.326128    2.812893   -0.126946
     58          1           0       13.065469    2.642892   -1.185618
     59          1           0      -13.586051   -0.814204   -0.937754
     60          1           0      -13.842457   -1.705278    0.674190
     61          1           0      -12.526075   -2.040319   -0.090572
     62          1           0      -10.851409   -0.129226    2.788022
     63          1           0      -11.214077   -1.682119    1.678116
     64          1           0      -12.506501   -1.200818    2.797522
     65          1           0       10.296578    1.926783    0.425414
     66          1           0      -10.335800   -1.466994   -0.246479
     67          1           0        9.614157   -1.131124    2.235794
     68          1           0       11.012562   -2.063432    2.835145
     69          1           0        9.731847   -2.746660    1.702266
     70          1           0       -9.371052    1.255615   -1.869665
     71          1           0       -9.227909    3.057027   -1.425369
     72          1           0      -10.360979    2.604003   -2.323136
     73          1           0        8.354739   -0.637678    0.365643
     74          1           0       -8.167419    0.672083   -0.026135
     75          1           0        8.170406    3.102010    1.491522
     76          1           0        6.538791    3.274383    0.922749
     77          1           0        8.016080    3.222874   -0.180467
     78          1           0       -8.636671   -2.865316   -1.589511
     79          1           0       -8.608111   -3.011075    0.239388
     80          1           0       -7.125742   -3.306955   -0.619201
     81          1           0        6.139806   -0.415263    0.524053
     82          1           0       -6.244805    0.239683   -0.273734
     83          1           0        4.934582    2.422736    0.620486
     84          1           0       -5.115298   -2.768401   -0.630838
     85          1           0        3.769933   -0.378488   -0.082459
     86          1           0       -3.682036   -0.147347   -0.051252
     87          1           0        2.863013    2.837268    1.522176
     88          1           0        1.172841    2.968088    0.394928
     89          1           0        2.948100    3.198296    0.088457
     90          1           0       -3.078931   -3.629182   -1.459195
     91          1           0       -3.171056   -3.753333    0.217927
     92          1           0       -1.621729   -3.932866   -0.743143
     93          1           0        0.239494    0.687611    0.333079
     94          1           0       -1.500129   -0.201964    0.019026
     95          1           0        2.221177   -1.682873   -0.190438
     96          1           0       -0.104936   -2.794994   -0.524487
 ---------------------------------------------------------------------

 SCF Done:  E(RB3LYP) =  -1557.54709323     A.U. after   15 cycles

 Excitation energies and oscillator strengths:

 Excited State   1:      Singlet-A      2.2972 eV  539.72 nm  f=2.7899  <S**2>=0.000
     148 ->149         0.70140
 This state for optimization and/or second-order correction.
 Total Energy, E(TD-HF/TD-DFT) =  -1557.46267233
 Copying the excited state density for this state as the 1-particle RhoCI density.

 The electronic state is 1-A.
 Alpha  occ. eigenvalues --  -10.22287 -10.20709 -10.20441 -10.20407 -10.20218
 Alpha  occ. eigenvalues --  -10.20131 -10.20086 -10.19906 -10.19815 -10.19495
 Alpha  occ. eigenvalues --  -10.19433 -10.19387 -10.19376 -10.19353 -10.19264
 Alpha  occ. eigenvalues --  -10.19127 -10.19121 -10.19024 -10.18929 -10.18889
 Alpha  occ. eigenvalues --  -10.18888 -10.18785 -10.18677 -10.18620 -10.18550
 Alpha  occ. eigenvalues --  -10.18514 -10.18428 -10.18324 -10.18310 -10.18241
 Alpha  occ. eigenvalues --  -10.18223 -10.18217 -10.17985 -10.17918 -10.17871
 Alpha  occ. eigenvalues --  -10.17758 -10.17618 -10.17026 -10.16300 -10.16218
 Alpha  occ. eigenvalues --   -0.85034  -0.84195  -0.83519  -0.83091  -0.82246
 Alpha  occ. eigenvalues --   -0.81372  -0.78695  -0.78604  -0.78022  -0.77084
 Alpha  occ. eigenvalues --   -0.76428  -0.74977  -0.74075  -0.72189  -0.72071
 Alpha  occ. eigenvalues --   -0.70397  -0.69606  -0.68762  -0.68156  -0.67816
 Alpha  occ. eigenvalues --   -0.67754  -0.66805  -0.66571  -0.66310  -0.65556
 Alpha  occ. eigenvalues --   -0.62669  -0.61324  -0.59785  -0.58668  -0.57762
 Alpha  occ. eigenvalues --   -0.56416  -0.56096  -0.54780  -0.53850  -0.53182
 Alpha  occ. eigenvalues --   -0.52578  -0.52133  -0.50425  -0.49433  -0.48990
 Alpha  occ. eigenvalues --   -0.48665  -0.47945  -0.47412  -0.46781  -0.46403
 Alpha  occ. eigenvalues --   -0.45617  -0.45203  -0.44799  -0.44322  -0.43960
 Alpha  occ. eigenvalues --   -0.43208  -0.42726  -0.42611  -0.42521  -0.42158
 Alpha  occ. eigenvalues --   -0.42064  -0.41786  -0.41664  -0.41380  -0.41292
 Alpha  occ. eigenvalues --   -0.40723  -0.40501  -0.40104  -0.39976  -0.39579
 Alpha  occ. eigenvalues --   -0.39214  -0.38703  -0.38590  -0.38415  -0.38277
 Alpha  occ. eigenvalues --   -0.37919  -0.37445  -0.37214  -0.37022  -0.36789
 Alpha  occ. eigenvalues --   -0.36251  -0.35978  -0.35574  -0.35216  -0.35199
 Alpha  occ. eigenvalues --   -0.35083  -0.34852  -0.33986  -0.33780  -0.33684
 Alpha  occ. eigenvalues --   -0.33623  -0.33485  -0.32888  -0.32465  -0.32288
 Alpha  occ. eigenvalues --   -0.31915  -0.31745  -0.31451  -0.31206  -0.31070
 Alpha  occ. eigenvalues --   -0.30922  -0.30371  -0.29566  -0.28991  -0.28336
 Alpha  occ. eigenvalues --   -0.27126  -0.26156  -0.26078  -0.24588  -0.23278
 Alpha  occ. eigenvalues --   -0.20826  -0.19202  -0.16636
 Alpha virt. eigenvalues --   -0.07862  -0.04489  -0.02114   0.00742   0.02614
 Alpha virt. eigenvalues --    0.04602   0.05109   0.06372   0.06753   0.07213
 Alpha virt. eigenvalues --    0.07954   0.08100   0.08447   0.08701   0.08951

 Mulliken charges:
               1
     1  C   -0.019208
     2  C    0.007100
     3  C   -0.160988
     4  C   -0.162367
     5  C   -0.199900
     6  C   -0.202981
     7  C    0.087769
     8  C    0.088210
     9  C   -0.222302
    10  C   -0.230684
    11  C    0.045377
    12  C    0.074792
    13  C   -0.286030
    14  C   -0.270231
    15  C   -0.279547
    16  C   -0.276973
    17  C   -0.108912
    18  C   -0.154348
    19  C   -0.362010
    20  C   -0.335039
    21  C   -0.110686
    22  C   -0.118042
    23  C    0.120107
    24  C    0.148467
    25  C   -0.378784
    26  C   -0.371845
    27  C   -0.120792
    28  C   -0.134401
    29  C   -0.085869
    30  C   -0.094401
    31  C   -0.108137
    32  C   -0.087586
    33  C    0.159744
    34  C    0.109762
    35  C   -0.394833
    36  C   -0.391283
    37  C   -0.148732
    38  C   -0.098254
    39  C   -0.093828
    40  C   -0.106271
    41  H    0.103204
    42  H    0.094408
    43  H    0.106896
    44  H    0.081444
    45  H    0.095248
    46  H    0.097353
    47  H    0.073598
    48  H    0.103356
    49  H    0.101512
    50  H    0.095973
    51  H    0.099829
    52  H    0.097306
    53  H    0.089612
    54  H    0.090869
    55  H    0.104900
    56  H    0.082842
    57  H    0.078096
    58  H    0.083649
    59  H    0.069773
    60  H    0.047308
    61  H    0.125716
    62  H    0.099434
    63  H    0.096273
    64  H    0.077314
    65  H    0.067544
    66  H    0.072290
    67  H    0.124837
    68  H    0.087386
    69  H    0.116135
    70  H    0.126006
    71  H    0.052649
    72  H    0.110016
    73  H    0.087593
    74  H    0.082833
    75  H    0.120302
    76  H    0.097875
    77  H    0.125480
    78  H    0.128770
    79  H    0.110625
    80  H    0.113889
    81  H    0.073458
    82  H    0.080931
    83  H    0.066353
    84  H    0.060861
    85  H    0.065004
    86  H    0.072684
    87  H    0.105967
    88  H    0.111776
    89  H    0.132318
    90  H    0.125035
    91  H    0.127102
    92  H    0.109210
    93  H    0.083122
    94  H    0.069948
    95  H    0.094658
    96  H    0.075363
 Sum of Mulliken charges =  -0.00000

 Dipole moment (field-independent basis, Debye):
    X=              1.2935    Y=             -0.0743    Z=              0.2845  Tot=              1.3265
 Quadrupole moment (field-independent basis, Debye-Ang):
   XX=           -213.8881   YY=           -233.1915   ZZ=           -257.0024
   XY=              4.8473   XZ=              1.6931   YZ=              1.5564

 Normal termination of Gaussian 16 at Fri Jul 26 22:06:55 2019.
