 Gaussian 16, Revision A.03,
 Gaussian 16:  ES64L-G16RevA.03 25-Dec-2016

 ---------------------------------
 # td=(NStates=1) B3LYP/6-31G(d,p)
 ---------------------------------

 --
 TD
 --
 Symbolic Z-matrix:
 Charge =  0 Multiplicity = 1

                         Standard orientation:
 ---------------------------------------------------------------------
 Center     Atomic      Atomic             Coordinates (Angstroms)
 Number     Number       Type             X           Y           Z
 ---------------------------------------------------------------------
      1          6           0       12.130761    0.326709   -0.573977
      2          6           0      -12.118632   -0.111853    1.117076
      3          6           0       13.535284   -0.566273   -0.299356
      4          6           0      -13.006453    0.982352    1.490418
      5          6           0       13.040867   -2.063598   -0.208499
      6          6           0      -13.482899    1.943929    0.451169
      7          6           0       11.089291   -0.003845    0.363783
      8          6           0      -11.080913    0.386175    0.012236
      9          6           0       12.139583   -2.199145    1.126050
     10          6           0      -12.264865    2.523227   -0.302514
     11          6           0       11.036404   -1.228610    1.136902
     12          6           0      -11.134012    1.565130   -0.618511
     13          6           0       11.711691    0.055255   -2.001244
     14          6           0       12.589084    1.923241   -0.446091
     15          6           0      -13.064604   -1.330898    0.484602
     16          6           0      -11.263425   -0.668259    2.294292
     17          6           0        9.961268    0.944615    0.444749
     18          6           0      -10.003412   -0.563136   -0.317767
     19          6           0       10.045983   -1.487199    2.327882
     20          6           0      -10.205039    2.093987   -1.660920
     21          6           0        8.679752    0.523136    0.343199
     22          6           0       -8.665173   -0.323100   -0.213969
     23          6           0        7.467205    1.478736    0.290276
     24          6           0       -7.553366   -1.307244   -0.455781
     25          6           0        7.787844    2.970320    0.455039
     26          6           0       -7.952883   -2.606095   -0.848059
     27          6           0        6.154429    1.010811    0.101542
     28          6           0       -6.178275   -0.806162   -0.474216
     29          6           0        4.928641    1.791337    0.117120
     30          6           0       -5.035764   -1.674582   -0.649493
     31          6           0        3.803265    1.014531   -0.047346
     32          6           0       -3.753693   -1.118862   -0.517491
     33          6           0        2.346067    1.382045   -0.011671
     34          6           0       -2.508991   -1.753063   -0.491899
     35          6           0        2.157394    2.923128    0.165787
     36          6           0       -2.475310   -3.304073   -0.875269
     37          6           0        1.301624    0.621466   -0.294729
     38          6           0       -1.357317   -1.059249   -0.477959
     39          6           0        1.115196   -0.802116   -0.489232
     40          6           0        0.009540   -1.621093   -0.598222
     41          1           0       13.791196   -0.234019    0.692395
     42          1           0       14.271710   -0.296296   -1.274219
     43          1           0      -12.245492    1.501810    2.123470
     44          1           0      -13.824000    0.726614    2.107723
     45          1           0       13.808296   -2.729184   -0.244158
     46          1           0       12.547799   -2.423460   -1.153384
     47          1           0      -14.136939    2.729118    0.803010
     48          1           0      -14.110884    1.329757   -0.285404
     49          1           0       12.791159   -1.867455    2.048708
     50          1           0       11.642454   -3.122171    1.138760
     51          1           0      -11.819211    3.367058    0.431455
     52          1           0      -12.472420    3.214711   -1.341031
     53          1           0       11.688863   -0.979224   -2.061941
     54          1           0       12.399110    0.268847   -2.850139
     55          1           0       10.769653    0.570925   -2.415931
     56          1           0       12.729168    2.195767    0.669750
     57          1           0       11.771120    2.517441   -0.999183
     58          1           0       13.683997    1.719409   -1.055698
     59          1           0      -13.678779   -0.816521   -0.356160
     60          1           0      -13.720643   -1.628623    1.294499
     61          1           0      -12.194776   -2.099511    0.144906
     62          1           0      -10.512038    0.101624    2.674685
     63          1           0      -10.631035   -1.529102    2.148326
     64          1           0      -11.933427   -0.946933    3.247915
     65          1           0       10.299088    1.893517    0.395463
     66          1           0      -10.326271   -1.619285   -0.432621
     67          1           0        9.525775   -0.482846    2.520414
     68          1           0       10.748143   -1.951151    3.057024
     69          1           0        9.281238   -2.248547    2.173150
     70          1           0       -9.214378    1.373010   -2.095352
     71          1           0       -9.736404    2.867644   -1.378217
     72          1           0      -10.788545    2.430500   -2.573072
     73          1           0        8.467186   -0.634499    0.461202
     74          1           0       -8.127029    0.442060    0.264427
     75          1           0        8.216577    3.251365    1.362468
     76          1           0        6.848188    3.514747    0.360873
     77          1           0        8.374584    3.333829   -0.243967
     78          1           0       -8.267793   -2.627115   -2.050907
     79          1           0       -8.670566   -3.240694   -0.270472
     80          1           0       -7.178719   -3.328095   -0.693194
     81          1           0        6.193253   -0.028057   -0.011101
     82          1           0       -6.053687    0.314175   -0.092392
     83          1           0        4.959858    2.811748    0.215471
     84          1           0       -5.135974   -2.747103   -0.790978
     85          1           0        3.945447    0.084160   -0.151771
     86          1           0       -3.392833    0.081465   -0.258675
     87          1           0        2.354165    3.257964    1.152951
     88          1           0        1.200751    2.989527   -0.157292
     89          1           0        2.995734    3.462323   -0.497905
     90          1           0       -3.127019   -3.604447   -1.833018
     91          1           0       -3.144702   -3.679788   -0.245474
     92          1           0       -1.540869   -3.727955   -0.771565
     93          1           0        0.273772    1.121872   -0.207408
     94          1           0       -1.298998   -0.061337   -0.141488
     95          1           0        2.050212   -1.253954   -0.584109
     96          1           0        0.098058   -2.735670   -1.058253
 ---------------------------------------------------------------------

 SCF Done:  E(RB3LYP) =  -1557.49481972     A.U. after   15 cycles

 Excitation energies and oscillator strengths:

 Excited State   1:      Singlet-A      2.2241 eV  557.46 nm  f=2.8185  <S**2>=0.000
     147 ->149         0.10060
     148 ->149         0.69683
 This state for optimization and/or second-order correction.
 Total Energy, E(TD-HF/TD-DFT) =  -1557.41308589
 Copying the excited state density for this state as the 1-particle RhoCI density.

 The electronic state is 1-A.
 Alpha  occ. eigenvalues --  -10.20838 -10.20810 -10.20688 -10.20679 -10.20609
 Alpha  occ. eigenvalues --  -10.20548 -10.20475 -10.20280 -10.20256 -10.20203
 Alpha  occ. eigenvalues --  -10.20177 -10.20173 -10.20006 -10.19628 -10.19597
 Alpha  occ. eigenvalues --  -10.19448 -10.19337 -10.19247 -10.19223 -10.19086
 Alpha  occ. eigenvalues --  -10.18854 -10.18834 -10.18737 -10.18715 -10.18654
 Alpha  occ. eigenvalues --  -10.18615 -10.18559 -10.18535 -10.18413 -10.18356
 Alpha  occ. eigenvalues --  -10.18292 -10.18073 -10.18049 -10.17985 -10.17736
 Alpha  occ. eigenvalues --  -10.17735 -10.17644 -10.16932 -10.16618 -10.16523
 Alpha  occ. eigenvalues --   -0.84904  -0.84270  -0.83379  -0.82716  -0.81512
 Alpha  occ. eigenvalues --   -0.80791  -0.78650  -0.78322  -0.77820  -0.77091
 Alpha  occ. eigenvalues --   -0.76400  -0.75067  -0.74111  -0.71956  -0.71800
 Alpha  occ. eigenvalues --   -0.70141  -0.68987  -0.68536  -0.68169  -0.67428
 Alpha  occ. eigenvalues --   -0.66801  -0.66694  -0.66359  -0.65849  -0.65454
 Alpha  occ. eigenvalues --   -0.63111  -0.62177  -0.60294  -0.59643  -0.57073
 Alpha  occ. eigenvalues --   -0.56746  -0.55647  -0.55498  -0.54770  -0.53301
 Alpha  occ. eigenvalues --   -0.52412  -0.52081  -0.50260  -0.49332  -0.48197
 Alpha  occ. eigenvalues --   -0.47754  -0.47424  -0.47230  -0.46830  -0.46472
 Alpha  occ. eigenvalues --   -0.45446  -0.44673  -0.44563  -0.44003  -0.43603
 Alpha  occ. eigenvalues --   -0.43259  -0.42793  -0.42683  -0.42438  -0.42226
 Alpha  occ. eigenvalues --   -0.42097  -0.41704  -0.41618  -0.41000  -0.40708
 Alpha  occ. eigenvalues --   -0.40620  -0.40253  -0.39999  -0.39647  -0.39573
 Alpha  occ. eigenvalues --   -0.39313  -0.38977  -0.38777  -0.38427  -0.38214
 Alpha  occ. eigenvalues --   -0.38111  -0.37705  -0.37600  -0.37242  -0.37129
 Alpha  occ. eigenvalues --   -0.36520  -0.35958  -0.35921  -0.35868  -0.35495
 Alpha  occ. eigenvalues --   -0.35413  -0.34719  -0.34272  -0.33659  -0.33362
 Alpha  occ. eigenvalues --   -0.33340  -0.33153  -0.33094  -0.32667  -0.32520
 Alpha  occ. eigenvalues --   -0.32043  -0.31633  -0.31225  -0.31054  -0.30839
 Alpha  occ. eigenvalues --   -0.30170  -0.30077  -0.30004  -0.28469  -0.27784
 Alpha  occ. eigenvalues --   -0.27405  -0.27285  -0.26194  -0.23791  -0.22208
 Alpha  occ. eigenvalues --   -0.20947  -0.18578  -0.16681
 Alpha virt. eigenvalues --   -0.08187  -0.05255  -0.01914   0.00374   0.02158
 Alpha virt. eigenvalues --    0.03561   0.05075   0.05561   0.06100   0.06711
 Alpha virt. eigenvalues --    0.07036   0.08017   0.08218   0.08564   0.09067

 Mulliken charges:
               1
     1  C   -0.034542
     2  C    0.000906
     3  C   -0.183584
     4  C   -0.164810
     5  C   -0.189923
     6  C   -0.175338
     7  C    0.081963
     8  C    0.055408
     9  C   -0.226398
    10  C   -0.215831
    11  C    0.039285
    12  C    0.100096
    13  C   -0.287509
    14  C   -0.299474
    15  C   -0.296728
    16  C   -0.302411
    17  C   -0.108655
    18  C   -0.157469
    19  C   -0.361071
    20  C   -0.346263
    21  C   -0.102177
    22  C   -0.057809
    23  C    0.062566
    24  C    0.090518
    25  C   -0.372239
    26  C   -0.372019
    27  C   -0.114193
    28  C   -0.115151
    29  C   -0.058962
    30  C   -0.113395
    31  C   -0.076593
    32  C   -0.086746
    33  C    0.089074
    34  C    0.120459
    35  C   -0.353012
    36  C   -0.363136
    37  C   -0.121521
    38  C   -0.118812
    39  C   -0.088081
    40  C   -0.104171
    41  H    0.107320
    42  H    0.071226
    43  H    0.087107
    44  H    0.088983
    45  H    0.094697
    46  H    0.094426
    47  H    0.102508
    48  H    0.085322
    49  H    0.104848
    50  H    0.111438
    51  H    0.083503
    52  H    0.059026
    53  H    0.109317
    54  H    0.085652
    55  H    0.093642
    56  H    0.099379
    57  H    0.105264
    58  H    0.080083
    59  H    0.099641
    60  H    0.109795
    61  H    0.084461
    62  H    0.100072
    63  H    0.114191
    64  H    0.072712
    65  H    0.078134
    66  H    0.085992
    67  H    0.122234
    68  H    0.100404
    69  H    0.113433
    70  H    0.079894
    71  H    0.136149
    72  H    0.097913
    73  H    0.086136
    74  H    0.074090
    75  H    0.124415
    76  H    0.095115
    77  H    0.131502
    78  H    0.104408
    79  H    0.111777
    80  H    0.101264
    81  H    0.077047
    82  H    0.084427
    83  H    0.087312
    84  H    0.097757
    85  H    0.060227
    86  H    0.051971
    87  H    0.128507
    88  H    0.115235
    89  H    0.094572
    90  H    0.096664
    91  H    0.130801
    92  H    0.111274
    93  H    0.062176
    94  H    0.079349
    95  H    0.076394
    96  H    0.086564
 Sum of Mulliken charges =  -0.00000

 Dipole moment (field-independent basis, Debye):
    X=              0.9012    Y=             -0.4731    Z=              0.9441  Tot=              1.3882
 Quadrupole moment (field-independent basis, Debye-Ang):
   XX=           -222.2949   YY=           -234.3130   ZZ=           -256.3486
   XY=             -4.1544   XZ=             -5.2510   YZ=              2.1212

 Normal termination of Gaussian 16 at Wed Jul 31 03:25:31 2019.
