 Gaussian 16, Revision A.03,
 Gaussian 16:  ES64L-G16RevA.03 25-Dec-2016

 ---------------------------------
 # td=(NStates=1) B3LYP/6-31G(d,p)
 ---------------------------------

 --
 TD
 --
 Symbolic Z-matrix:
 Charge =  0 Multiplicity = 1

                         Standard orientation:
 ---------------------------------------------------------------------
 Center     Atomic      Atomic             Coordinates (Angstroms)
 Number     Number       Type             X           Y           Z
 ---------------------------------------------------------------------
      1          6           0      -12.119103   -0.514175   -0.719243
      2          6           0       12.067018   -0.001624    0.859917
      3          6           0      -13.473892    0.319925   -0.621992
      4          6           0       12.866777   -1.246825    1.362492
      5          6           0      -13.082034    1.863146   -0.547408
      6          6           0       13.421220   -2.074203    0.149389
      7          6           0      -10.991716   -0.034472    0.257432
      8          6           0       10.981736   -0.490860   -0.087486
      9          6           0      -12.425222    2.045230    0.833493
     10          6           0       12.186912   -2.537449   -0.457916
     11          6           0      -11.180078    1.024304    1.084903
     12          6           0       11.035032   -1.702573   -0.657800
     13          6           0      -11.460916   -0.673346   -2.141881
     14          6           0      -12.616272   -2.082818   -0.321411
     15          6           0       12.982264    1.046082    0.239030
     16          6           0       11.439326    0.659516    2.143011
     17          6           0       -9.848580   -0.907875    0.411180
     18          6           0        9.869132    0.528158   -0.347863
     19          6           0      -10.187608    1.499106    2.037611
     20          6           0       10.144185   -2.168718   -1.793183
     21          6           0       -8.608662   -0.475519    0.281398
     22          6           0        8.605474    0.345681   -0.182153
     23          6           0       -7.335706   -1.281707    0.348675
     24          6           0        7.495905    1.353723   -0.399558
     25          6           0       -7.609046   -2.718698    0.695399
     26          6           0        7.906732    2.799972   -0.628940
     27          6           0       -6.125100   -0.611621    0.072761
     28          6           0        6.254164    0.908306   -0.199160
     29          6           0       -4.867990   -1.291429    0.188435
     30          6           0        5.098318    1.822494   -0.557130
     31          6           0       -3.697670   -0.657186    0.130992
     32          6           0        3.948427    1.226012   -0.310353
     33          6           0       -2.376532   -1.192841    0.069024
     34          6           0        2.485099    1.781780   -0.492875
     35          6           0       -2.256367   -2.707644    0.552239
     36          6           0        2.586487    3.358026   -0.662397
     37          6           0       -1.291595   -0.503868    0.083977
     38          6           0        1.317292    1.095477   -0.408245
     39          6           0       -1.147717    0.908494   -0.108172
     40          6           0       -0.010078    1.619432   -0.304355
     41          1           0      -14.128074    0.083192    0.162663
     42          1           0      -14.074487    0.235136   -1.546126
     43          1           0       12.375582   -1.880237    1.950062
     44          1           0       13.603617   -0.809311    2.215913
     45          1           0      -13.970361    2.562566   -0.559788
     46          1           0      -12.429359    2.043631   -1.492935
     47          1           0       13.830861   -2.976337    0.613366
     48          1           0       14.247172   -1.623780   -0.472878
     49          1           0      -13.047170    1.888416    1.600682
     50          1           0      -12.137541    3.142251    0.842275
     51          1           0       11.759049   -3.578527    0.099021
     52          1           0       12.593308   -3.067298   -1.407457
     53          1           0      -11.085992    0.117532   -2.420089
     54          1           0      -12.247527   -1.124053   -2.967655
     55          1           0      -10.483934   -0.965874   -2.159323
     56          1           0      -13.074110   -2.282672    0.745991
     57          1           0      -11.997037   -2.931537   -0.471278
     58          1           0      -13.555905   -2.037527   -1.097363
     59          1           0       13.224836    0.588217   -0.748985
     60          1           0       13.883528    1.190371    1.003105
     61          1           0       12.412380    1.985645    0.086372
     62          1           0       10.649690   -0.158406    2.682618
     63          1           0       10.614214    1.309978    1.758608
     64          1           0       12.424106    0.984663    2.674208
     65          1           0       -9.893105   -1.997570    0.605298
     66          1           0       10.490178    1.637132   -0.495727
     67          1           0       -9.461437    0.783069    2.117082
     68          1           0      -10.749137    1.656766    3.073152
     69          1           0       -9.994611    2.658749    1.619584
     70          1           0        9.443111   -1.310989   -2.094584
     71          1           0        9.579454   -3.029553   -1.498280
     72          1           0       10.719458   -2.303693   -2.715741
     73          1           0       -8.513472    0.594359    0.052169
     74          1           0        8.041227   -0.658717   -0.035170
     75          1           0       -7.719152   -2.918098    1.967155
     76          1           0       -6.626414   -3.416053    0.255562
     77          1           0       -8.547045   -3.089844    0.285742
     78          1           0        8.298251    2.825577   -1.570101
     79          1           0        8.542584    3.308179    0.137750
     80          1           0        7.114881    3.442263   -0.657159
     81          1           0       -6.025514    0.544504   -0.137646
     82          1           0        6.291225   -0.011044    0.017456
     83          1           0       -4.860319   -2.351898    0.434847
     84          1           0        5.097452    2.881948   -0.863909
     85          1           0       -3.766520    0.428151   -0.086819
     86          1           0        3.727041    0.254745    0.254504
     87          1           0       -2.801617   -2.665314    1.552314
     88          1           0       -1.348242   -3.371738    0.681525
     89          1           0       -2.818069   -3.330613   -0.137604
     90          1           0        3.464450    3.756645   -1.347137
     91          1           0        2.565217    3.971358    0.341053
     92          1           0        1.604408    3.673679   -0.999672
     93          1           0       -0.244605   -1.012180    0.055654
     94          1           0        1.163998    0.012317   -0.154800
     95          1           0       -2.010916    1.672630   -0.301224
     96          1           0       -0.027298    2.692718   -0.557296
 ---------------------------------------------------------------------

 SCF Done:  E(RB3LYP) =  -1557.45009493     A.U. after   14 cycles

 Excitation energies and oscillator strengths:

 Excited State   1:      Singlet-A      2.6784 eV  462.90 nm  f=2.6748  <S**2>=0.000
     148 ->149         0.70013
 This state for optimization and/or second-order correction.
 Total Energy, E(TD-HF/TD-DFT) =  -1557.35166488
 Copying the excited state density for this state as the 1-particle RhoCI density.

 The electronic state is 1-A.
 Alpha  occ. eigenvalues --  -10.22301 -10.21846 -10.21395 -10.21200 -10.20641
 Alpha  occ. eigenvalues --  -10.20037 -10.19932 -10.19889 -10.19785 -10.19594
 Alpha  occ. eigenvalues --  -10.19468 -10.19161 -10.19101 -10.19055 -10.19023
 Alpha  occ. eigenvalues --  -10.19016 -10.19009 -10.18972 -10.18907 -10.18902
 Alpha  occ. eigenvalues --  -10.18888 -10.18843 -10.18810 -10.18720 -10.18590
 Alpha  occ. eigenvalues --  -10.18536 -10.18525 -10.18331 -10.18283 -10.18230
 Alpha  occ. eigenvalues --  -10.18122 -10.18063 -10.18044 -10.18037 -10.18012
 Alpha  occ. eigenvalues --  -10.17578 -10.17478 -10.17420 -10.16751 -10.16092
 Alpha  occ. eigenvalues --   -0.85501  -0.84371  -0.84013  -0.83164  -0.81875
 Alpha  occ. eigenvalues --   -0.80917  -0.79101  -0.78586  -0.78004  -0.77289
 Alpha  occ. eigenvalues --   -0.76761  -0.75565  -0.74187  -0.72742  -0.72140
 Alpha  occ. eigenvalues --   -0.70315  -0.69463  -0.68914  -0.67636  -0.67405
 Alpha  occ. eigenvalues --   -0.67071  -0.66993  -0.66638  -0.65714  -0.65387
 Alpha  occ. eigenvalues --   -0.62102  -0.61286  -0.59889  -0.58579  -0.56621
 Alpha  occ. eigenvalues --   -0.55921  -0.55626  -0.54708  -0.54542  -0.53557
 Alpha  occ. eigenvalues --   -0.52602  -0.51928  -0.50575  -0.49607  -0.49261
 Alpha  occ. eigenvalues --   -0.48533  -0.47237  -0.47007  -0.46654  -0.46217
 Alpha  occ. eigenvalues --   -0.45645  -0.45280  -0.44686  -0.44205  -0.43873
 Alpha  occ. eigenvalues --   -0.42935  -0.42756  -0.42664  -0.42248  -0.41911
 Alpha  occ. eigenvalues --   -0.41843  -0.41450  -0.41128  -0.40447  -0.40426
 Alpha  occ. eigenvalues --   -0.40209  -0.39568  -0.39524  -0.39280  -0.39021
 Alpha  occ. eigenvalues --   -0.38985  -0.38867  -0.38289  -0.38012  -0.37755
 Alpha  occ. eigenvalues --   -0.37534  -0.37291  -0.37217  -0.37145  -0.36739
 Alpha  occ. eigenvalues --   -0.36665  -0.36334  -0.36107  -0.35842  -0.35068
 Alpha  occ. eigenvalues --   -0.34772  -0.34749  -0.34649  -0.34085  -0.33988
 Alpha  occ. eigenvalues --   -0.33215  -0.33138  -0.32847  -0.32237  -0.31993
 Alpha  occ. eigenvalues --   -0.31821  -0.31729  -0.31355  -0.31062  -0.30678
 Alpha  occ. eigenvalues --   -0.29819  -0.29422  -0.28768  -0.28447  -0.28290
 Alpha  occ. eigenvalues --   -0.27802  -0.26940  -0.26791  -0.23925  -0.22813
 Alpha  occ. eigenvalues --   -0.21438  -0.19833  -0.17790
 Alpha virt. eigenvalues --   -0.07246  -0.04291  -0.01292   0.01326   0.02523
 Alpha virt. eigenvalues --    0.03881   0.05373   0.05620   0.06229   0.06609
 Alpha virt. eigenvalues --    0.07079   0.07205   0.07664   0.07957   0.08355

 Mulliken charges:
               1
     1  C    0.012639
     2  C   -0.033802
     3  C   -0.188870
     4  C   -0.152296
     5  C   -0.194319
     6  C   -0.195923
     7  C    0.054099
     8  C    0.065748
     9  C   -0.207228
    10  C   -0.214719
    11  C    0.049291
    12  C    0.097768
    13  C   -0.276935
    14  C   -0.299635
    15  C   -0.276361
    16  C   -0.276147
    17  C   -0.141036
    18  C   -0.169788
    19  C   -0.330348
    20  C   -0.362793
    21  C   -0.086917
    22  C   -0.070323
    23  C    0.115171
    24  C    0.099750
    25  C   -0.352759
    26  C   -0.367091
    27  C   -0.129281
    28  C   -0.075324
    29  C   -0.050319
    30  C   -0.102597
    31  C   -0.118504
    32  C   -0.072309
    33  C    0.097335
    34  C    0.064689
    35  C   -0.378165
    36  C   -0.367648
    37  C   -0.109669
    38  C   -0.097689
    39  C   -0.077456
    40  C   -0.102697
    41  H    0.108432
    42  H    0.088833
    43  H    0.110256
    44  H    0.036255
    45  H    0.080898
    46  H    0.093303
    47  H    0.101204
    48  H    0.101821
    49  H    0.119789
    50  H    0.083675
    51  H    0.062240
    52  H    0.085841
    53  H    0.101975
    54  H    0.079019
    55  H    0.105284
    56  H    0.079663
    57  H    0.105715
    58  H    0.075107
    59  H    0.104239
    60  H    0.088869
    61  H    0.101000
    62  H    0.064837
    63  H    0.106889
    64  H    0.093092
    65  H    0.076168
    66  H    0.070327
    67  H    0.127017
    68  H    0.086181
    69  H    0.089365
    70  H    0.104037
    71  H    0.114881
    72  H    0.113085
    73  H    0.080558
    74  H    0.077695
    75  H    0.093685
    76  H    0.080792
    77  H    0.134809
    78  H    0.129410
    79  H    0.115307
    80  H    0.106053
    81  H    0.087092
    82  H    0.054980
    83  H    0.081183
    84  H    0.103105
    85  H    0.074369
    86  H    0.081842
    87  H    0.119977
    88  H    0.105440
    89  H    0.112510
    90  H    0.101858
    91  H    0.111506
    92  H    0.111358
    93  H    0.085031
    94  H    0.064162
    95  H    0.078354
    96  H    0.072083
 Sum of Mulliken charges =  -0.00000

 Dipole moment (field-independent basis, Debye):
    X=             -0.3720    Y=              0.3139    Z=             -0.2984  Tot=              0.5709
 Quadrupole moment (field-independent basis, Debye-Ang):
   XX=           -231.7001   YY=           -235.9524   ZZ=           -256.5953
   XY=             -3.7156   XZ=             -7.9309   YZ=             -4.2346

 Normal termination of Gaussian 16 at Sun Jul 28 10:27:42 2019.
