 Gaussian 16, Revision A.03,
 Gaussian 16:  ES64L-G16RevA.03 25-Dec-2016

 ---------------------------------
 # td=(NStates=1) B3LYP/6-31G(d,p)
 ---------------------------------

 --
 TD
 --
 Symbolic Z-matrix:
 Charge =  0 Multiplicity = 1

                         Standard orientation:
 ---------------------------------------------------------------------
 Center     Atomic      Atomic             Coordinates (Angstroms)
 Number     Number       Type             X           Y           Z
 ---------------------------------------------------------------------
      1          6           0       12.008196    0.538070   -0.801042
      2          6           0      -12.029998    0.016269    0.932146
      3          6           0       13.416086   -0.276399   -0.696485
      4          6           0      -12.927540    1.146881    1.479652
      5          6           0       13.223063   -1.824766   -0.373841
      6          6           0      -13.364589    2.027807    0.348549
      7          6           0       11.022512    0.056107    0.328501
      8          6           0      -10.935970    0.494905   -0.114460
      9          6           0       12.342841   -1.979987    0.938490
     10          6           0      -12.095170    2.712974   -0.316615
     11          6           0       11.165909   -1.106774    0.936533
     12          6           0      -11.072761    1.615903   -0.754229
     13          6           0       11.546690    0.268364   -2.274963
     14          6           0       12.322569    2.002659   -0.578387
     15          6           0      -12.911369   -1.070871    0.170944
     16          6           0      -11.388369   -0.733230    2.098517
     17          6           0        9.840223    0.886040    0.493426
     18          6           0       -9.916287   -0.495250   -0.349731
     19          6           0       10.130823   -1.557779    2.012046
     20          6           0       -9.982564    2.237741   -1.743054
     21          6           0        8.594898    0.468909    0.407005
     22          6           0       -8.519128   -0.276747   -0.459107
     23          6           0        7.382039    1.402943    0.330793
     24          6           0       -7.471714   -1.297595   -0.706396
     25          6           0        7.728593    2.911022    0.374495
     26          6           0       -7.813560   -2.784576   -1.006344
     27          6           0        6.185337    0.750518    0.226346
     28          6           0       -6.235005   -0.910959   -0.415660
     29          6           0        4.835917    1.362611    0.331731
     30          6           0       -5.081466   -1.706280   -0.484760
     31          6           0        3.688616    0.715335    0.196568
     32          6           0       -3.814905   -1.267508   -0.300307
     33          6           0        2.342932    1.211311    0.257540
     34          6           0       -2.598969   -1.919176   -0.331052
     35          6           0        2.173291    2.663659    0.644632
     36          6           0       -2.557332   -3.448160   -0.573581
     37          6           0        1.243840    0.440755    0.128738
     38          6           0       -1.441964   -1.189027   -0.144426
     39          6           0        1.087726   -0.921242   -0.081094
     40          6           0       -0.062832   -1.629470   -0.154299
     41          1           0       13.883258    0.231638    0.173822
     42          1           0       13.876710    0.132109   -1.518039
     43          1           0      -12.407162    1.764534    2.016431
     44          1           0      -13.780994    0.757333    1.826816
     45          1           0       14.127308   -2.351946   -0.220373
     46          1           0       12.649377   -2.220274   -1.221203
     47          1           0      -14.029256    2.930133    0.603141
     48          1           0      -13.855925    1.534201   -0.415055
     49          1           0       12.664984   -1.528328    2.087558
     50          1           0       12.335989   -3.233766    1.150872
     51          1           0      -11.445743    3.383972    0.447315
     52          1           0      -12.539702    3.164973   -1.221078
     53          1           0       11.339639   -0.654459   -2.612811
     54          1           0       11.987901    0.947364   -3.039473
     55          1           0       10.242682    0.511017   -2.324949
     56          1           0       12.668363    2.211655    0.359268
     57          1           0       11.308630    2.751534   -0.941792
     58          1           0       13.172221    2.373357   -1.134841
     59          1           0      -13.406493   -0.798824   -0.603569
     60          1           0      -13.647776   -1.465056    0.755211
     61          1           0      -12.259272   -1.805674    0.104646
     62          1           0      -10.486143   -0.061601    2.380714
     63          1           0      -10.859829   -1.507876    1.709430
     64          1           0      -12.048767   -0.959593    2.939620
     65          1           0       10.150514    1.839147    0.623255
     66          1           0      -10.218234   -1.662812   -0.419664
     67          1           0        9.397563   -0.750365    2.228941
     68          1           0       10.783949   -1.854657    2.982791
     69          1           0        9.646959   -2.542283    1.765675
     70          1           0       -9.576589    1.282728   -2.032908
     71          1           0       -9.094442    2.741596   -1.018998
     72          1           0      -10.615663    3.028216   -2.366291
     73          1           0        8.584464   -0.681731   -0.110262
     74          1           0       -8.293969    0.902341   -0.250466
     75          1           0        8.093918    3.226827    1.380317
     76          1           0        6.718913    3.646715    0.346149
     77          1           0        8.591383    3.431619   -0.445995
     78          1           0       -8.308032   -2.823252   -1.933334
     79          1           0       -8.554217   -3.140637   -0.298904
     80          1           0       -6.843230   -3.243335   -1.035609
     81          1           0        6.301051   -0.360762    0.138486
     82          1           0       -5.891666    0.185436   -0.164404
     83          1           0        4.763953    2.642494    0.351800
     84          1           0       -5.028933   -2.852482   -0.770155
     85          1           0        3.734095   -0.440217    0.225305
     86          1           0       -3.694621   -0.095061   -0.266140
     87          1           0        2.659978    3.007974    1.549577
     88          1           0        1.100858    2.884816    0.473351
     89          1           0        2.661242    3.423840   -0.161625
     90          1           0       -3.168535   -3.804731   -1.296643
     91          1           0       -3.119460   -3.928050    0.272479
     92          1           0       -1.644348   -3.835152   -0.540136
     93          1           0        0.306367    0.928543    0.276905
     94          1           0       -1.518441   -0.249314   -0.375690
     95          1           0        2.045095   -1.470917   -0.014757
     96          1           0        0.176414   -2.752877   -0.275637
 ---------------------------------------------------------------------

 SCF Done:  E(RB3LYP) =  -1557.44923004     A.U. after   15 cycles

 Excitation energies and oscillator strengths:

 Excited State   1:      Singlet-A      2.3041 eV  538.11 nm  f=3.1088  <S**2>=0.000
     148 ->149         0.70198
     148 <-149        -0.10061
 This state for optimization and/or second-order correction.
 Total Energy, E(TD-HF/TD-DFT) =  -1557.36455672
 Copying the excited state density for this state as the 1-particle RhoCI density.

 The electronic state is 1-A.
 Alpha  occ. eigenvalues --  -10.22262 -10.21839 -10.21395 -10.20761 -10.20751
 Alpha  occ. eigenvalues --  -10.20678 -10.20610 -10.20379 -10.20175 -10.19879
 Alpha  occ. eigenvalues --  -10.19759 -10.19697 -10.19619 -10.19611 -10.19564
 Alpha  occ. eigenvalues --  -10.19482 -10.19409 -10.19331 -10.19249 -10.19016
 Alpha  occ. eigenvalues --  -10.19006 -10.18902 -10.18704 -10.18570 -10.18486
 Alpha  occ. eigenvalues --  -10.18486 -10.18445 -10.18394 -10.18264 -10.17981
 Alpha  occ. eigenvalues --  -10.17859 -10.17843 -10.17823 -10.17477 -10.17120
 Alpha  occ. eigenvalues --  -10.17109 -10.16794 -10.16368 -10.14918 -10.13492
 Alpha  occ. eigenvalues --   -0.84859  -0.84663  -0.84288  -0.83496  -0.82149
 Alpha  occ. eigenvalues --   -0.81021  -0.79079  -0.78380  -0.78187  -0.77318
 Alpha  occ. eigenvalues --   -0.76949  -0.75342  -0.74024  -0.71843  -0.71685
 Alpha  occ. eigenvalues --   -0.71073  -0.69678  -0.69403  -0.68272  -0.67825
 Alpha  occ. eigenvalues --   -0.67456  -0.66936  -0.66675  -0.66511  -0.65767
 Alpha  occ. eigenvalues --   -0.63029  -0.61803  -0.60049  -0.59317  -0.57108
 Alpha  occ. eigenvalues --   -0.56718  -0.55725  -0.55390  -0.53997  -0.52681
 Alpha  occ. eigenvalues --   -0.52564  -0.51409  -0.50010  -0.49410  -0.49037
 Alpha  occ. eigenvalues --   -0.48263  -0.47437  -0.47289  -0.46998  -0.46338
 Alpha  occ. eigenvalues --   -0.45862  -0.45344  -0.44685  -0.44541  -0.43695
 Alpha  occ. eigenvalues --   -0.43312  -0.42404  -0.42295  -0.42264  -0.42001
 Alpha  occ. eigenvalues --   -0.41822  -0.41402  -0.41235  -0.40803  -0.40748
 Alpha  occ. eigenvalues --   -0.40422  -0.40382  -0.39913  -0.39737  -0.39671
 Alpha  occ. eigenvalues --   -0.39128  -0.39086  -0.39037  -0.38624  -0.38269
 Alpha  occ. eigenvalues --   -0.38199  -0.37523  -0.37391  -0.36910  -0.36847
 Alpha  occ. eigenvalues --   -0.36355  -0.36289  -0.35693  -0.35420  -0.35156
 Alpha  occ. eigenvalues --   -0.34886  -0.34616  -0.34306  -0.33878  -0.33776
 Alpha  occ. eigenvalues --   -0.33612  -0.33266  -0.33087  -0.32712  -0.32689
 Alpha  occ. eigenvalues --   -0.32511  -0.31943  -0.31650  -0.30893  -0.30755
 Alpha  occ. eigenvalues --   -0.30536  -0.30224  -0.29369  -0.29067  -0.28117
 Alpha  occ. eigenvalues --   -0.27211  -0.26544  -0.25862  -0.24687  -0.23223
 Alpha  occ. eigenvalues --   -0.21515  -0.19612  -0.16948
 Alpha virt. eigenvalues --   -0.08345  -0.04694  -0.01632   0.00793   0.02488
 Alpha virt. eigenvalues --    0.03841   0.04802   0.05314   0.06270   0.06511
 Alpha virt. eigenvalues --    0.06805   0.07289   0.07749   0.08053   0.08289

 Mulliken charges:
               1
     1  C    0.009250
     2  C   -0.043151
     3  C   -0.178526
     4  C   -0.124727
     5  C   -0.193595
     6  C   -0.204986
     7  C    0.052411
     8  C    0.130915
     9  C   -0.196175
    10  C   -0.212678
    11  C    0.060931
    12  C   -0.007546
    13  C   -0.289114
    14  C   -0.307328
    15  C   -0.288677
    16  C   -0.296107
    17  C   -0.087508
    18  C   -0.164419
    19  C   -0.344715
    20  C   -0.332703
    21  C   -0.117949
    22  C   -0.105240
    23  C    0.124526
    24  C    0.068185
    25  C   -0.355455
    26  C   -0.359935
    27  C   -0.126837
    28  C   -0.088091
    29  C   -0.088572
    30  C   -0.075267
    31  C   -0.089269
    32  C   -0.127395
    33  C    0.134594
    34  C    0.141592
    35  C   -0.377093
    36  C   -0.373478
    37  C   -0.122575
    38  C   -0.127440
    39  C   -0.073147
    40  C   -0.103369
    41  H    0.082899
    42  H    0.095632
    43  H    0.096468
    44  H    0.091396
    45  H    0.104477
    46  H    0.113182
    47  H    0.069768
    48  H    0.103244
    49  H    0.084981
    50  H    0.073866
    51  H    0.093084
    52  H    0.092960
    53  H    0.123118
    54  H    0.107163
    55  H    0.035475
    56  H    0.117858
    57  H    0.062613
    58  H    0.096104
    59  H    0.104560
    60  H    0.091474
    61  H    0.098050
    62  H    0.084666
    63  H    0.103997
    64  H    0.101826
    65  H    0.086956
    66  H    0.068817
    67  H    0.123016
    68  H    0.064159
    69  H    0.107077
    70  H    0.136922
    71  H    0.084312
    72  H    0.097822
    73  H    0.079049
    74  H    0.078055
    75  H    0.132113
    76  H    0.082184
    77  H    0.096871
    78  H    0.133194
    79  H    0.126424
    80  H    0.116331
    81  H    0.090417
    82  H    0.083023
    83  H    0.061095
    84  H    0.066475
    85  H    0.070551
    86  H    0.057760
    87  H    0.133226
    88  H    0.106932
    89  H    0.087176
    90  H    0.131794
    91  H    0.109236
    92  H    0.118984
    93  H    0.070937
    94  H    0.084061
    95  H    0.076807
    96  H    0.070028
 Sum of Mulliken charges =  -0.00000

 Dipole moment (field-independent basis, Debye):
    X=              0.2882    Y=             -0.5494    Z=             -0.2033  Tot=              0.6528
 Quadrupole moment (field-independent basis, Debye-Ang):
   XX=           -211.3619   YY=           -234.0850   ZZ=           -257.6710
   XY=              5.0281   XZ=             -1.6288   YZ=              4.2871

 Normal termination of Gaussian 16 at Wed Jul 31 06:03:50 2019.
