 Gaussian 16, Revision A.03,
 Gaussian 16:  ES64L-G16RevA.03 25-Dec-2016

 ---------------------------------
 # td=(NStates=1) B3LYP/6-31G(d,p)
 ---------------------------------

 --
 TD
 --
 Symbolic Z-matrix:
 Charge =  0 Multiplicity = 1

                         Standard orientation:
 ---------------------------------------------------------------------
 Center     Atomic      Atomic             Coordinates (Angstroms)
 Number     Number       Type             X           Y           Z
 ---------------------------------------------------------------------
      1          6           0      -12.197507   -0.673889   -0.579633
      2          6           0       12.228066   -0.058889    0.865620
      3          6           0      -13.518896    0.109278   -0.533676
      4          6           0       12.904654   -1.291510    1.294100
      5          6           0      -13.263428    1.693241   -0.549770
      6          6           0       13.354037   -2.288503    0.154940
      7          6           0      -11.051673   -0.052624    0.206087
      8          6           0       10.939918   -0.441910   -0.069940
      9          6           0      -12.369641    2.010922    0.707392
     10          6           0       12.037877   -2.634328   -0.616790
     11          6           0      -11.128106    1.039804    0.891623
     12          6           0       11.025530   -1.622276   -0.765307
     13          6           0      -11.718194   -0.607148   -2.149765
     14          6           0      -12.453864   -2.094337   -0.223129
     15          6           0       13.161914    1.008809    0.099064
     16          6           0       11.658760    0.591043    2.116332
     17          6           0       -9.875943   -0.853271    0.500880
     18          6           0        9.923927    0.566685   -0.188097
     19          6           0      -10.178725    1.664476    1.925153
     20          6           0        9.908623   -1.980867   -1.705224
     21          6           0       -8.601218   -0.411500    0.010726
     22          6           0        8.572083    0.335453   -0.233891
     23          6           0       -7.372180   -1.227091    0.268408
     24          6           0        7.520069    1.357226   -0.352689
     25          6           0       -7.394451   -2.670199    0.864827
     26          6           0        7.960560    2.869375   -0.312549
     27          6           0       -6.209156   -0.557281    0.086231
     28          6           0        6.259773    0.983772   -0.267354
     29          6           0       -4.882579   -1.212142    0.094242
     30          6           0        5.046326    1.629796   -0.600555
     31          6           0       -3.705707   -0.641369    0.136234
     32          6           0        3.872322    1.113265   -0.370521
     33          6           0       -2.303231   -1.157980    0.265206
     34          6           0        2.469131    1.852759   -0.455869
     35          6           0       -2.336914   -2.617249    0.657577
     36          6           0        2.689024    3.342342   -0.703487
     37          6           0       -1.192244   -0.373368    0.080520
     38          6           0        1.398556    1.145576   -0.259166
     39          6           0       -1.164325    1.013045   -0.233579
     40          6           0        0.053954    1.677527   -0.350989
     41          1           0      -13.925951   -0.117041    0.430803
     42          1           0      -14.158175   -0.366683   -1.314368
     43          1           0       12.326147   -1.921659    1.993007
     44          1           0       13.912359   -1.079268    1.766791
     45          1           0      -14.270893    2.159113   -0.139031
     46          1           0      -12.977140    2.079792   -1.370543
     47          1           0       13.917469   -3.183955    0.580279
     48          1           0       14.063960   -1.851876   -0.578643
     49          1           0      -12.931602    2.128772    1.594079
     50          1           0      -12.192622    3.134080    0.681363
     51          1           0       11.528253   -3.407773   -0.151955
     52          1           0       12.481978   -3.199549   -1.706140
     53          1           0      -11.552339    0.319607   -2.410997
     54          1           0      -12.524511   -1.055078   -2.926414
     55          1           0      -10.984325   -1.277559   -2.222612
     56          1           0      -12.556974   -2.146492    0.866838
     57          1           0      -11.631342   -2.510947   -0.629328
     58          1           0      -13.437007   -2.530560   -0.631416
     59          1           0       13.709392    0.591580   -0.798172
     60          1           0       13.895385    1.455622    0.805735
     61          1           0       12.446594    1.815369   -0.014631
     62          1           0       10.892017   -0.267273    2.605045
     63          1           0       11.205342    1.400672    1.938016
     64          1           0       12.488084    0.964799    2.826839
     65          1           0      -10.033704   -1.911769    1.009923
     66          1           0       10.256078    1.631134   -0.320219
     67          1           0       -9.402681    0.759124    1.932095
     68          1           0      -10.719881    2.043578    2.839541
     69          1           0       -9.856410    2.546584    1.295959
     70          1           0        9.141454   -1.421890   -1.912291
     71          1           0        9.267660   -2.833816   -1.522505
     72          1           0       10.238203   -2.460988   -2.731582
     73          1           0       -8.523571    0.642095   -0.361817
     74          1           0        8.109406   -0.674256   -0.120063
     75          1           0       -7.903595   -2.816118    1.873966
     76          1           0       -6.360622   -3.099940    0.799705
     77          1           0       -8.139088   -3.472135    0.140884
     78          1           0        8.965001    3.019079   -1.021514
     79          1           0        8.172594    3.244247    0.700273
     80          1           0        7.164483    3.412018   -0.786675
     81          1           0       -6.258940    0.573296   -0.127472
     82          1           0        6.239886    0.006169   -0.220236
     83          1           0       -4.965618   -2.341596    0.497755
     84          1           0        5.018838    2.571594   -0.741585
     85          1           0       -3.869691    0.340186   -0.171874
     86          1           0        3.423414    0.002379   -0.391991
     87          1           0       -2.960020   -3.018643    1.596369
     88          1           0       -1.285409   -2.886144    0.920836
     89          1           0       -2.645053   -3.067828   -0.102181
     90          1           0        3.193720    3.753311   -1.554240
     91          1           0        3.235661    3.868670    0.150183
     92          1           0        1.687314    3.734542   -0.814370
     93          1           0       -0.457159   -0.980075    0.293933
     94          1           0        1.343043   -0.130436   -0.025795
     95          1           0       -2.148026    1.784864   -0.188539
     96          1           0       -0.054107    2.829091   -0.350108
 ---------------------------------------------------------------------

 SCF Done:  E(RB3LYP) =  -1557.42829814     A.U. after   14 cycles

 Excitation energies and oscillator strengths:

 Excited State   1:      Singlet-A      2.6033 eV  476.26 nm  f=2.5972  <S**2>=0.000
     148 ->149         0.70440
 This state for optimization and/or second-order correction.
 Total Energy, E(TD-HF/TD-DFT) =  -1557.33263004
 Copying the excited state density for this state as the 1-particle RhoCI density.

 The electronic state is 1-A.
 Alpha  occ. eigenvalues --  -10.21484 -10.21279 -10.20873 -10.20794 -10.20739
 Alpha  occ. eigenvalues --  -10.20568 -10.20346 -10.20211 -10.20164 -10.19930
 Alpha  occ. eigenvalues --  -10.19752 -10.19713 -10.19558 -10.19548 -10.19454
 Alpha  occ. eigenvalues --  -10.19281 -10.19210 -10.19111 -10.19095 -10.19089
 Alpha  occ. eigenvalues --  -10.18952 -10.18772 -10.18655 -10.18642 -10.18529
 Alpha  occ. eigenvalues --  -10.18405 -10.18205 -10.18005 -10.17971 -10.17622
 Alpha  occ. eigenvalues --  -10.17595 -10.17553 -10.17347 -10.17239 -10.17230
 Alpha  occ. eigenvalues --  -10.17148 -10.16645 -10.16606 -10.16407 -10.15631
 Alpha  occ. eigenvalues --   -0.85085  -0.84728  -0.83979  -0.83372  -0.82167
 Alpha  occ. eigenvalues --   -0.81221  -0.79047  -0.78763  -0.78475  -0.77356
 Alpha  occ. eigenvalues --   -0.76460  -0.75497  -0.74423  -0.72174  -0.71165
 Alpha  occ. eigenvalues --   -0.70842  -0.68618  -0.68543  -0.68427  -0.68006
 Alpha  occ. eigenvalues --   -0.67764  -0.67564  -0.67206  -0.66961  -0.66357
 Alpha  occ. eigenvalues --   -0.62634  -0.61778  -0.60331  -0.59388  -0.57385
 Alpha  occ. eigenvalues --   -0.56566  -0.55486  -0.55160  -0.54657  -0.52955
 Alpha  occ. eigenvalues --   -0.52244  -0.51724  -0.50750  -0.49805  -0.48531
 Alpha  occ. eigenvalues --   -0.48383  -0.47425  -0.46945  -0.46745  -0.46050
 Alpha  occ. eigenvalues --   -0.45936  -0.45489  -0.44370  -0.44175  -0.43924
 Alpha  occ. eigenvalues --   -0.43565  -0.43163  -0.42967  -0.42552  -0.42158
 Alpha  occ. eigenvalues --   -0.41904  -0.41449  -0.41396  -0.41289  -0.41096
 Alpha  occ. eigenvalues --   -0.40815  -0.40154  -0.39727  -0.39590  -0.39477
 Alpha  occ. eigenvalues --   -0.39353  -0.38917  -0.38434  -0.38334  -0.38111
 Alpha  occ. eigenvalues --   -0.37811  -0.37710  -0.37590  -0.37060  -0.36622
 Alpha  occ. eigenvalues --   -0.36610  -0.36235  -0.35941  -0.35759  -0.35298
 Alpha  occ. eigenvalues --   -0.35232  -0.35113  -0.34867  -0.34226  -0.33698
 Alpha  occ. eigenvalues --   -0.33470  -0.33308  -0.33101  -0.32947  -0.32646
 Alpha  occ. eigenvalues --   -0.32167  -0.31605  -0.31023  -0.30684  -0.30324
 Alpha  occ. eigenvalues --   -0.30113  -0.29716  -0.29318  -0.28998  -0.28392
 Alpha  occ. eigenvalues --   -0.27155  -0.26563  -0.26321  -0.24003  -0.23274
 Alpha  occ. eigenvalues --   -0.21405  -0.19281  -0.17763
 Alpha virt. eigenvalues --   -0.07322  -0.04852  -0.02349   0.00757   0.02520
 Alpha virt. eigenvalues --    0.03755   0.04643   0.05272   0.05890   0.06683
 Alpha virt. eigenvalues --    0.07323   0.07837   0.08099   0.08236   0.08344

 Mulliken charges:
               1
     1  C   -0.032606
     2  C    0.002518
     3  C   -0.157323
     4  C   -0.166224
     5  C   -0.182173
     6  C   -0.198221
     7  C    0.097811
     8  C    0.044937
     9  C   -0.237971
    10  C   -0.220558
    11  C    0.060887
    12  C    0.115690
    13  C   -0.295245
    14  C   -0.294650
    15  C   -0.309154
    16  C   -0.264383
    17  C   -0.192878
    18  C   -0.140872
    19  C   -0.340663
    20  C   -0.366114
    21  C   -0.105284
    22  C   -0.096079
    23  C    0.136322
    24  C    0.109777
    25  C   -0.348171
    26  C   -0.367439
    27  C   -0.119167
    28  C   -0.097091
    29  C   -0.096498
    30  C   -0.065994
    31  C   -0.074448
    32  C   -0.089573
    33  C    0.038393
    34  C    0.115057
    35  C   -0.355034
    36  C   -0.383961
    37  C   -0.050207
    38  C   -0.104150
    39  C   -0.100927
    40  C   -0.100039
    41  H    0.083975
    42  H    0.083819
    43  H    0.092562
    44  H    0.077963
    45  H    0.070497
    46  H    0.106607
    47  H    0.085302
    48  H    0.097024
    49  H    0.106423
    50  H    0.077592
    51  H    0.126907
    52  H    0.050437
    53  H    0.110993
    54  H    0.058572
    55  H    0.112712
    56  H    0.098597
    57  H    0.111952
    58  H    0.092219
    59  H    0.108618
    60  H    0.097004
    61  H    0.104280
    62  H    0.074787
    63  H    0.104972
    64  H    0.077764
    65  H    0.093078
    66  H    0.088344
    67  H    0.109573
    68  H    0.109916
    69  H    0.113157
    70  H    0.122776
    71  H    0.102897
    72  H    0.079441
    73  H    0.099287
    74  H    0.079681
    75  H    0.127314
    76  H    0.117283
    77  H    0.064893
    78  H    0.081842
    79  H    0.131701
    80  H    0.113208
    81  H    0.078994
    82  H    0.061339
    83  H    0.047659
    84  H    0.063168
    85  H    0.062301
    86  H    0.061555
    87  H    0.104836
    88  H    0.091615
    89  H    0.149523
    90  H    0.132896
    91  H    0.121848
    92  H    0.105748
    93  H    0.060322
    94  H    0.073475
    95  H    0.092244
    96  H    0.078209
 Sum of Mulliken charges =  -0.00000

 Dipole moment (field-independent basis, Debye):
    X=             -0.0145    Y=              0.4768    Z=              0.6470  Tot=              0.8039
 Quadrupole moment (field-independent basis, Debye-Ang):
   XX=           -239.1293   YY=           -232.8112   ZZ=           -256.9752
   XY=              1.4188   XZ=             -4.1689   YZ=             -3.1837

 Normal termination of Gaussian 16 at Thu Aug  1 19:42:10 2019.
