 Gaussian 16, Revision A.03,
 Gaussian 16:  ES64L-G16RevA.03 25-Dec-2016

 ---------------------------------
 # td=(NStates=1) B3LYP/6-31G(d,p)
 ---------------------------------

 --
 TD
 --
 Symbolic Z-matrix:
 Charge =  0 Multiplicity = 1

                         Standard orientation:
 ---------------------------------------------------------------------
 Center     Atomic      Atomic             Coordinates (Angstroms)
 Number     Number       Type             X           Y           Z
 ---------------------------------------------------------------------
      1          6           0      -12.227955   -0.499742   -0.695682
      2          6           0       12.156306   -0.018640    1.071208
      3          6           0      -13.471671    0.439193   -0.521083
      4          6           0       12.876163   -1.279103    1.481706
      5          6           0      -13.083620    1.926786   -0.536188
      6          6           0       13.427507   -2.001705    0.279583
      7          6           0      -11.111827   -0.035183    0.317030
      8          6           0       11.071736   -0.316099   -0.038038
      9          6           0      -12.327110    2.152300    0.794789
     10          6           0       12.262424   -2.422045   -0.570019
     11          6           0      -11.256506    1.141141    1.008907
     12          6           0       11.194394   -1.427426   -0.820053
     13          6           0      -11.781958   -0.457776   -2.167931
     14          6           0      -12.593445   -1.965382   -0.345209
     15          6           0       13.089203    1.181826    0.566394
     16          6           0       11.435086    0.424150    2.384195
     17          6           0       -9.883461   -0.861255    0.462901
     18          6           0        9.875930    0.668167   -0.251934
     19          6           0      -10.243320    1.545186    2.148432
     20          6           0       10.235069   -1.771941   -1.997534
     21          6           0       -8.564183   -0.441045    0.323884
     22          6           0        8.670864    0.421182   -0.308316
     23          6           0       -7.369786   -1.327277    0.389552
     24          6           0        7.547246    1.236743   -0.529433
     25          6           0       -7.650458   -2.837716    0.714851
     26          6           0        7.865989    2.707268   -0.830291
     27          6           0       -6.123475   -0.807521    0.192354
     28          6           0        6.256839    0.852481   -0.543262
     29          6           0       -4.929604   -1.432777    0.423233
     30          6           0        5.030046    1.675089   -0.586835
     31          6           0       -3.774552   -0.798856   -0.109807
     32          6           0        3.883884    1.077353   -0.378369
     33          6           0       -2.396202   -1.300930    0.052570
     34          6           0        2.589248    1.632503   -0.487080
     35          6           0       -2.359526   -2.784526    0.331181
     36          6           0        2.635562    3.263356   -0.600783
     37          6           0       -1.265239   -0.633920   -0.021621
     38          6           0        1.406647    0.970388   -0.276643
     39          6           0       -1.162750    0.888884   -0.157395
     40          6           0        0.017276    1.564385   -0.259666
     41          1           0      -13.875530    0.010530    0.512991
     42          1           0      -14.135130    0.315945   -1.375830
     43          1           0       12.012905   -1.900521    1.909432
     44          1           0       13.506850   -1.298569    2.326077
     45          1           0      -13.897079    2.765491   -0.653014
     46          1           0      -12.392847    2.274380   -1.362482
     47          1           0       13.901583   -3.100210    0.493348
     48          1           0       14.277096   -1.586053   -0.299560
     49          1           0      -13.028281    2.090335    1.639904
     50          1           0      -11.881305    3.060603    0.832848
     51          1           0       11.960765   -3.463754   -0.262597
     52          1           0       12.649734   -2.849953   -1.592591
     53          1           0      -11.455894    0.591216   -2.339275
     54          1           0      -12.619468   -0.692421   -2.766323
     55          1           0      -10.956941   -1.399613   -2.432658
     56          1           0      -13.137193   -1.970587    0.667576
     57          1           0      -11.659413   -2.564951   -0.473056
     58          1           0      -13.491221   -2.303979   -0.980503
     59          1           0       13.602846    1.038200   -0.322664
     60          1           0       13.787762    1.321189    1.386308
     61          1           0       12.422014    2.096689    0.382460
     62          1           0       10.641154   -0.307468    2.639728
     63          1           0       10.807392    1.331538    2.344048
     64          1           0       12.161383    0.504346    3.460124
     65          1           0       -9.886933   -1.837648    0.418111
     66          1           0       10.139822    1.622147   -0.322619
     67          1           0       -9.349680    0.733434    2.352264
     68          1           0      -10.863449    1.820050    3.096589
     69          1           0       -9.824457    2.505096    1.980931
     70          1           0        9.578785   -0.806720   -2.344584
     71          1           0        9.616113   -2.736376   -1.964682
     72          1           0       10.963884   -2.150363   -2.951869
     73          1           0       -8.403307    0.555848    0.178108
     74          1           0        8.249681   -0.604033   -0.264139
     75          1           0       -8.322896   -2.869737    1.529018
     76          1           0       -6.736918   -3.502319    0.845474
     77          1           0       -8.034567   -3.126510   -0.361422
     78          1           0        8.183138    2.771506   -1.856293
     79          1           0        8.450860    2.987273    0.036501
     80          1           0        7.074811    3.422602   -0.848249
     81          1           0       -6.124972    0.291708    0.141790
     82          1           0        6.004732   -0.141754   -0.436418
     83          1           0       -4.994538   -2.466327    0.427132
     84          1           0        5.208980    2.765581   -0.772918
     85          1           0       -3.754746    0.209181   -0.435877
     86          1           0        3.855670   -0.041758   -0.333184
     87          1           0       -3.041637   -3.066457    1.152698
     88          1           0       -1.222144   -2.929183    0.507169
     89          1           0       -2.713912   -3.148904   -0.591901
     90          1           0        2.831846    3.430892   -1.707764
     91          1           0        3.435233    3.759185    0.147377
     92          1           0        1.792221    3.874196   -0.468031
     93          1           0       -0.290751   -1.246017    0.398447
     94          1           0        1.397661   -0.078971   -0.327720
     95          1           0       -2.122829    1.387811   -0.135344
     96          1           0       -0.001526    2.569084   -0.280482
 ---------------------------------------------------------------------

 SCF Done:  E(RB3LYP) =  -1557.58706374     A.U. after   15 cycles

 Excitation energies and oscillator strengths:

 Excited State   1:      Singlet-A      2.4897 eV  497.99 nm  f=2.5912  <S**2>=0.000
     148 ->149         0.70214
 This state for optimization and/or second-order correction.
 Total Energy, E(TD-HF/TD-DFT) =  -1557.49556909
 Copying the excited state density for this state as the 1-particle RhoCI density.

 The electronic state is 1-A.
 Alpha  occ. eigenvalues --  -10.20989 -10.20558 -10.20541 -10.20378 -10.20192
 Alpha  occ. eigenvalues --  -10.19852 -10.19772 -10.19705 -10.19594 -10.19484
 Alpha  occ. eigenvalues --  -10.19418 -10.19376 -10.19341 -10.19336 -10.19263
 Alpha  occ. eigenvalues --  -10.18999 -10.18979 -10.18968 -10.18946 -10.18940
 Alpha  occ. eigenvalues --  -10.18915 -10.18906 -10.18734 -10.18676 -10.18666
 Alpha  occ. eigenvalues --  -10.18608 -10.18514 -10.18452 -10.18451 -10.18412
 Alpha  occ. eigenvalues --  -10.17905 -10.17838 -10.17808 -10.17795 -10.17730
 Alpha  occ. eigenvalues --  -10.17459 -10.17333 -10.17175 -10.17115 -10.16921
 Alpha  occ. eigenvalues --   -0.84989  -0.84546  -0.83739  -0.83551  -0.82273
 Alpha  occ. eigenvalues --   -0.81647  -0.78955  -0.78225  -0.78001  -0.77415
 Alpha  occ. eigenvalues --   -0.76710  -0.74876  -0.74155  -0.72463  -0.71387
 Alpha  occ. eigenvalues --   -0.69226  -0.68232  -0.68190  -0.67978  -0.67284
 Alpha  occ. eigenvalues --   -0.67174  -0.66999  -0.66425  -0.66206  -0.65878
 Alpha  occ. eigenvalues --   -0.63032  -0.62465  -0.59561  -0.59255  -0.57439
 Alpha  occ. eigenvalues --   -0.56854  -0.55526  -0.54941  -0.54648  -0.53397
 Alpha  occ. eigenvalues --   -0.52977  -0.52409  -0.50898  -0.50372  -0.48847
 Alpha  occ. eigenvalues --   -0.48070  -0.47237  -0.47111  -0.46825  -0.46130
 Alpha  occ. eigenvalues --   -0.45467  -0.45023  -0.44598  -0.44397  -0.44075
 Alpha  occ. eigenvalues --   -0.43692  -0.43072  -0.42974  -0.42835  -0.42435
 Alpha  occ. eigenvalues --   -0.42104  -0.41921  -0.41629  -0.41414  -0.41037
 Alpha  occ. eigenvalues --   -0.40687  -0.40034  -0.39976  -0.39722  -0.39666
 Alpha  occ. eigenvalues --   -0.39024  -0.38914  -0.38497  -0.38301  -0.37644
 Alpha  occ. eigenvalues --   -0.37325  -0.36950  -0.36539  -0.36389  -0.36241
 Alpha  occ. eigenvalues --   -0.36060  -0.36022  -0.35839  -0.35544  -0.34967
 Alpha  occ. eigenvalues --   -0.34691  -0.34683  -0.34412  -0.34001  -0.33549
 Alpha  occ. eigenvalues --   -0.33464  -0.33305  -0.32935  -0.32672  -0.32481
 Alpha  occ. eigenvalues --   -0.31901  -0.31629  -0.31580  -0.31177  -0.30805
 Alpha  occ. eigenvalues --   -0.30262  -0.30108  -0.29840  -0.29250  -0.29105
 Alpha  occ. eigenvalues --   -0.28474  -0.27783  -0.26607  -0.24186  -0.22747
 Alpha  occ. eigenvalues --   -0.21784  -0.19199  -0.17363
 Alpha virt. eigenvalues --   -0.07547  -0.05371  -0.01057   0.00440   0.02619
 Alpha virt. eigenvalues --    0.04226   0.05566   0.06824   0.07105   0.07264
 Alpha virt. eigenvalues --    0.08331   0.08492   0.08847   0.08909   0.09324

 Mulliken charges:
               1
     1  C   -0.016639
     2  C    0.008406
     3  C   -0.169079
     4  C   -0.169293
     5  C   -0.193541
     6  C   -0.178275
     7  C    0.087592
     8  C    0.022192
     9  C   -0.211571
    10  C   -0.229446
    11  C    0.053958
    12  C    0.124618
    13  C   -0.270521
    14  C   -0.296730
    15  C   -0.299239
    16  C   -0.294376
    17  C   -0.127954
    18  C   -0.163290
    19  C   -0.359414
    20  C   -0.349967
    21  C   -0.088015
    22  C   -0.012757
    23  C    0.073617
    24  C    0.095174
    25  C   -0.368517
    26  C   -0.376838
    27  C   -0.102607
    28  C   -0.138960
    29  C   -0.091197
    30  C   -0.046700
    31  C   -0.103247
    32  C   -0.111938
    33  C    0.110360
    34  C    0.108581
    35  C   -0.359513
    36  C   -0.369647
    37  C   -0.138951
    38  C   -0.128028
    39  C   -0.104415
    40  C   -0.073156
    41  H    0.085179
    42  H    0.090462
    43  H    0.094031
    44  H    0.096260
    45  H    0.077350
    46  H    0.098711
    47  H    0.056713
    48  H    0.103479
    49  H    0.108711
    50  H    0.103523
    51  H    0.108205
    52  H    0.072152
    53  H    0.102899
    54  H    0.109005
    55  H    0.061089
    56  H    0.091317
    57  H    0.108323
    58  H    0.088634
    59  H    0.114308
    60  H    0.104018
    61  H    0.091916
    62  H    0.107785
    63  H    0.097429
    64  H    0.055861
    65  H    0.064194
    66  H    0.076747
    67  H    0.106037
    68  H    0.088149
    69  H    0.114638
    70  H    0.106186
    71  H    0.112616
    72  H    0.065469
    73  H    0.076634
    74  H    0.069836
    75  H    0.136931
    76  H    0.104382
    77  H    0.118958
    78  H    0.128006
    79  H    0.117957
    80  H    0.100651
    81  H    0.075005
    82  H    0.061859
    83  H    0.090117
    84  H    0.088686
    85  H    0.074507
    86  H    0.077909
    87  H    0.118113
    88  H    0.085936
    89  H    0.133778
    90  H    0.115484
    91  H    0.098431
    92  H    0.112985
    93  H    0.072099
    94  H    0.076921
    95  H    0.090881
    96  H    0.071863
 Sum of Mulliken charges =  -0.00000

 Dipole moment (field-independent basis, Debye):
    X=             -1.3196    Y=              0.4525    Z=             -0.3154  Tot=              1.4303
 Quadrupole moment (field-independent basis, Debye-Ang):
   XX=           -224.1704   YY=           -235.0013   ZZ=           -255.6704
   XY=             -5.0455   XZ=              2.2673   YZ=             -1.6611

 Normal termination of Gaussian 16 at Mon Jul 29 22:57:06 2019.
