 Gaussian 16, Revision A.03,
 Gaussian 16:  ES64L-G16RevA.03 25-Dec-2016

 ---------------------------------
 # td=(NStates=1) B3LYP/6-31G(d,p)
 ---------------------------------

 --
 TD
 --
 Symbolic Z-matrix:
 Charge =  0 Multiplicity = 1

                         Standard orientation:
 ---------------------------------------------------------------------
 Center     Atomic      Atomic             Coordinates (Angstroms)
 Number     Number       Type             X           Y           Z
 ---------------------------------------------------------------------
      1          6           0       12.066572    0.404279   -0.723938
      2          6           0      -12.069559   -0.202345    0.913656
      3          6           0       13.278404   -0.520591   -0.579901
      4          6           0      -13.000462    0.949784    1.407061
      5          6           0       12.987586   -1.968786   -0.412844
      6          6           0      -13.333499    1.909062    0.287239
      7          6           0       10.950355   -0.008215    0.317420
      8          6           0      -10.980205    0.405265   -0.012954
      9          6           0       12.160896   -2.256539    0.888119
     10          6           0      -12.138665    2.593737   -0.416745
     11          6           0       10.987782   -1.145651    1.029411
     12          6           0      -10.963537    1.664556   -0.626868
     13          6           0       11.443395    0.342084   -2.047170
     14          6           0       12.494387    1.889309   -0.473182
     15          6           0      -12.895837   -1.296222    0.335624
     16          6           0      -11.332786   -0.856440    2.150472
     17          6           0        9.867561    0.970974    0.367377
     18          6           0       -9.903494   -0.551593   -0.274655
     19          6           0       10.060333   -1.638677    2.017298
     20          6           0      -10.007056    2.152417   -1.673247
     21          6           0        8.551526    0.567395    0.246281
     22          6           0       -8.546229   -0.222800   -0.396983
     23          6           0        7.362451    1.397472    0.327734
     24          6           0       -7.447514   -1.249310   -0.506715
     25          6           0        7.589371    2.846982    0.656546
     26          6           0       -7.857034   -2.717474   -0.720392
     27          6           0        6.095595    0.887581    0.207358
     28          6           0       -6.141346   -0.774606   -0.443933
     29          6           0        4.827029    1.527839    0.302639
     30          6           0       -4.874974   -1.507566   -0.674806
     31          6           0        3.682403    0.844322    0.143545
     32          6           0       -3.698980   -0.900419   -0.443543
     33          6           0        2.306382    1.410587    0.216568
     34          6           0       -2.386231   -1.738638   -0.560180
     35          6           0        2.271113    2.831646    0.466444
     36          6           0       -2.456087   -3.213134   -0.832886
     37          6           0        1.286299    0.639274    0.074705
     38          6           0       -1.264425   -0.953141   -0.325590
     39          6           0        1.214841   -0.857633   -0.111843
     40          6           0        0.037734   -1.533148   -0.330027
     41          1           0       13.807146   -0.271970    0.266119
     42          1           0       13.914924   -0.457214   -1.418903
     43          1           0      -12.313196    1.193310    2.295566
     44          1           0      -14.006599    0.673454    1.800417
     45          1           0       13.782501   -2.588258   -0.552014
     46          1           0       12.431907   -2.447903   -1.205400
     47          1           0      -14.260786    2.668411    0.510166
     48          1           0      -13.686632    1.291725   -0.436438
     49          1           0       12.910941   -2.067530    1.666082
     50          1           0       11.788843   -3.159906    1.031242
     51          1           0      -11.754038    3.444611    0.065399
     52          1           0      -12.607253    3.149948   -1.305662
     53          1           0       11.165094   -0.610988   -2.505164
     54          1           0       12.135580    0.827418   -2.822515
     55          1           0       10.465726    0.994387   -2.140211
     56          1           0       12.641976    2.056674    0.827424
     57          1           0       11.863797    2.606409   -0.662474
     58          1           0       13.183804    2.175310   -0.941079
     59          1           0      -13.493875   -0.960450   -0.463882
     60          1           0      -13.816328   -1.852910    0.968614
     61          1           0      -12.270552   -2.124887   -0.076442
     62          1           0      -10.823816   -0.162827    2.880693
     63          1           0      -10.695586   -1.639506    1.793017
     64          1           0      -12.028046   -1.406054    2.732807
     65          1           0       10.153045    2.130561    0.602263
     66          1           0      -10.131948   -1.689381    0.089470
     67          1           0        9.361520   -0.980632    2.440425
     68          1           0       10.764437   -2.086781    2.760826
     69          1           0        9.623370   -2.639377    1.587808
     70          1           0       -9.780585    1.243109   -2.346424
     71          1           0       -8.917934    2.645442   -1.122171
     72          1           0      -10.605254    2.930239   -2.299191
     73          1           0        8.408257   -0.481118    0.054007
     74          1           0       -8.202153    0.885177   -0.308358
     75          1           0        8.422872    2.799339    1.714722
     76          1           0        6.661983    3.553381    0.759963
     77          1           0        8.198407    3.376645   -0.054820
     78          1           0       -8.284102   -2.929812   -1.797409
     79          1           0       -8.429568   -3.121433    0.131225
     80          1           0       -6.974514   -3.566047   -0.517039
     81          1           0        6.196875   -0.263077   -0.032220
     82          1           0       -6.137668    0.254184   -0.268719
     83          1           0        4.809896    2.442692    0.517671
     84          1           0       -4.866094   -2.573625   -0.769613
     85          1           0        3.844862   -0.126257   -0.207780
     86          1           0       -3.508212    0.222511   -0.271622
     87          1           0        2.539575    2.980049    1.680954
     88          1           0        1.138089    3.085728    0.251144
     89          1           0        2.698273    3.447685   -0.143714
     90          1           0       -2.993719   -3.254821   -1.705767
     91          1           0       -3.052579   -3.708816   -0.025953
     92          1           0       -1.564031   -3.726236   -0.983666
     93          1           0        0.177431    1.199358   -0.008435
     94          1           0       -1.411038   -0.074509    0.021716
     95          1           0        2.162193   -1.424034   -0.080939
     96          1           0        0.018197   -2.611214   -0.578254
 ---------------------------------------------------------------------

 SCF Done:  E(RB3LYP) =  -1557.48813783     A.U. after   15 cycles

 Excitation energies and oscillator strengths:

 Excited State   1:      Singlet-A      2.4848 eV  498.97 nm  f=2.6222  <S**2>=0.000
     148 ->149         0.70414
 This state for optimization and/or second-order correction.
 Total Energy, E(TD-HF/TD-DFT) =  -1557.39682304
 Copying the excited state density for this state as the 1-particle RhoCI density.

 The electronic state is 1-A.
 Alpha  occ. eigenvalues --  -10.20998 -10.20816 -10.20747 -10.20610 -10.20375
 Alpha  occ. eigenvalues --  -10.20191 -10.20078 -10.20040 -10.19791 -10.19628
 Alpha  occ. eigenvalues --  -10.19595 -10.19577 -10.19529 -10.19475 -10.19388
 Alpha  occ. eigenvalues --  -10.19339 -10.19051 -10.18966 -10.18965 -10.18820
 Alpha  occ. eigenvalues --  -10.18781 -10.18718 -10.18600 -10.18254 -10.18224
 Alpha  occ. eigenvalues --  -10.18206 -10.18147 -10.18115 -10.17946 -10.17843
 Alpha  occ. eigenvalues --  -10.17651 -10.17584 -10.17432 -10.17255 -10.17225
 Alpha  occ. eigenvalues --  -10.17033 -10.16685 -10.16283 -10.16111 -10.15789
 Alpha  occ. eigenvalues --   -0.84725  -0.84694  -0.83996  -0.82815  -0.81573
 Alpha  occ. eigenvalues --   -0.80698  -0.79019  -0.78713  -0.78343  -0.77674
 Alpha  occ. eigenvalues --   -0.76561  -0.75822  -0.74328  -0.72423  -0.71297
 Alpha  occ. eigenvalues --   -0.71187  -0.69451  -0.68372  -0.67907  -0.67531
 Alpha  occ. eigenvalues --   -0.67394  -0.67040  -0.67005  -0.66771  -0.66233
 Alpha  occ. eigenvalues --   -0.62067  -0.61202  -0.60106  -0.59328  -0.57255
 Alpha  occ. eigenvalues --   -0.56907  -0.55758  -0.55265  -0.54622  -0.53574
 Alpha  occ. eigenvalues --   -0.52823  -0.51557  -0.50283  -0.49093  -0.48835
 Alpha  occ. eigenvalues --   -0.48068  -0.47862  -0.46787  -0.46357  -0.46192
 Alpha  occ. eigenvalues --   -0.45785  -0.45311  -0.44993  -0.44215  -0.43966
 Alpha  occ. eigenvalues --   -0.43599  -0.43089  -0.42955  -0.42674  -0.42542
 Alpha  occ. eigenvalues --   -0.42151  -0.41875  -0.41653  -0.41476  -0.40973
 Alpha  occ. eigenvalues --   -0.40738  -0.40462  -0.39731  -0.39128  -0.39023
 Alpha  occ. eigenvalues --   -0.38881  -0.38742  -0.38649  -0.38349  -0.37961
 Alpha  occ. eigenvalues --   -0.37928  -0.37524  -0.37183  -0.37096  -0.36543
 Alpha  occ. eigenvalues --   -0.36424  -0.36055  -0.35828  -0.35499  -0.35421
 Alpha  occ. eigenvalues --   -0.34634  -0.34376  -0.34252  -0.33736  -0.33375
 Alpha  occ. eigenvalues --   -0.33216  -0.33191  -0.33077  -0.32868  -0.32314
 Alpha  occ. eigenvalues --   -0.32228  -0.31904  -0.31300  -0.31088  -0.30808
 Alpha  occ. eigenvalues --   -0.30300  -0.30257  -0.29726  -0.28831  -0.28247
 Alpha  occ. eigenvalues --   -0.27801  -0.27631  -0.26481  -0.24231  -0.22660
 Alpha  occ. eigenvalues --   -0.20725  -0.18536  -0.16973
 Alpha virt. eigenvalues --   -0.07022  -0.04952  -0.02267   0.01132   0.02456
 Alpha virt. eigenvalues --    0.03976   0.05135   0.06557   0.06980   0.07266
 Alpha virt. eigenvalues --    0.07400   0.07605   0.08144   0.08474   0.08860

 Mulliken charges:
               1
     1  C    0.016346
     2  C   -0.034100
     3  C   -0.164221
     4  C   -0.153724
     5  C   -0.198594
     6  C   -0.194177
     7  C    0.048783
     8  C    0.117165
     9  C   -0.228561
    10  C   -0.222061
    11  C    0.075061
    12  C    0.057495
    13  C   -0.295522
    14  C   -0.256394
    15  C   -0.288829
    16  C   -0.305614
    17  C   -0.140588
    18  C   -0.155290
    19  C   -0.362788
    20  C   -0.340157
    21  C   -0.106011
    22  C   -0.104891
    23  C    0.151572
    24  C    0.112711
    25  C   -0.363397
    26  C   -0.364224
    27  C   -0.143059
    28  C   -0.120238
    29  C   -0.030573
    30  C   -0.093551
    31  C   -0.096689
    32  C   -0.092390
    33  C    0.139810
    34  C    0.075641
    35  C   -0.353427
    36  C   -0.378774
    37  C   -0.133997
    38  C   -0.060846
    39  C   -0.095367
    40  C   -0.101232
    41  H    0.102232
    42  H    0.086631
    43  H    0.081222
    44  H    0.085294
    45  H    0.089228
    46  H    0.087660
    47  H    0.062397
    48  H    0.123215
    49  H    0.104693
    50  H    0.099465
    51  H    0.117146
    52  H    0.084185
    53  H    0.104965
    54  H    0.073991
    55  H    0.095211
    56  H    0.042306
    57  H    0.107813
    58  H    0.092251
    59  H    0.108807
    60  H    0.073068
    61  H    0.093516
    62  H    0.097583
    63  H    0.096961
    64  H    0.104823
    65  H    0.082206
    66  H    0.074105
    67  H    0.121789
    68  H    0.107039
    69  H    0.097981
    70  H    0.129261
    71  H    0.075916
    72  H    0.099835
    73  H    0.084687
    74  H    0.081466
    75  H    0.064393
    76  H    0.096389
    77  H    0.127756
    78  H    0.120821
    79  H    0.125286
    80  H    0.071509
    81  H    0.058359
    82  H    0.071609
    83  H    0.052325
    84  H    0.085873
    85  H    0.072971
    86  H    0.086292
    87  H    0.100308
    88  H    0.081267
    89  H    0.135045
    90  H    0.141193
    91  H    0.127002
    92  H    0.119716
    93  H    0.052566
    94  H    0.064200
    95  H    0.086811
    96  H    0.074058
 Sum of Mulliken charges =  -0.00000

 Dipole moment (field-independent basis, Debye):
    X=             -0.5128    Y=             -0.8740    Z=             -0.5556  Tot=              1.1557
 Quadrupole moment (field-independent basis, Debye-Ang):
   XX=           -226.9365   YY=           -231.1116   ZZ=           -256.0749
   XY=             -1.4458   XZ=             -1.0233   YZ=             -0.6918

 Normal termination of Gaussian 16 at Sat Jul 27 00:35:30 2019.
