 Gaussian 16, Revision A.03,
 Gaussian 16:  ES64L-G16RevA.03 25-Dec-2016

 ---------------------------------
 # td=(NStates=1) B3LYP/6-31G(d,p)
 ---------------------------------

 --
 TD
 --
 Symbolic Z-matrix:
 Charge =  0 Multiplicity = 1

                         Standard orientation:
 ---------------------------------------------------------------------
 Center     Atomic      Atomic             Coordinates (Angstroms)
 Number     Number       Type             X           Y           Z
 ---------------------------------------------------------------------
      1          6           0       12.038060    0.606575   -0.704571
      2          6           0      -12.142365    0.057343    0.908144
      3          6           0       13.353039   -0.279987   -0.473470
      4          6           0      -13.020348    1.168199    1.229868
      5          6           0       13.120260   -1.890339   -0.451514
      6          6           0      -13.384784    2.152627    0.161806
      7          6           0       11.006822    0.071834    0.290191
      8          6           0      -10.935577    0.427900   -0.139060
      9          6           0       12.251217   -2.057671    0.793390
     10          6           0      -12.044936    2.646174   -0.484054
     11          6           0       11.105422   -1.147427    0.868877
     12          6           0      -10.947941    1.601458   -0.750933
     13          6           0       11.589223    0.362046   -2.108754
     14          6           0       12.551747    2.012703   -0.332545
     15          6           0      -12.931578   -1.199219    0.273470
     16          6           0      -11.532152   -0.561465    2.302442
     17          6           0        9.837425    0.918354    0.233514
     18          6           0       -9.882439   -0.541915   -0.315017
     19          6           0       10.166624   -1.739445    1.979992
     20          6           0       -9.888887    2.091022   -1.712849
     21          6           0        8.555722    0.440543    0.288168
     22          6           0       -8.542950   -0.353781   -0.280135
     23          6           0        7.388152    1.326173    0.416229
     24          6           0       -7.466272   -1.351395   -0.437556
     25          6           0        7.509176    2.831088    0.414801
     26          6           0       -7.872468   -2.821494   -0.651323
     27          6           0        6.175084    0.808260    0.300777
     28          6           0       -6.172870   -0.969096   -0.377780
     29          6           0        4.817654    1.386238    0.426656
     30          6           0       -4.959446   -1.726409   -0.669501
     31          6           0        3.703815    0.718418    0.325694
     32          6           0       -3.740773   -1.133080   -0.398647
     33          6           0        2.412786    1.287732    0.265334
     34          6           0       -2.405838   -1.860614   -0.439280
     35          6           0        2.195404    2.826824    0.626004
     36          6           0       -2.489038   -3.356057   -0.499715
     37          6           0        1.201631    0.552417    0.124272
     38          6           0       -1.337751   -1.073339   -0.335404
     39          6           0        1.148304   -0.832678   -0.205498
     40          6           0        0.038636   -1.593161   -0.420764
     41          1           0       14.007935    0.074797    0.283128
     42          1           0       13.969711   -0.219614   -1.386755
     43          1           0      -12.728387    1.768395    2.134425
     44          1           0      -13.897412    0.544906    1.871157
     45          1           0       14.187917   -2.379350   -0.466504
     46          1           0       12.472640   -2.118136   -1.216917
     47          1           0      -14.201797    2.697508    0.488613
     48          1           0      -13.742196    1.452025   -0.684114
     49          1           0       12.791060   -2.154095    1.721838
     50          1           0       11.635499   -3.171300    0.632630
     51          1           0      -11.486841    3.662901   -0.017164
     52          1           0      -12.365750    3.039106   -1.473599
     53          1           0       11.517049   -0.740564   -2.318202
     54          1           0       12.085682    0.794012   -2.909643
     55          1           0       10.691066    0.891213   -2.322632
     56          1           0       12.670451    2.003322    0.752527
     57          1           0       11.747223    2.637266   -0.620834
     58          1           0       13.405109    2.443694   -0.982505
     59          1           0      -13.370535   -0.632640   -0.623715
     60          1           0      -13.676157   -1.697090    0.985623
     61          1           0      -12.326417   -2.120610   -0.224369
     62          1           0      -11.029136    0.219280    2.826088
     63          1           0      -11.020279   -1.569608    2.189987
     64          1           0      -12.554654   -0.991853    2.977713
     65          1           0        9.976502    2.056011    0.280434
     66          1           0      -10.246212   -1.570006   -0.438051
     67          1           0        9.554781   -0.755578    2.276186
     68          1           0       10.691256   -2.097060    2.886924
     69          1           0        9.442134   -2.389775    1.491432
     70          1           0       -9.104352    1.439738   -2.176978
     71          1           0       -9.244918    2.804402   -1.092752
     72          1           0      -10.336220    2.386121   -2.595681
     73          1           0        8.283558   -0.560997    0.167899
     74          1           0       -8.254637    0.645392   -0.220329
     75          1           0        8.388489    3.177857    1.438799
     76          1           0        6.475299    3.560755    0.485369
     77          1           0        8.097466    3.163674   -0.475749
     78          1           0       -8.522533   -2.849277   -1.583499
     79          1           0       -8.578049   -3.209114    0.148699
     80          1           0       -7.001085   -3.418454   -0.600513
     81          1           0        6.125467   -0.271244    0.310570
     82          1           0       -6.132986    0.126419   -0.237424
     83          1           0        4.679849    2.313197    0.543533
     84          1           0       -5.137445   -2.804552   -0.865519
     85          1           0        3.725242   -0.407120    0.099734
     86          1           0       -3.887387   -0.159901   -0.299365
     87          1           0        2.507710    3.144510    1.616251
     88          1           0        1.133009    2.922708    0.531228
     89          1           0        2.602452    3.464264   -0.182245
     90          1           0       -3.062681   -3.414105   -1.365939
     91          1           0       -3.230713   -3.786826    0.086836
     92          1           0       -1.522980   -3.825361   -0.855503
     93          1           0        0.281290    1.157786    0.066289
     94          1           0       -1.573888   -0.055534   -0.287001
     95          1           0        2.045689   -1.442232   -0.278027
     96          1           0        0.237355   -2.611397   -0.739939
 ---------------------------------------------------------------------

 SCF Done:  E(RB3LYP) =  -1557.57359910     A.U. after   14 cycles

 Excitation energies and oscillator strengths:

 Excited State   1:      Singlet-A      2.4426 eV  507.59 nm  f=2.7834  <S**2>=0.000
     148 ->149         0.70385
 This state for optimization and/or second-order correction.
 Total Energy, E(TD-HF/TD-DFT) =  -1557.48383425
 Copying the excited state density for this state as the 1-particle RhoCI density.

 The electronic state is 1-A.
 Alpha  occ. eigenvalues --  -10.22382 -10.21110 -10.20667 -10.20475 -10.20139
 Alpha  occ. eigenvalues --  -10.19682 -10.19540 -10.19504 -10.19481 -10.19400
 Alpha  occ. eigenvalues --  -10.19350 -10.19330 -10.19171 -10.19162 -10.19061
 Alpha  occ. eigenvalues --  -10.18969 -10.18945 -10.18937 -10.18711 -10.18628
 Alpha  occ. eigenvalues --  -10.18578 -10.18549 -10.18501 -10.18491 -10.18423
 Alpha  occ. eigenvalues --  -10.18386 -10.18363 -10.18344 -10.18302 -10.18278
 Alpha  occ. eigenvalues --  -10.18033 -10.17997 -10.17977 -10.17870 -10.17868
 Alpha  occ. eigenvalues --  -10.17766 -10.17664 -10.17210 -10.16704 -10.16153
 Alpha  occ. eigenvalues --   -0.85145  -0.84536  -0.83729  -0.83276  -0.81901
 Alpha  occ. eigenvalues --   -0.81372  -0.79131  -0.78683  -0.78405  -0.76995
 Alpha  occ. eigenvalues --   -0.76473  -0.75161  -0.74139  -0.72096  -0.71723
 Alpha  occ. eigenvalues --   -0.71076  -0.69365  -0.68475  -0.68138  -0.67680
 Alpha  occ. eigenvalues --   -0.67254  -0.66798  -0.65949  -0.65646  -0.65544
 Alpha  occ. eigenvalues --   -0.62745  -0.61991  -0.59960  -0.59387  -0.57259
 Alpha  occ. eigenvalues --   -0.56917  -0.55788  -0.55351  -0.53972  -0.53900
 Alpha  occ. eigenvalues --   -0.52942  -0.51935  -0.50567  -0.49743  -0.49615
 Alpha  occ. eigenvalues --   -0.47802  -0.47429  -0.46773  -0.46469  -0.46267
 Alpha  occ. eigenvalues --   -0.45719  -0.44970  -0.44869  -0.44373  -0.43787
 Alpha  occ. eigenvalues --   -0.43440  -0.43218  -0.42971  -0.42597  -0.42327
 Alpha  occ. eigenvalues --   -0.42260  -0.42027  -0.41789  -0.41258  -0.41037
 Alpha  occ. eigenvalues --   -0.40687  -0.40413  -0.39907  -0.39740  -0.39413
 Alpha  occ. eigenvalues --   -0.38940  -0.38853  -0.38490  -0.38294  -0.38233
 Alpha  occ. eigenvalues --   -0.37866  -0.37315  -0.37242  -0.36797  -0.36709
 Alpha  occ. eigenvalues --   -0.36455  -0.36126  -0.35844  -0.35605  -0.35560
 Alpha  occ. eigenvalues --   -0.34816  -0.34680  -0.34157  -0.33941  -0.33541
 Alpha  occ. eigenvalues --   -0.33419  -0.33189  -0.33108  -0.32855  -0.32370
 Alpha  occ. eigenvalues --   -0.32212  -0.31904  -0.31717  -0.31577  -0.31213
 Alpha  occ. eigenvalues --   -0.30725  -0.29671  -0.29304  -0.28558  -0.27541
 Alpha  occ. eigenvalues --   -0.26893  -0.26744  -0.26132  -0.24771  -0.23351
 Alpha  occ. eigenvalues --   -0.21284  -0.19227  -0.17026
 Alpha virt. eigenvalues --   -0.07444  -0.04677  -0.01853   0.00717   0.02811
 Alpha virt. eigenvalues --    0.04332   0.05842   0.06131   0.06637   0.07445
 Alpha virt. eigenvalues --    0.07701   0.07834   0.08394   0.08934   0.09241

 Mulliken charges:
               1
     1  C   -0.008957
     2  C    0.009180
     3  C   -0.191626
     4  C   -0.157143
     5  C   -0.187334
     6  C   -0.190864
     7  C    0.096644
     8  C    0.074633
     9  C   -0.194916
    10  C   -0.208246
    11  C    0.035904
    12  C    0.041345
    13  C   -0.299663
    14  C   -0.309921
    15  C   -0.289960
    16  C   -0.282167
    17  C   -0.140499
    18  C   -0.130300
    19  C   -0.356543
    20  C   -0.358754
    21  C   -0.087341
    22  C   -0.084476
    23  C    0.165032
    24  C    0.116289
    25  C   -0.347356
    26  C   -0.369815
    27  C   -0.150448
    28  C   -0.135290
    29  C   -0.033569
    30  C   -0.098373
    31  C   -0.074110
    32  C   -0.097837
    33  C    0.066698
    34  C    0.116897
    35  C   -0.375476
    36  C   -0.380634
    37  C   -0.119952
    38  C   -0.105324
    39  C   -0.072241
    40  C   -0.117053
    41  H    0.089808
    42  H    0.077216
    43  H    0.093949
    44  H    0.054204
    45  H    0.081131
    46  H    0.110457
    47  H    0.111198
    48  H    0.093028
    49  H    0.112571
    50  H    0.044560
    51  H    0.070559
    52  H    0.103038
    53  H    0.098124
    54  H    0.104048
    55  H    0.099577
    56  H    0.113481
    57  H    0.098807
    58  H    0.097304
    59  H    0.092797
    60  H    0.098032
    61  H    0.083327
    62  H    0.112649
    63  H    0.105078
    64  H    0.043066
    65  H    0.088799
    66  H    0.069366
    67  H    0.098506
    68  H    0.114347
    69  H    0.123395
    70  H    0.116114
    71  H    0.111839
    72  H    0.115260
    73  H    0.084927
    74  H    0.066138
    75  H    0.045682
    76  H    0.096230
    77  H    0.127993
    78  H    0.116078
    79  H    0.111505
    80  H    0.105840
    81  H    0.064982
    82  H    0.067258
    83  H    0.046426
    84  H    0.071673
    85  H    0.066493
    86  H    0.076423
    87  H    0.127234
    88  H    0.108773
    89  H    0.113564
    90  H    0.140901
    91  H    0.134918
    92  H    0.110536
    93  H    0.084137
    94  H    0.081493
    95  H    0.077910
    96  H    0.080817
 Sum of Mulliken charges =  -0.00000

 Dipole moment (field-independent basis, Debye):
    X=              0.1717    Y=              0.3399    Z=             -1.0273  Tot=              1.0956
 Quadrupole moment (field-independent basis, Debye-Ang):
   XX=           -233.2970   YY=           -235.6730   ZZ=           -254.8649
   XY=             -1.9955   XZ=              1.7492   YZ=              0.8618

 Normal termination of Gaussian 16 at Mon Jul 29 09:50:55 2019.
