 Gaussian 16, Revision A.03,
 Gaussian 16:  ES64L-G16RevA.03 25-Dec-2016

 ---------------------------------
 # td=(NStates=1) B3LYP/6-31G(d,p)
 ---------------------------------

 --
 TD
 --
 Symbolic Z-matrix:
 Charge =  0 Multiplicity = 1

                         Standard orientation:
 ---------------------------------------------------------------------
 Center     Atomic      Atomic             Coordinates (Angstroms)
 Number     Number       Type             X           Y           Z
 ---------------------------------------------------------------------
      1          6           0       12.127287   -0.532804    0.938602
      2          6           0      -12.100061   -0.034877   -0.809486
      3          6           0       13.384631    0.236623    0.943030
      4          6           0      -13.003653   -1.206612   -1.342121
      5          6           0       13.136758    1.755657    0.682347
      6          6           0      -13.282719   -2.138114   -0.188916
      7          6           0       11.060971   -0.117981   -0.229081
      8          6           0      -11.013672   -0.485990    0.210858
      9          6           0       12.504325    1.965741   -0.716123
     10          6           0      -11.996550   -2.711403    0.545994
     11          6           0       11.242931    1.025395   -0.994540
     12          6           0      -10.864010   -1.674749    0.776755
     13          6           0       11.359241   -0.470657    2.283357
     14          6           0       12.459026   -2.076763    0.599102
     15          6           0      -13.004415    0.981197   -0.005087
     16          6           0      -11.461246    0.707967   -2.028798
     17          6           0        9.868125   -0.954960   -0.361218
     18          6           0       -9.900627    0.504676    0.432088
     19          6           0       10.351936    1.620055   -1.940769
     20          6           0       -9.956522   -2.022771    1.816969
     21          6           0        8.567431   -0.426459   -0.393394
     22          6           0       -8.650889    0.278947    0.376133
     23          6           0        7.376652   -1.321383   -0.598340
     24          6           0       -7.607507    1.258587    0.474173
     25          6           0        7.536300   -2.752082   -0.765620
     26          6           0       -7.957930    2.818280    0.686220
     27          6           0        6.153322   -0.713568   -0.321315
     28          6           0       -6.178421    0.790996    0.335964
     29          6           0        4.872919   -1.306500   -0.354795
     30          6           0       -5.060748    1.742780    0.371522
     31          6           0        3.641258   -0.596509   -0.409152
     32          6           0       -3.752355    1.244435    0.162032
     33          6           0        2.373483   -1.147756   -0.421754
     34          6           0       -2.609990    1.898333    0.375667
     35          6           0        2.349717   -2.678847   -0.634689
     36          6           0       -2.564439    3.402544    0.675319
     37          6           0        1.158509   -0.422378   -0.359410
     38          6           0       -1.366127    1.161160    0.006963
     39          6           0        1.082143    0.887764   -0.174010
     40          6           0       -0.093558    1.748247    0.025713
     41          1           0       13.960586   -0.122982    0.204652
     42          1           0       13.933752    0.102186    1.943564
     43          1           0      -12.301220   -1.660888   -1.980578
     44          1           0      -13.906283   -0.633330   -1.849123
     45          1           0       14.186985    2.311407    0.464086
     46          1           0       12.710989    2.079804    1.403895
     47          1           0      -13.947388   -2.991336   -0.500577
     48          1           0      -13.775265   -1.600461    0.579511
     49          1           0       13.182702    1.901452   -1.485741
     50          1           0       12.130135    3.050844   -0.714322
     51          1           0      -11.594344   -3.440005   -0.120529
     52          1           0      -12.238377   -3.270200    1.494818
     53          1           0       11.000939    0.622058    2.685579
     54          1           0       12.006805   -0.840558    3.160794
     55          1           0       10.392164   -1.027424    2.448739
     56          1           0       12.847403   -1.896034   -0.453109
     57          1           0       11.479883   -2.900644    0.744449
     58          1           0       13.222453   -2.430832    1.090181
     59          1           0      -13.368451    0.486721    0.958508
     60          1           0      -13.784773    1.392170   -0.690295
     61          1           0      -12.408534    1.738730    0.245323
     62          1           0      -10.715029   -0.078738   -2.624669
     63          1           0      -11.057922    1.597323   -1.735459
     64          1           0      -12.452917    0.964771   -2.605155
     65          1           0       10.129210   -2.033588   -0.133252
     66          1           0      -10.278308    1.678063    0.573540
     67          1           0        9.576290    0.847525   -2.293484
     68          1           0       11.052553    2.174203   -2.850146
     69          1           0        9.906584    2.532889   -1.317568
     70          1           0       -9.567410   -1.139859    2.486670
     71          1           0       -9.093185   -2.871501    1.466456
     72          1           0      -10.522007   -2.803411    2.423611
     73          1           0        8.444739    0.578728   -0.312223
     74          1           0       -8.283666   -0.753076    0.204459
     75          1           0        8.433233   -3.119407   -1.582525
     76          1           0        6.581390   -3.294644   -0.921988
     77          1           0        7.952246   -3.145240    0.316231
     78          1           0       -8.526671    2.977630    1.588230
     79          1           0       -8.766909    3.116362   -0.301003
     80          1           0       -7.161156    3.470476    0.662924
     81          1           0        6.251463    0.368529    0.136372
     82          1           0       -5.969317   -0.357389   -0.007843
     83          1           0        4.946603   -2.385773   -0.525552
     84          1           0       -5.240876    2.755972    0.907600
     85          1           0        3.838490    0.483764   -0.502121
     86          1           0       -3.558364    0.325944   -0.074202
     87          1           0        2.476349   -2.917037   -1.822397
     88          1           0        1.328511   -3.145596   -0.546898
     89          1           0        2.894694   -3.260072    0.011568
     90          1           0       -3.146408    3.829580    1.756757
     91          1           0       -3.363087    4.100717    0.068990
     92          1           0       -1.678867    3.875876    0.561002
     93          1           0        0.096388   -1.038248   -0.482232
     94          1           0       -1.555212    0.107506   -0.059462
     95          1           0        1.912543    1.517335   -0.251515
     96          1           0        0.296733    2.752379    0.134326
 ---------------------------------------------------------------------

 SCF Done:  E(RB3LYP) =  -1557.45286154     A.U. after   20 cycles

 Excitation energies and oscillator strengths:

 Excited State   1:      Singlet-A      1.6399 eV  756.05 nm  f=3.2084  <S**2>=0.000
     148 ->149         0.73958
     148 <-149        -0.24811
 This state for optimization and/or second-order correction.
 Total Energy, E(TD-HF/TD-DFT) =  -1557.39259661
 Copying the excited state density for this state as the 1-particle RhoCI density.

 The electronic state is 1-A.
 Alpha  occ. eigenvalues --  -10.21446 -10.21325 -10.21137 -10.21130 -10.20434
 Alpha  occ. eigenvalues --  -10.20395 -10.20320 -10.20185 -10.20163 -10.20025
 Alpha  occ. eigenvalues --  -10.19858 -10.19816 -10.19775 -10.19622 -10.19591
 Alpha  occ. eigenvalues --  -10.19542 -10.19377 -10.19234 -10.19130 -10.19100
 Alpha  occ. eigenvalues --  -10.18996 -10.18986 -10.18862 -10.18822 -10.18805
 Alpha  occ. eigenvalues --  -10.18752 -10.18574 -10.18550 -10.18503 -10.18341
 Alpha  occ. eigenvalues --  -10.18113 -10.18061 -10.17963 -10.17925 -10.17889
 Alpha  occ. eigenvalues --  -10.17493 -10.17491 -10.17423 -10.16849 -10.16791
 Alpha  occ. eigenvalues --   -0.84796  -0.84320  -0.83459  -0.82728  -0.81779
 Alpha  occ. eigenvalues --   -0.80748  -0.78927  -0.78627  -0.78286  -0.76982
 Alpha  occ. eigenvalues --   -0.76065  -0.74639  -0.73600  -0.71908  -0.71238
 Alpha  occ. eigenvalues --   -0.69657  -0.67953  -0.67759  -0.67732  -0.67656
 Alpha  occ. eigenvalues --   -0.67473  -0.67216  -0.66607  -0.66544  -0.64836
 Alpha  occ. eigenvalues --   -0.62725  -0.61753  -0.60357  -0.59187  -0.57081
 Alpha  occ. eigenvalues --   -0.55942  -0.55187  -0.54661  -0.53901  -0.53306
 Alpha  occ. eigenvalues --   -0.51733  -0.51226  -0.50780  -0.49768  -0.49047
 Alpha  occ. eigenvalues --   -0.47989  -0.47688  -0.46673  -0.46221  -0.45750
 Alpha  occ. eigenvalues --   -0.44948  -0.44797  -0.44537  -0.43745  -0.43501
 Alpha  occ. eigenvalues --   -0.43060  -0.42679  -0.42511  -0.42474  -0.42164
 Alpha  occ. eigenvalues --   -0.41559  -0.41518  -0.40873  -0.40658  -0.40335
 Alpha  occ. eigenvalues --   -0.39993  -0.39934  -0.39671  -0.39536  -0.38875
 Alpha  occ. eigenvalues --   -0.38668  -0.38542  -0.38308  -0.38178  -0.38093
 Alpha  occ. eigenvalues --   -0.37928  -0.37465  -0.36853  -0.36727  -0.36590
 Alpha  occ. eigenvalues --   -0.36179  -0.35928  -0.35778  -0.35411  -0.35213
 Alpha  occ. eigenvalues --   -0.35006  -0.34753  -0.34428  -0.34188  -0.34150
 Alpha  occ. eigenvalues --   -0.33445  -0.33303  -0.32916  -0.32751  -0.32353
 Alpha  occ. eigenvalues --   -0.32039  -0.31996  -0.31424  -0.31150  -0.30907
 Alpha  occ. eigenvalues --   -0.30596  -0.30278  -0.29738  -0.28990  -0.28429
 Alpha  occ. eigenvalues --   -0.27801  -0.27290  -0.26048  -0.23864  -0.22566
 Alpha  occ. eigenvalues --   -0.20966  -0.18823  -0.14587
 Alpha virt. eigenvalues --   -0.09914  -0.05101  -0.01821   0.00398   0.02646
 Alpha virt. eigenvalues --    0.03464   0.05606   0.05874   0.06172   0.06837
 Alpha virt. eigenvalues --    0.06965   0.07078   0.07164   0.07500   0.07871

 Mulliken charges:
               1
     1  C    0.013238
     2  C   -0.041766
     3  C   -0.172876
     4  C   -0.145720
     5  C   -0.149629
     6  C   -0.191443
     7  C    0.054756
     8  C    0.083167
     9  C   -0.228711
    10  C   -0.244640
    11  C    0.072755
    12  C    0.097332
    13  C   -0.294824
    14  C   -0.291492
    15  C   -0.295457
    16  C   -0.272246
    17  C   -0.127011
    18  C   -0.165899
    19  C   -0.349590
    20  C   -0.366929
    21  C   -0.104845
    22  C   -0.037417
    23  C    0.134422
    24  C    0.073427
    25  C   -0.362903
    26  C   -0.346731
    27  C   -0.121170
    28  C   -0.130147
    29  C   -0.092024
    30  C   -0.103070
    31  C   -0.108279
    32  C   -0.072229
    33  C    0.097686
    34  C    0.138563
    35  C   -0.366690
    36  C   -0.356588
    37  C   -0.099578
    38  C   -0.132330
    39  C   -0.081033
    40  C   -0.095777
    41  H    0.096842
    42  H    0.083470
    43  H    0.098799
    44  H    0.079599
    45  H    0.062259
    46  H    0.102519
    47  H    0.082004
    48  H    0.106170
    49  H    0.117837
    50  H    0.085364
    51  H    0.110923
    52  H    0.092146
    53  H    0.070667
    54  H    0.084143
    55  H    0.106920
    56  H    0.101281
    57  H    0.070066
    58  H    0.111978
    59  H    0.099877
    60  H    0.087248
    61  H    0.111353
    62  H    0.085971
    63  H    0.113501
    64  H    0.077270
    65  H    0.078372
    66  H    0.056427
    67  H    0.118550
    68  H    0.070444
    69  H    0.108405
    70  H    0.122904
    71  H    0.075654
    72  H    0.096522
    73  H    0.091695
    74  H    0.086351
    75  H    0.094201
    76  H    0.115038
    77  H    0.107055
    78  H    0.129149
    79  H    0.075483
    80  H    0.119463
    81  H    0.071047
    82  H    0.078962
    83  H    0.076787
    84  H    0.088405
    85  H    0.082313
    86  H    0.056762
    87  H    0.101432
    88  H    0.096471
    89  H    0.130391
    90  H    0.071264
    91  H    0.092865
    92  H    0.122705
    93  H    0.067760
    94  H    0.094112
    95  H    0.075499
    96  H    0.093005
 Sum of Mulliken charges =  -0.00000

 Dipole moment (field-independent basis, Debye):
    X=              1.1552    Y=             -0.1403    Z=              0.5155  Tot=              1.2728
 Quadrupole moment (field-independent basis, Debye-Ang):
   XX=           -216.8743   YY=           -234.2332   ZZ=           -258.0522
   XY=              1.4643   XZ=             -0.0224   YZ=              1.8203

 Normal termination of Gaussian 16 at Thu Aug  1 19:25:31 2019.
