 Gaussian 16, Revision A.03,
 Gaussian 16:  ES64L-G16RevA.03 25-Dec-2016

 ---------------------------------
 # td=(NStates=1) B3LYP/6-31G(d,p)
 ---------------------------------

 --
 TD
 --
 Symbolic Z-matrix:
 Charge =  0 Multiplicity = 1

                         Standard orientation:
 ---------------------------------------------------------------------
 Center     Atomic      Atomic             Coordinates (Angstroms)
 Number     Number       Type             X           Y           Z
 ---------------------------------------------------------------------
      1          6           0       12.207728    0.592468   -0.583075
      2          6           0      -12.104273   -0.015233    0.922231
      3          6           0       13.380872   -0.286705   -0.379561
      4          6           0      -12.808274    1.272243    1.381793
      5          6           0       13.121612   -1.807543   -0.350869
      6          6           0      -13.233909    2.328319    0.348652
      7          6           0       10.934503    0.009734    0.256533
      8          6           0      -10.933695    0.445705   -0.071651
      9          6           0       12.215840   -2.132192    0.812317
     10          6           0      -11.972011    2.761678   -0.384213
     11          6           0       11.053322   -1.155791    0.913274
     12          6           0      -10.928764    1.696720   -0.696414
     13          6           0       11.669324    0.578930   -2.076738
     14          6           0       12.535612    2.016913   -0.118094
     15          6           0      -12.997809   -1.003544    0.176218
     16          6           0      -11.457947   -0.682773    2.199222
     17          6           0        9.762002    0.990028    0.288984
     18          6           0       -9.838119   -0.604019   -0.260658
     19          6           0        9.980277   -1.645363    1.913988
     20          6           0       -9.975110    2.152169   -1.753916
     21          6           0        8.457939    0.566121    0.033472
     22          6           0       -8.465395   -0.371094   -0.222575
     23          6           0        7.271025    1.371657    0.156089
     24          6           0       -7.401412   -1.359569   -0.468494
     25          6           0        7.617668    2.887904    0.456567
     26          6           0       -7.802761   -2.827888   -0.766608
     27          6           0        6.139218    0.803042    0.064501
     28          6           0       -6.110645   -0.983247   -0.453380
     29          6           0        4.777545    1.384976    0.197168
     30          6           0       -5.006172   -1.806297   -0.501238
     31          6           0        3.614750    0.726289    0.210244
     32          6           0       -3.717573   -1.255251   -0.392986
     33          6           0        2.281302    1.289358    0.230808
     34          6           0       -2.614205   -2.061883   -0.345023
     35          6           0        2.155660    2.847452    0.276939
     36          6           0       -2.516934   -3.531133   -0.798817
     37          6           0        1.204734    0.454554    0.208553
     38          6           0       -1.370247   -1.301333   -0.096638
     39          6           0        1.131965   -1.045073   -0.188366
     40          6           0       -0.035256   -1.769533   -0.266122
     41          1           0       13.776788    0.311398    0.636358
     42          1           0       13.982218   -0.048587   -1.115592
     43          1           0      -12.260858    1.713033    2.047349
     44          1           0      -13.807256    1.123647    1.951417
     45          1           0       14.086260   -2.306558   -0.518295
     46          1           0       12.528117   -2.172563   -1.077077
     47          1           0      -13.726365    3.230999    0.656020
     48          1           0      -13.799331    1.907621   -0.576310
     49          1           0       12.723593   -2.394203    1.899118
     50          1           0       11.731507   -3.077631    0.664562
     51          1           0      -11.542297    3.560413    0.285202
     52          1           0      -12.062815    3.205886   -1.347241
     53          1           0       11.493709   -0.434782   -2.418715
     54          1           0       12.542421    0.849611   -2.621692
     55          1           0       10.735041    1.323588   -2.295187
     56          1           0       12.690509    1.886760    1.003365
     57          1           0       11.632855    2.816030   -0.225549
     58          1           0       13.478358    2.266195   -0.568228
     59          1           0      -13.405115   -0.722714   -0.777567
     60          1           0      -13.739544   -1.478427    0.714539
     61          1           0      -12.471740   -1.849196   -0.032198
     62          1           0      -10.888005    0.078827    2.608136
     63          1           0      -10.837220   -1.514009    2.043287
     64          1           0      -12.341725   -1.126115    2.807343
     65          1           0        9.812656    2.085622    0.670707
     66          1           0       -9.959116   -1.641501   -0.286265
     67          1           0        9.328993   -0.878092    2.228140
     68          1           0       10.536138   -2.202949    2.842827
     69          1           0        9.334875   -2.523057    1.355866
     70          1           0       -9.027401    1.282340   -1.886884
     71          1           0       -9.480736    3.154732   -1.417659
     72          1           0      -10.646621    2.345738   -2.571149
     73          1           0        8.525125   -0.613009   -0.138205
     74          1           0       -7.928167    0.608199   -0.166415
     75          1           0        7.887637    2.927597    1.613162
     76          1           0        6.671729    3.576789    0.417262
     77          1           0        8.374765    3.327769   -0.279151
     78          1           0       -8.484643   -2.822509   -1.544319
     79          1           0       -8.461666   -3.146993    0.043546
     80          1           0       -7.127619   -3.528725   -0.981408
     81          1           0        6.070101   -0.172344    0.030225
     82          1           0       -5.977435    0.088263   -0.300854
     83          1           0        4.776725    2.503171    0.378925
     84          1           0       -5.164532   -2.838742   -0.639333
     85          1           0        3.632832   -0.234823    0.369655
     86          1           0       -3.663409   -0.270212   -0.355815
     87          1           0        2.654250    3.319539    1.049176
     88          1           0        1.080374    3.188380    0.339454
     89          1           0        2.383920    3.345475   -0.805233
     90          1           0       -3.225071   -3.367047   -1.649928
     91          1           0       -2.987780   -4.143624   -0.061292
     92          1           0       -1.524334   -3.847274   -1.083983
     93          1           0        0.322373    0.994479    0.335041
     94          1           0       -1.656505   -0.310576    0.172063
     95          1           0        2.184293   -1.655448   -0.223308
     96          1           0       -0.115194   -2.885172   -0.430590
 ---------------------------------------------------------------------

 SCF Done:  E(RB3LYP) =  -1557.56366550     A.U. after   16 cycles

 Excitation energies and oscillator strengths:

 Excited State   1:      Singlet-A      2.1869 eV  566.95 nm  f=2.9312  <S**2>=0.000
     147 ->149         0.10503
     148 ->149         0.69464
     148 <-149        -0.12519
 This state for optimization and/or second-order correction.
 Total Energy, E(TD-HF/TD-DFT) =  -1557.48329929
 Copying the excited state density for this state as the 1-particle RhoCI density.

 The electronic state is 1-A.
 Alpha  occ. eigenvalues --  -10.21290 -10.20932 -10.20708 -10.20282 -10.19977
 Alpha  occ. eigenvalues --  -10.19711 -10.19641 -10.19615 -10.19614 -10.19472
 Alpha  occ. eigenvalues --  -10.19391 -10.19318 -10.19306 -10.19300 -10.19252
 Alpha  occ. eigenvalues --  -10.19219 -10.19192 -10.19166 -10.18999 -10.18971
 Alpha  occ. eigenvalues --  -10.18949 -10.18889 -10.18683 -10.18676 -10.18582
 Alpha  occ. eigenvalues --  -10.18434 -10.18377 -10.18348 -10.17752 -10.17743
 Alpha  occ. eigenvalues --  -10.17713 -10.17565 -10.17408 -10.17162 -10.17152
 Alpha  occ. eigenvalues --  -10.17014 -10.16914 -10.16901 -10.16791 -10.15307
 Alpha  occ. eigenvalues --   -0.84451  -0.84240  -0.83855  -0.83292  -0.81939
 Alpha  occ. eigenvalues --   -0.81349  -0.78611  -0.78284  -0.78167  -0.77015
 Alpha  occ. eigenvalues --   -0.76442  -0.74934  -0.74086  -0.72330  -0.71185
 Alpha  occ. eigenvalues --   -0.70235  -0.69627  -0.69332  -0.68310  -0.67848
 Alpha  occ. eigenvalues --   -0.67440  -0.67163  -0.66757  -0.66096  -0.65824
 Alpha  occ. eigenvalues --   -0.63051  -0.61783  -0.59966  -0.59440  -0.56965
 Alpha  occ. eigenvalues --   -0.55977  -0.55642  -0.55299  -0.54063  -0.53812
 Alpha  occ. eigenvalues --   -0.52495  -0.51468  -0.50260  -0.49795  -0.48483
 Alpha  occ. eigenvalues --   -0.48320  -0.47527  -0.47096  -0.46745  -0.45861
 Alpha  occ. eigenvalues --   -0.45569  -0.44958  -0.44776  -0.44481  -0.44221
 Alpha  occ. eigenvalues --   -0.43303  -0.43059  -0.42758  -0.42417  -0.42259
 Alpha  occ. eigenvalues --   -0.42005  -0.41829  -0.41721  -0.41135  -0.41005
 Alpha  occ. eigenvalues --   -0.40813  -0.40443  -0.40170  -0.40065  -0.39867
 Alpha  occ. eigenvalues --   -0.39217  -0.38962  -0.38680  -0.38434  -0.37971
 Alpha  occ. eigenvalues --   -0.37694  -0.37613  -0.37326  -0.37006  -0.36794
 Alpha  occ. eigenvalues --   -0.36642  -0.36254  -0.36001  -0.35327  -0.35268
 Alpha  occ. eigenvalues --   -0.34511  -0.34449  -0.34081  -0.34048  -0.33624
 Alpha  occ. eigenvalues --   -0.33589  -0.33213  -0.33075  -0.32999  -0.32646
 Alpha  occ. eigenvalues --   -0.32387  -0.31846  -0.31558  -0.31381  -0.30768
 Alpha  occ. eigenvalues --   -0.30695  -0.30296  -0.29545  -0.29504  -0.28854
 Alpha  occ. eigenvalues --   -0.27926  -0.27475  -0.25599  -0.24266  -0.22504
 Alpha  occ. eigenvalues --   -0.21107  -0.19136  -0.16060
 Alpha virt. eigenvalues --   -0.08254  -0.04604  -0.01498   0.00824   0.02986
 Alpha virt. eigenvalues --    0.04105   0.06005   0.07020   0.07235   0.07997
 Alpha virt. eigenvalues --    0.08058   0.08304   0.08674   0.08806   0.09490

 Mulliken charges:
               1
     1  C    0.000042
     2  C   -0.003500
     3  C   -0.150491
     4  C   -0.155074
     5  C   -0.193288
     6  C   -0.189824
     7  C    0.043214
     8  C    0.043235
     9  C   -0.217496
    10  C   -0.214204
    11  C    0.066951
    12  C    0.063081
    13  C   -0.294554
    14  C   -0.303931
    15  C   -0.306479
    16  C   -0.302961
    17  C   -0.143206
    18  C   -0.142760
    19  C   -0.341022
    20  C   -0.347113
    21  C   -0.102716
    22  C   -0.105041
    23  C    0.143301
    24  C    0.114355
    25  C   -0.378920
    26  C   -0.387504
    27  C   -0.101480
    28  C   -0.123197
    29  C   -0.100698
    30  C   -0.080799
    31  C   -0.071767
    32  C   -0.093291
    33  C    0.108109
    34  C    0.084176
    35  C   -0.368953
    36  C   -0.364843
    37  C   -0.131384
    38  C   -0.103826
    39  C   -0.102527
    40  C   -0.089452
    41  H    0.064455
    42  H    0.090997
    43  H    0.104922
    44  H    0.070114
    45  H    0.091870
    46  H    0.120723
    47  H    0.100017
    48  H    0.084991
    49  H    0.075261
    50  H    0.106889
    51  H    0.094492
    52  H    0.087172
    53  H    0.101868
    54  H    0.089202
    55  H    0.091870
    56  H    0.100844
    57  H    0.085528
    58  H    0.106808
    59  H    0.104282
    60  H    0.099992
    61  H    0.104824
    62  H    0.115316
    63  H    0.107527
    64  H    0.085784
    65  H    0.088022
    66  H    0.079591
    67  H    0.129198
    68  H    0.082585
    69  H    0.080812
    70  H    0.092169
    71  H    0.102931
    72  H    0.122481
    73  H    0.076403
    74  H    0.074074
    75  H    0.119873
    76  H    0.098083
    77  H    0.125072
    78  H    0.131469
    79  H    0.116044
    80  H    0.113229
    81  H    0.064378
    82  H    0.065644
    83  H    0.065044
    84  H    0.077349
    85  H    0.064743
    86  H    0.077172
    87  H    0.131542
    88  H    0.099063
    89  H    0.104648
    90  H    0.122806
    91  H    0.131375
    92  H    0.121875
    93  H    0.075999
    94  H    0.071490
    95  H    0.079409
    96  H    0.075516
 Sum of Mulliken charges =  -0.00000

 Dipole moment (field-independent basis, Debye):
    X=             -1.2729    Y=             -0.1979    Z=              0.0040  Tot=              1.2882
 Quadrupole moment (field-independent basis, Debye-Ang):
   XX=           -226.0842   YY=           -229.9148   ZZ=           -256.2994
   XY=             -1.8421   XZ=             -0.7470   YZ=              3.7116

 Normal termination of Gaussian 16 at Thu Aug  1 17:49:26 2019.
