 Gaussian 16, Revision A.03,
 Gaussian 16:  ES64L-G16RevA.03 25-Dec-2016

 ---------------------------------
 # td=(NStates=1) B3LYP/6-31G(d,p)
 ---------------------------------

 --
 TD
 --
 Symbolic Z-matrix:
 Charge =  0 Multiplicity = 1

                         Standard orientation:
 ---------------------------------------------------------------------
 Center     Atomic      Atomic             Coordinates (Angstroms)
 Number     Number       Type             X           Y           Z
 ---------------------------------------------------------------------
      1          6           0      -12.071616   -0.576080   -0.675128
      2          6           0       12.111285    0.037266    0.673522
      3          6           0      -13.385062    0.238052   -0.595748
      4          6           0       12.960614   -1.027653    1.233449
      5          6           0      -13.096681    1.783756   -0.680653
      6          6           0       13.283099   -2.079692    0.130986
      7          6           0      -10.989044    0.103718    0.176225
      8          6           0       10.940102   -0.451216   -0.217731
      9          6           0      -12.287179    2.186307    0.524574
     10          6           0       11.961243   -2.774022   -0.460106
     11          6           0      -11.143757    1.294929    0.765836
     12          6           0       10.883380   -1.722511   -0.692393
     13          6           0      -11.621915   -0.778238   -2.164728
     14          6           0      -12.517489   -1.957486   -0.082896
     15          6           0       12.923738    1.060650   -0.096003
     16          6           0       11.590665    0.726283    2.051855
     17          6           0       -9.848244   -0.777106    0.363266
     18          6           0        9.868674    0.555277   -0.341294
     19          6           0      -10.080562    1.850520    1.738200
     20          6           0        9.813759   -2.192538   -1.689243
     21          6           0       -8.526115   -0.460601    0.209505
     22          6           0        8.545308    0.307215   -0.283590
     23          6           0       -7.354023   -1.324544    0.344622
     24          6           0        7.506164    1.353909   -0.335729
     25          6           0       -7.586286   -2.811428    0.587119
     26          6           0        7.826376    2.814410   -0.614442
     27          6           0       -6.076999   -0.784818    0.316274
     28          6           0        6.191133    0.899521   -0.241623
     29          6           0       -4.830219   -1.391399    0.469601
     30          6           0        4.998432    1.646886   -0.273006
     31          6           0       -3.646373   -0.790183    0.259126
     32          6           0        3.716052    1.174933   -0.417864
     33          6           0       -2.309065   -1.292376    0.322629
     34          6           0        2.488669    1.913332   -0.342867
     35          6           0       -2.165339   -2.774408    0.656970
     36          6           0        2.480438    3.367694   -0.635779
     37          6           0       -1.137614   -0.498570    0.266115
     38          6           0        1.407574    1.109926   -0.167804
     39          6           0       -1.069641    0.860338   -0.062837
     40          6           0        0.099480    1.642585   -0.182888
     41          1           0      -13.886032    0.112406    0.412170
     42          1           0      -14.068970   -0.238286   -1.456450
     43          1           0       12.464883   -1.492801    2.148029
     44          1           0       13.949351   -0.611567    1.668378
     45          1           0      -13.859058    2.417332   -0.589248
     46          1           0      -12.399801    1.866590   -1.639673
     47          1           0       13.834435   -2.931479    0.419021
     48          1           0       13.656636   -1.593430   -0.791773
     49          1           0      -12.723496    2.211912    1.449394
     50          1           0      -11.732168    3.105750    0.315127
     51          1           0       11.585027   -3.522825    0.430455
     52          1           0       12.419933   -3.240363   -1.402919
     53          1           0      -11.259305    0.018338   -2.674511
     54          1           0      -12.579844   -0.985205   -2.718901
     55          1           0      -10.794169   -1.640889   -2.083400
     56          1           0      -12.871851   -1.934533    1.125565
     57          1           0      -11.784060   -2.727069   -0.103660
     58          1           0      -13.339852   -2.345632   -0.757001
     59          1           0       13.444510    0.622478   -0.937347
     60          1           0       13.610637    1.664599    0.720163
     61          1           0       12.350528    1.893261   -0.367043
     62          1           0       10.814749    0.054091    2.635105
     63          1           0       11.078967    1.574473    1.792327
     64          1           0       12.444836    0.944685    2.799299
     65          1           0      -10.035972   -1.753862    0.520334
     66          1           0       10.012024    1.648745   -0.441304
     67          1           0       -9.473041    1.025666    2.084025
     68          1           0      -10.691363    2.162904    2.421338
     69          1           0       -9.378286    2.451297    1.268500
     70          1           0        9.358009   -1.329567   -2.310905
     71          1           0        8.893097   -2.716141   -1.290350
     72          1           0       10.383706   -2.945245   -2.252049
     73          1           0       -8.184805    0.666623    0.067004
     74          1           0        8.432560   -0.634426   -0.164787
     75          1           0       -8.477777   -2.970655    1.437331
     76          1           0       -6.694260   -3.264634    1.041635
     77          1           0       -7.930274   -3.198183   -0.446023
     78          1           0        8.199942    2.958931   -1.702952
     79          1           0        8.708171    2.931890    0.177046
     80          1           0        6.992419    3.434573   -0.366118
     81          1           0       -6.056698    0.178849    0.045791
     82          1           0        6.008876   -0.147189   -0.172772
     83          1           0       -4.846834   -2.396486    0.500961
     84          1           0        5.119123    2.702001   -0.170727
     85          1           0       -3.705424    0.110536    0.050233
     86          1           0        3.687095   -0.006149   -0.298472
     87          1           0       -2.650125   -3.087669    1.783434
     88          1           0       -1.251178   -3.194624    0.746943
     89          1           0       -2.596216   -3.431810   -0.130982
     90          1           0        2.928744    3.728778   -1.523819
     91          1           0        3.197154    3.809766    0.146033
     92          1           0        1.517461    4.166881   -0.429046
     93          1           0       -0.341959   -1.096218    0.444728
     94          1           0        1.738587    0.023413   -0.020179
     95          1           0       -2.226835    1.405185   -0.146651
     96          1           0       -0.109591    2.769148   -0.274435
 ---------------------------------------------------------------------

 SCF Done:  E(RB3LYP) =  -1557.57311637     A.U. after   15 cycles

 Excitation energies and oscillator strengths:

 Excited State   1:      Singlet-A      2.0701 eV  598.92 nm  f=3.2407  <S**2>=0.000
     148 ->149         0.71121
     148 <-149        -0.12441
 This state for optimization and/or second-order correction.
 Total Energy, E(TD-HF/TD-DFT) =  -1557.49704073
 Copying the excited state density for this state as the 1-particle RhoCI density.

 The electronic state is 1-A.
 Alpha  occ. eigenvalues --  -10.20636 -10.20612 -10.20458 -10.20287 -10.20232
 Alpha  occ. eigenvalues --  -10.20181 -10.20154 -10.20061 -10.19927 -10.19925
 Alpha  occ. eigenvalues --  -10.19892 -10.19710 -10.19557 -10.19433 -10.19230
 Alpha  occ. eigenvalues --  -10.19170 -10.19046 -10.18911 -10.18788 -10.18663
 Alpha  occ. eigenvalues --  -10.18391 -10.18305 -10.18259 -10.18250 -10.18157
 Alpha  occ. eigenvalues --  -10.18093 -10.17962 -10.17909 -10.17772 -10.17770
 Alpha  occ. eigenvalues --  -10.17631 -10.17599 -10.17375 -10.17251 -10.17173
 Alpha  occ. eigenvalues --  -10.17165 -10.17060 -10.17047 -10.16362 -10.15191
 Alpha  occ. eigenvalues --   -0.85187  -0.84821  -0.83995  -0.83358  -0.82126
 Alpha  occ. eigenvalues --   -0.81246  -0.79127  -0.78814  -0.78196  -0.77548
 Alpha  occ. eigenvalues --   -0.76582  -0.75190  -0.74049  -0.72235  -0.71906
 Alpha  occ. eigenvalues --   -0.70251  -0.68561  -0.68252  -0.67911  -0.67793
 Alpha  occ. eigenvalues --   -0.67673  -0.67644  -0.66751  -0.66050  -0.65920
 Alpha  occ. eigenvalues --   -0.63472  -0.61684  -0.60206  -0.59072  -0.57273
 Alpha  occ. eigenvalues --   -0.56706  -0.55816  -0.55187  -0.54488  -0.53676
 Alpha  occ. eigenvalues --   -0.53190  -0.52205  -0.50659  -0.50333  -0.49243
 Alpha  occ. eigenvalues --   -0.48461  -0.47587  -0.47458  -0.46482  -0.46280
 Alpha  occ. eigenvalues --   -0.45831  -0.45302  -0.45043  -0.44586  -0.43927
 Alpha  occ. eigenvalues --   -0.43577  -0.43116  -0.42830  -0.42371  -0.42315
 Alpha  occ. eigenvalues --   -0.41929  -0.41808  -0.41530  -0.41446  -0.41162
 Alpha  occ. eigenvalues --   -0.40561  -0.40078  -0.39973  -0.39833  -0.39280
 Alpha  occ. eigenvalues --   -0.38844  -0.38676  -0.38385  -0.38289  -0.38163
 Alpha  occ. eigenvalues --   -0.37709  -0.37157  -0.37049  -0.36743  -0.36503
 Alpha  occ. eigenvalues --   -0.36152  -0.35793  -0.35462  -0.35403  -0.35155
 Alpha  occ. eigenvalues --   -0.34795  -0.34331  -0.34283  -0.34009  -0.33886
 Alpha  occ. eigenvalues --   -0.33795  -0.33517  -0.33415  -0.33030  -0.32765
 Alpha  occ. eigenvalues --   -0.32729  -0.32452  -0.31800  -0.31290  -0.31152
 Alpha  occ. eigenvalues --   -0.31029  -0.29867  -0.29497  -0.28810  -0.28733
 Alpha  occ. eigenvalues --   -0.28257  -0.27735  -0.26598  -0.24209  -0.22978
 Alpha  occ. eigenvalues --   -0.21151  -0.18912  -0.15958
 Alpha virt. eigenvalues --   -0.08493  -0.04989  -0.01760   0.01059   0.03013
 Alpha virt. eigenvalues --    0.04861   0.06239   0.06721   0.07016   0.07276
 Alpha virt. eigenvalues --    0.07580   0.07701   0.08057   0.08790   0.09222

 Mulliken charges:
               1
     1  C   -0.029538
     2  C   -0.000132
     3  C   -0.162987
     4  C   -0.149537
     5  C   -0.176169
     6  C   -0.201130
     7  C    0.112751
     8  C    0.088660
     9  C   -0.218216
    10  C   -0.231973
    11  C   -0.000680
    12  C    0.051044
    13  C   -0.282969
    14  C   -0.286349
    15  C   -0.287464
    16  C   -0.307182
    17  C   -0.142616
    18  C   -0.148464
    19  C   -0.342612
    20  C   -0.360739
    21  C   -0.091398
    22  C   -0.027834
    23  C    0.109375
    24  C    0.069233
    25  C   -0.365139
    26  C   -0.357117
    27  C   -0.109360
    28  C   -0.101291
    29  C   -0.051789
    30  C   -0.078903
    31  C   -0.061426
    32  C   -0.141557
    33  C    0.080464
    34  C    0.166673
    35  C   -0.366159
    36  C   -0.378673
    37  C   -0.072174
    38  C   -0.105544
    39  C   -0.091170
    40  C   -0.115746
    41  H    0.086306
    42  H    0.062910
    43  H    0.084519
    44  H    0.080169
    45  H    0.097843
    46  H    0.082601
    47  H    0.093456
    48  H    0.095061
    49  H    0.115339
    50  H    0.109323
    51  H    0.087876
    52  H    0.101317
    53  H    0.118678
    54  H    0.089532
    55  H    0.089794
    56  H    0.072544
    57  H    0.101920
    58  H    0.093887
    59  H    0.108707
    60  H    0.066724
    61  H    0.112485
    62  H    0.088407
    63  H    0.100520
    64  H    0.092205
    65  H    0.075688
    66  H    0.068524
    67  H    0.117974
    68  H    0.106095
    69  H    0.120544
    70  H    0.113535
    71  H    0.108238
    72  H    0.099991
    73  H    0.059097
    74  H    0.059191
    75  H    0.088146
    76  H    0.118774
    77  H    0.122103
    78  H    0.125849
    79  H    0.104751
    80  H    0.121012
    81  H    0.060172
    82  H    0.068832
    83  H    0.066947
    84  H    0.060701
    85  H    0.032735
    86  H    0.065451
    87  H    0.079260
    88  H    0.114002
    89  H    0.114651
    90  H    0.141942
    91  H    0.113123
    92  H    0.089120
    93  H    0.071912
    94  H    0.090727
    95  H    0.063265
    96  H    0.091366
 Sum of Mulliken charges =  -0.00000

 Dipole moment (field-independent basis, Debye):
    X=              0.0912    Y=              0.5916    Z=             -0.1380  Tot=              0.6143
 Quadrupole moment (field-independent basis, Debye-Ang):
   XX=           -230.6868   YY=           -233.5763   ZZ=           -254.8140
   XY=             -3.8689   XZ=             -3.0876   YZ=             -1.6623

 Normal termination of Gaussian 16 at Tue Jul 30 07:11:02 2019.
