 Gaussian 16, Revision A.03,
 Gaussian 16:  ES64L-G16RevA.03 25-Dec-2016

 ---------------------------------
 # td=(NStates=1) B3LYP/6-31G(d,p)
 ---------------------------------

 --
 TD
 --
 Symbolic Z-matrix:
 Charge =  0 Multiplicity = 1

                         Standard orientation:
 ---------------------------------------------------------------------
 Center     Atomic      Atomic             Coordinates (Angstroms)
 Number     Number       Type             X           Y           Z
 ---------------------------------------------------------------------
      1          6           0       12.125208    0.544877   -0.581176
      2          6           0      -12.131825   -0.124423    0.818890
      3          6           0       13.479049   -0.237277   -0.457236
      4          6           0      -13.107857    1.034893    1.311518
      5          6           0       13.365599   -1.775355   -0.416846
      6          6           0      -13.425537    2.048303    0.288117
      7          6           0       11.071162   -0.090051    0.252535
      8          6           0      -11.052960    0.361730   -0.073669
      9          6           0       12.547816   -2.060260    0.729835
     10          6           0      -12.146169    2.592826   -0.241046
     11          6           0       11.273428   -1.216964    0.922866
     12          6           0      -11.017795    1.629520   -0.608117
     13          6           0       11.632309    0.450675   -2.095965
     14          6           0       12.363432    2.013249   -0.316603
     15          6           0      -13.077743   -1.244687    0.300945
     16          6           0      -11.440089   -0.768257    2.149056
     17          6           0        9.857070    0.763294    0.369580
     18          6           0      -10.014938   -0.680317   -0.366972
     19          6           0       10.299171   -1.835048    1.863040
     20          6           0      -10.072847    2.114204   -1.602396
     21          6           0        8.623535    0.305410    0.332495
     22          6           0       -8.663186   -0.378410   -0.348707
     23          6           0        7.446596    1.135838    0.510060
     24          6           0       -7.575919   -1.288078   -0.413597
     25          6           0        7.710706    2.617960    0.865875
     26          6           0       -7.885379   -2.661496   -0.646188
     27          6           0        6.164959    0.639114    0.251906
     28          6           0       -6.303833   -0.880663   -0.298427
     29          6           0        4.954319    1.320181    0.306842
     30          6           0       -5.131114   -1.594840   -0.425934
     31          6           0        3.753265    0.728913    0.143288
     32          6           0       -3.886284   -0.954773   -0.445108
     33          6           0        2.445696    1.413647    0.104914
     34          6           0       -2.619571   -1.669183   -0.604790
     35          6           0        2.368641    3.009334    0.150959
     36          6           0       -2.678062   -3.269070   -0.680170
     37          6           0        1.264573    0.775450   -0.123485
     38          6           0       -1.431230   -0.988328   -0.437114
     39          6           0        1.105731   -0.679328   -0.337364
     40          6           0       -0.064405   -1.434798   -0.549285
     41          1           0       13.773414    0.213252    0.423435
     42          1           0       14.085969   -0.104556   -1.360246
     43          1           0      -12.569075    1.528574    2.119069
     44          1           0      -13.917436    0.550538    1.834433
     45          1           0       14.224681   -2.348424   -0.314924
     46          1           0       12.792958   -2.075269   -1.381215
     47          1           0      -14.185784    2.917037    0.633044
     48          1           0      -14.012340    1.421082   -0.485303
     49          1           0       13.110490   -2.068193    1.611637
     50          1           0       12.090710   -3.199787    0.886217
     51          1           0      -11.750003    3.339547    0.513667
     52          1           0      -12.374053    3.283604   -1.019447
     53          1           0       11.240730   -0.598291   -2.223337
     54          1           0       12.459482    0.907949   -2.734868
     55          1           0       10.855220    1.246354   -2.117554
     56          1           0       12.563230    2.268296    0.737372
     57          1           0       11.452381    2.866257   -0.466155
     58          1           0       13.165088    2.450327   -0.872193
     59          1           0      -13.615537   -0.775220   -0.638893
     60          1           0      -13.519646   -1.580294    0.965687
     61          1           0      -12.478125   -2.227581    0.041265
     62          1           0      -10.748549   -0.127691    2.577042
     63          1           0      -11.163457   -1.759578    1.948894
     64          1           0      -12.412915   -0.520973    2.975019
     65          1           0        9.979901    1.948610    0.520605
     66          1           0      -10.312861   -1.812529   -0.736571
     67          1           0        9.598110   -1.134303    2.315948
     68          1           0       10.995006   -2.093172    2.959542
     69          1           0        9.856996   -2.708543    1.393369
     70          1           0       -9.306718    1.372400   -1.911299
     71          1           0       -9.387733    2.988834   -1.282827
     72          1           0      -10.541766    2.343974   -2.537182
     73          1           0        8.502476   -0.604615    0.268529
     74          1           0       -8.372161    0.770446   -0.158200
     75          1           0        8.521562    2.774557    1.753206
     76          1           0        6.782254    3.055352    0.935821
     77          1           0        8.398054    2.899034   -0.049340
     78          1           0       -8.612068   -3.090974   -1.401906
     79          1           0       -8.341473   -3.079674    0.376275
     80          1           0       -6.860599   -3.269809   -0.886010
     81          1           0        6.030661   -0.438325   -0.013339
     82          1           0       -6.414176    0.169796    0.192418
     83          1           0        4.937279    2.384554    0.812129
     84          1           0       -5.394672   -2.608543   -0.727835
     85          1           0        3.698902   -0.481872   -0.116458
     86          1           0       -3.609379    0.003332   -0.112872
     87          1           0        2.626991    3.392019    1.175768
     88          1           0        1.178140    3.074909    0.127477
     89          1           0        2.904522    3.633358   -0.737507
     90          1           0       -2.882851   -3.590979   -1.712882
     91          1           0       -3.164775   -3.737957    0.061304
     92          1           0       -1.516711   -3.538869   -0.519444
     93          1           0        0.284188    1.394940   -0.014085
     94          1           0       -1.384143    0.196480   -0.278909
     95          1           0        1.939366   -1.330944   -0.368313
     96          1           0        0.047116   -2.495322   -0.595214
 ---------------------------------------------------------------------

 SCF Done:  E(RB3LYP) =  -1557.49935673     A.U. after   15 cycles

 Excitation energies and oscillator strengths:

 Excited State   1:      Singlet-A      2.1623 eV  573.40 nm  f=3.0429  <S**2>=0.000
     148 ->149         0.70644
     148 <-149        -0.10071
 This state for optimization and/or second-order correction.
 Total Energy, E(TD-HF/TD-DFT) =  -1557.41989440
 Copying the excited state density for this state as the 1-particle RhoCI density.

 The electronic state is 1-A.
 Alpha  occ. eigenvalues --  -10.20989 -10.20975 -10.20561 -10.20406 -10.20405
 Alpha  occ. eigenvalues --  -10.20185 -10.20068 -10.19897 -10.19845 -10.19816
 Alpha  occ. eigenvalues --  -10.19770 -10.19693 -10.19624 -10.19606 -10.19536
 Alpha  occ. eigenvalues --  -10.19205 -10.19196 -10.19134 -10.19121 -10.19110
 Alpha  occ. eigenvalues --  -10.19034 -10.18988 -10.18843 -10.18839 -10.18834
 Alpha  occ. eigenvalues --  -10.18795 -10.18729 -10.18724 -10.18427 -10.18123
 Alpha  occ. eigenvalues --  -10.18042 -10.18029 -10.17981 -10.17908 -10.17849
 Alpha  occ. eigenvalues --  -10.17481 -10.17412 -10.16905 -10.16742 -10.16153
 Alpha  occ. eigenvalues --   -0.86066  -0.85006  -0.84016  -0.83167  -0.81939
 Alpha  occ. eigenvalues --   -0.81064  -0.79111  -0.78767  -0.78356  -0.77955
 Alpha  occ. eigenvalues --   -0.77031  -0.75955  -0.74283  -0.72285  -0.71736
 Alpha  occ. eigenvalues --   -0.68875  -0.68751  -0.68416  -0.68133  -0.67811
 Alpha  occ. eigenvalues --   -0.67687  -0.67135  -0.67043  -0.66789  -0.65729
 Alpha  occ. eigenvalues --   -0.63010  -0.62252  -0.59569  -0.58999  -0.57111
 Alpha  occ. eigenvalues --   -0.56880  -0.56507  -0.55226  -0.53856  -0.53056
 Alpha  occ. eigenvalues --   -0.51915  -0.51365  -0.50768  -0.49467  -0.49094
 Alpha  occ. eigenvalues --   -0.48025  -0.47693  -0.47198  -0.46848  -0.46429
 Alpha  occ. eigenvalues --   -0.45747  -0.45066  -0.44613  -0.44349  -0.44035
 Alpha  occ. eigenvalues --   -0.43915  -0.43376  -0.43129  -0.42906  -0.42784
 Alpha  occ. eigenvalues --   -0.42600  -0.42219  -0.41970  -0.41317  -0.41020
 Alpha  occ. eigenvalues --   -0.40729  -0.40589  -0.40212  -0.39688  -0.39561
 Alpha  occ. eigenvalues --   -0.39159  -0.38820  -0.38530  -0.38346  -0.38003
 Alpha  occ. eigenvalues --   -0.37839  -0.37486  -0.36825  -0.36601  -0.36455
 Alpha  occ. eigenvalues --   -0.36320  -0.35811  -0.35432  -0.35290  -0.34789
 Alpha  occ. eigenvalues --   -0.34657  -0.34491  -0.34139  -0.33884  -0.33808
 Alpha  occ. eigenvalues --   -0.33266  -0.33197  -0.32782  -0.32684  -0.32385
 Alpha  occ. eigenvalues --   -0.32182  -0.31757  -0.31073  -0.31030  -0.30562
 Alpha  occ. eigenvalues --   -0.30461  -0.30012  -0.29648  -0.29091  -0.28570
 Alpha  occ. eigenvalues --   -0.28286  -0.27999  -0.26707  -0.24148  -0.22827
 Alpha  occ. eigenvalues --   -0.21298  -0.18911  -0.16482
 Alpha virt. eigenvalues --   -0.08356  -0.05404  -0.01772   0.01019   0.02338
 Alpha virt. eigenvalues --    0.04006   0.05489   0.05829   0.06435   0.06856
 Alpha virt. eigenvalues --    0.06936   0.07496   0.07833   0.08170   0.08256

 Mulliken charges:
               1
     1  C   -0.033362
     2  C   -0.039590
     3  C   -0.171821
     4  C   -0.176161
     5  C   -0.178921
     6  C   -0.173633
     7  C    0.087709
     8  C    0.096267
     9  C   -0.202970
    10  C   -0.217287
    11  C    0.064535
    12  C    0.085209
    13  C   -0.288798
    14  C   -0.313179
    15  C   -0.241709
    16  C   -0.291472
    17  C   -0.129658
    18  C   -0.154986
    19  C   -0.351837
    20  C   -0.385720
    21  C   -0.015844
    22  C   -0.101278
    23  C    0.080347
    24  C    0.169803
    25  C   -0.355028
    26  C   -0.386734
    27  C   -0.117184
    28  C   -0.098004
    29  C   -0.071892
    30  C   -0.104781
    31  C   -0.105378
    32  C   -0.089704
    33  C    0.101242
    34  C    0.084037
    35  C   -0.355899
    36  C   -0.361087
    37  C   -0.127490
    38  C   -0.111252
    39  C   -0.081982
    40  C   -0.104070
    41  H    0.102194
    42  H    0.087659
    43  H    0.087373
    44  H    0.087585
    45  H    0.102374
    46  H    0.087804
    47  H    0.073161
    48  H    0.080784
    49  H    0.115813
    50  H    0.053616
    51  H    0.097107
    52  H    0.099199
    53  H    0.102534
    54  H    0.090268
    55  H    0.104497
    56  H    0.103229
    57  H    0.067567
    58  H    0.110679
    59  H    0.090653
    60  H    0.106196
    61  H    0.060660
    62  H    0.122063
    63  H    0.111222
    64  H    0.044234
    65  H    0.067234
    66  H    0.082563
    67  H    0.127436
    68  H    0.050448
    69  H    0.126396
    70  H    0.121438
    71  H    0.097664
    72  H    0.117896
    73  H    0.045022
    74  H    0.074855
    75  H    0.108468
    76  H    0.107007
    77  H    0.116971
    78  H    0.116604
    79  H    0.108144
    80  H    0.077477
    81  H    0.075627
    82  H    0.063418
    83  H    0.082170
    84  H    0.086543
    85  H    0.065950
    86  H    0.086919
    87  H    0.118156
    88  H    0.092213
    89  H    0.115184
    90  H    0.126337
    91  H    0.137772
    92  H    0.081246
    93  H    0.082583
    94  H    0.062022
    95  H    0.082305
    96  H    0.077024
 Sum of Mulliken charges =  -0.00000

 Dipole moment (field-independent basis, Debye):
    X=              1.4925    Y=             -0.0476    Z=              0.4719  Tot=              1.5660
 Quadrupole moment (field-independent basis, Debye-Ang):
   XX=           -216.8961   YY=           -235.6198   ZZ=           -257.6456
   XY=              1.4535   XZ=              3.5684   YZ=              3.1047

 Normal termination of Gaussian 16 at Mon Jul 29 15:39:36 2019.
