 Gaussian 16, Revision A.03,
 Gaussian 16:  ES64L-G16RevA.03 25-Dec-2016

 ---------------------------------
 # td=(NStates=1) B3LYP/6-31G(d,p)
 ---------------------------------

 --
 TD
 --
 Symbolic Z-matrix:
 Charge =  0 Multiplicity = 1

                         Standard orientation:
 ---------------------------------------------------------------------
 Center     Atomic      Atomic             Coordinates (Angstroms)
 Number     Number       Type             X           Y           Z
 ---------------------------------------------------------------------
      1          6           0       12.171990    0.421973   -0.631762
      2          6           0      -12.067149   -0.173103    0.991644
      3          6           0       13.420155   -0.567186   -0.456229
      4          6           0      -13.010384    1.005149    1.456331
      5          6           0       13.061377   -1.989103   -0.326682
      6          6           0      -13.371656    1.962456    0.426505
      7          6           0       11.031932    0.014464    0.480263
      8          6           0      -10.956235    0.348684    0.004267
      9          6           0       12.212615   -2.200097    0.879488
     10          6           0      -12.126358    2.680502   -0.242937
     11          6           0       10.985764   -1.191662    1.012506
     12          6           0      -11.078294    1.662669   -0.547835
     13          6           0       11.658695    0.362169   -2.030808
     14          6           0       12.583135    1.801611   -0.335152
     15          6           0      -13.014867   -1.159528    0.204995
     16          6           0      -11.526485   -0.786955    2.242208
     17          6           0        9.838095    0.859003    0.429517
     18          6           0       -9.857247   -0.627908   -0.310156
     19          6           0       10.089970   -1.622944    2.098774
     20          6           0      -10.079310    2.190901   -1.619605
     21          6           0        8.530677    0.461793    0.427430
     22          6           0       -8.578722   -0.403164   -0.186640
     23          6           0        7.433699    1.428747    0.464525
     24          6           0       -7.542340   -1.350993   -0.490156
     25          6           0        7.727492    2.946992    0.508369
     26          6           0       -7.906092   -2.774454   -0.758685
     27          6           0        6.146957    0.804073    0.236898
     28          6           0       -6.230285   -0.898810   -0.436817
     29          6           0        4.959321    1.583397    0.242202
     30          6           0       -5.025629   -1.669453   -0.498374
     31          6           0        3.717787    0.908489    0.216345
     32          6           0       -3.755640   -1.071425   -0.584661
     33          6           0        2.373022    1.499670   -0.004696
     34          6           0       -2.516808   -1.847905   -0.716927
     35          6           0        2.214215    3.051369   -0.012387
     36          6           0       -2.456263   -3.255717   -0.889999
     37          6           0        1.234735    0.747448   -0.164405
     38          6           0       -1.354917   -1.016447   -0.421800
     39          6           0        1.185358   -0.740616   -0.333474
     40          6           0        0.069255   -1.477214   -0.518203
     41          1           0       13.850032   -0.204233    0.469178
     42          1           0       14.089758   -0.304828   -1.379895
     43          1           0      -12.372521    1.570565    2.283991
     44          1           0      -13.985983    0.441639    2.055034
     45          1           0       13.840743   -2.681816   -0.093313
     46          1           0       12.543415   -2.221963   -1.177873
     47          1           0      -14.177589    2.693720    0.824997
     48          1           0      -13.687933    1.268663   -0.272382
     49          1           0       12.760590   -2.249024    1.726428
     50          1           0       11.718219   -3.259042    0.904482
     51          1           0      -11.579690    3.386965    0.442150
     52          1           0      -12.524948    3.143077   -1.272066
     53          1           0       11.353106   -0.611303   -2.365401
     54          1           0       12.404019    0.811428   -2.925548
     55          1           0       10.792371    0.960059   -2.246672
     56          1           0       12.944412    1.950807    0.747491
     57          1           0       11.709128    2.368303   -0.306617
     58          1           0       13.586040    2.090418   -0.825501
     59          1           0      -13.383764   -0.540679   -0.578518
     60          1           0      -13.763863   -1.688868    0.989417
     61          1           0      -12.389268   -2.054491   -0.089861
     62          1           0      -10.896260   -0.070733    2.741703
     63          1           0      -10.809169   -1.741831    1.859492
     64          1           0      -12.234757   -1.265756    2.877828
     65          1           0       10.066214    1.879595    0.506084
     66          1           0      -10.277981   -1.654971   -0.454793
     67          1           0        9.558325   -0.778904    2.638109
     68          1           0       10.777303   -2.076140    2.746683
     69          1           0        9.048666   -2.430119    1.967869
     70          1           0       -9.071177    1.666526   -1.864771
     71          1           0       -9.735762    3.341875   -1.318733
     72          1           0      -10.725455    2.361955   -2.502410
     73          1           0        8.272093   -0.643059    0.434429
     74          1           0       -8.257127    0.634954    0.115699
     75          1           0        8.108163    3.097288    1.484018
     76          1           0        6.819834    3.561853    0.499747
     77          1           0        8.375162    3.268352   -0.327946
     78          1           0       -8.667236   -2.912892   -1.614743
     79          1           0       -8.616307   -3.256093   -0.034579
     80          1           0       -6.983130   -3.295591   -0.787745
     81          1           0        6.277225   -0.309655    0.439225
     82          1           0       -6.090300    0.240550   -0.194229
     83          1           0        4.826732    2.592794    0.172997
     84          1           0       -5.014721   -2.808243   -0.745674
     85          1           0        3.668753   -0.259128    0.480235
     86          1           0       -3.599746   -0.018305   -0.535312
     87          1           0        2.410206    3.613832    0.742987
     88          1           0        1.139598    3.374112   -0.074328
     89          1           0        2.747132    3.432014   -0.873841
     90          1           0       -2.681640   -3.862287   -1.875806
     91          1           0       -3.266678   -3.844428   -0.268333
     92          1           0       -1.366882   -3.504068   -0.661061
     93          1           0        0.370353    1.354887   -0.343358
     94          1           0       -1.561237   -0.081768   -0.042039
     95          1           0        2.209890   -1.344091   -0.283713
     96          1           0        0.304253   -2.633192   -0.636478
 ---------------------------------------------------------------------

 SCF Done:  E(RB3LYP) =  -1557.58968888     A.U. after   16 cycles

 Excitation energies and oscillator strengths:

 Excited State   1:      Singlet-A      2.1552 eV  575.27 nm  f=2.7929  <S**2>=0.000
     148 ->149         0.70986
 This state for optimization and/or second-order correction.
 Total Energy, E(TD-HF/TD-DFT) =  -1557.51048607
 Copying the excited state density for this state as the 1-particle RhoCI density.

 The electronic state is 1-A.
 Alpha  occ. eigenvalues --  -10.20802 -10.20777 -10.20672 -10.20402 -10.20362
 Alpha  occ. eigenvalues --  -10.20273 -10.20209 -10.20172 -10.20005 -10.20000
 Alpha  occ. eigenvalues --  -10.19961 -10.19904 -10.19796 -10.19733 -10.19722
 Alpha  occ. eigenvalues --  -10.19721 -10.19679 -10.19673 -10.19360 -10.19219
 Alpha  occ. eigenvalues --  -10.19206 -10.19182 -10.19139 -10.19039 -10.18934
 Alpha  occ. eigenvalues --  -10.18810 -10.18606 -10.18509 -10.18419 -10.18245
 Alpha  occ. eigenvalues --  -10.18020 -10.17959 -10.17909 -10.17907 -10.17836
 Alpha  occ. eigenvalues --  -10.17604 -10.17549 -10.17472 -10.17197 -10.16309
 Alpha  occ. eigenvalues --   -0.84997  -0.84440  -0.82952  -0.82335  -0.81859
 Alpha  occ. eigenvalues --   -0.80942  -0.79090  -0.78563  -0.77987  -0.77703
 Alpha  occ. eigenvalues --   -0.76791  -0.75298  -0.74364  -0.72257  -0.72174
 Alpha  occ. eigenvalues --   -0.69991  -0.68976  -0.68547  -0.68115  -0.67778
 Alpha  occ. eigenvalues --   -0.67381  -0.66936  -0.66644  -0.65835  -0.65731
 Alpha  occ. eigenvalues --   -0.62267  -0.61503  -0.59272  -0.58520  -0.56927
 Alpha  occ. eigenvalues --   -0.55942  -0.54521  -0.54273  -0.53418  -0.52657
 Alpha  occ. eigenvalues --   -0.52498  -0.51640  -0.50563  -0.49731  -0.49697
 Alpha  occ. eigenvalues --   -0.48271  -0.47596  -0.47226  -0.46726  -0.46062
 Alpha  occ. eigenvalues --   -0.45476  -0.45223  -0.44904  -0.44430  -0.43983
 Alpha  occ. eigenvalues --   -0.43555  -0.43343  -0.43050  -0.42637  -0.42486
 Alpha  occ. eigenvalues --   -0.42289  -0.41878  -0.41696  -0.41218  -0.40699
 Alpha  occ. eigenvalues --   -0.40227  -0.39988  -0.39637  -0.39315  -0.39233
 Alpha  occ. eigenvalues --   -0.38948  -0.38849  -0.38354  -0.38316  -0.37963
 Alpha  occ. eigenvalues --   -0.37704  -0.37300  -0.37027  -0.36866  -0.36806
 Alpha  occ. eigenvalues --   -0.36616  -0.35952  -0.35752  -0.35599  -0.35390
 Alpha  occ. eigenvalues --   -0.34890  -0.34593  -0.34535  -0.34037  -0.33840
 Alpha  occ. eigenvalues --   -0.33504  -0.33335  -0.33168  -0.32738  -0.32632
 Alpha  occ. eigenvalues --   -0.32376  -0.31630  -0.31424  -0.31285  -0.31088
 Alpha  occ. eigenvalues --   -0.30807  -0.30364  -0.29293  -0.28621  -0.28262
 Alpha  occ. eigenvalues --   -0.27797  -0.26966  -0.26041  -0.24123  -0.22857
 Alpha  occ. eigenvalues --   -0.21229  -0.18473  -0.16435
 Alpha virt. eigenvalues --   -0.08133  -0.05716  -0.01825   0.00161   0.01696
 Alpha virt. eigenvalues --    0.03176   0.05765   0.05983   0.06289   0.06811
 Alpha virt. eigenvalues --    0.07358   0.07609   0.07878   0.08198   0.08565

 Mulliken charges:
               1
     1  C    0.012027
     2  C   -0.027421
     3  C   -0.170593
     4  C   -0.137656
     5  C   -0.164259
     6  C   -0.175400
     7  C    0.065705
     8  C    0.045111
     9  C   -0.244621
    10  C   -0.212550
    11  C    0.049365
    12  C    0.044219
    13  C   -0.285779
    14  C   -0.298473
    15  C   -0.282182
    16  C   -0.273903
    17  C   -0.141390
    18  C   -0.128978
    19  C   -0.343488
    20  C   -0.342528
    21  C   -0.088418
    22  C   -0.075849
    23  C    0.083244
    24  C    0.140308
    25  C   -0.372174
    26  C   -0.376836
    27  C   -0.117017
    28  C   -0.130474
    29  C   -0.076519
    30  C   -0.106085
    31  C   -0.115939
    32  C   -0.102523
    33  C    0.097400
    34  C    0.148698
    35  C   -0.381435
    36  C   -0.385698
    37  C   -0.123642
    38  C   -0.126941
    39  C   -0.090627
    40  C   -0.095376
    41  H    0.087043
    42  H    0.072659
    43  H    0.058735
    44  H    0.052194
    45  H    0.092096
    46  H    0.107367
    47  H    0.086153
    48  H    0.106343
    49  H    0.119091
    50  H    0.081370
    51  H    0.118577
    52  H    0.092610
    53  H    0.105685
    54  H    0.062961
    55  H    0.108526
    56  H    0.081251
    57  H    0.105404
    58  H    0.095550
    59  H    0.113078
    60  H    0.079460
    61  H    0.091818
    62  H    0.110368
    63  H    0.051609
    64  H    0.106431
    65  H    0.080583
    66  H    0.076074
    67  H    0.115043
    68  H    0.115802
    69  H    0.057145
    70  H    0.116238
    71  H    0.071860
    72  H    0.114660
    73  H    0.088181
    74  H    0.080640
    75  H    0.136766
    76  H    0.108951
    77  H    0.127383
    78  H    0.112786
    79  H    0.116705
    80  H    0.109985
    81  H    0.088991
    82  H    0.074338
    83  H    0.089174
    84  H    0.078483
    85  H    0.070569
    86  H    0.080712
    87  H    0.133136
    88  H    0.094615
    89  H    0.120939
    90  H    0.110987
    91  H    0.110705
    92  H    0.110182
    93  H    0.082633
    94  H    0.090414
    95  H    0.080997
    96  H    0.076639
 Sum of Mulliken charges =  -0.00000

 Dipole moment (field-independent basis, Debye):
    X=              0.5632    Y=              0.5931    Z=              0.4989  Tot=              0.9581
 Quadrupole moment (field-independent basis, Debye-Ang):
   XX=           -231.7770   YY=           -232.0808   ZZ=           -257.6059
   XY=              0.1552   XZ=              7.2608   YZ=              1.1795

 Normal termination of Gaussian 16 at Tue Jul 30 21:19:43 2019.
