 Gaussian 16, Revision A.03,
 Gaussian 16:  ES64L-G16RevA.03 25-Dec-2016

 ---------------------------------
 # td=(NStates=1) B3LYP/6-31G(d,p)
 ---------------------------------

 --
 TD
 --
 Symbolic Z-matrix:
 Charge =  0 Multiplicity = 1

                         Standard orientation:
 ---------------------------------------------------------------------
 Center     Atomic      Atomic             Coordinates (Angstroms)
 Number     Number       Type             X           Y           Z
 ---------------------------------------------------------------------
      1          6           0       12.213383    0.568825   -0.587006
      2          6           0      -12.176440   -0.062915    0.718392
      3          6           0       13.550295   -0.311463   -0.432604
      4          6           0      -12.944369    1.128194    1.325864
      5          6           0       13.135187   -1.770916   -0.409724
      6          6           0      -13.323801    2.161723    0.254566
      7          6           0       11.094155   -0.008616    0.228116
      8          6           0      -11.038550    0.438984   -0.111346
      9          6           0       12.307272   -2.125206    0.718231
     10          6           0      -11.977615    2.638837   -0.372877
     11          6           0       11.140880   -1.124664    0.885159
     12          6           0      -10.955898    1.684166   -0.627561
     13          6           0       11.921802    0.569469   -2.202176
     14          6           0       12.498310    1.969068   -0.156124
     15          6           0      -13.098339   -0.975145   -0.048486
     16          6           0      -11.715838   -0.869538    1.936507
     17          6           0        9.890737    0.879947    0.254338
     18          6           0       -9.977469   -0.549031   -0.318567
     19          6           0       10.050538   -1.785865    1.819993
     20          6           0       -9.821547    2.135168   -1.611235
     21          6           0        8.566973    0.424562    0.118415
     22          6           0       -8.602937   -0.359014   -0.039122
     23          6           0        7.434548    1.242475    0.340247
     24          6           0       -7.571087   -1.323509   -0.285531
     25          6           0        7.661319    2.816843    0.507125
     26          6           0       -7.992153   -2.695264   -0.809839
     27          6           0        6.166985    0.716829    0.290322
     28          6           0       -6.257512   -0.948725   -0.242765
     29          6           0        4.776618    1.386928    0.353985
     30          6           0       -5.017559   -1.675233   -0.453520
     31          6           0        3.638099    0.670793    0.250853
     32          6           0       -3.781461   -1.148023   -0.334791
     33          6           0        2.326039    1.277408    0.252524
     34          6           0       -2.544443   -1.888747   -0.372995
     35          6           0        2.300861    2.841695    0.577438
     36          6           0       -2.495252   -3.414733   -0.653227
     37          6           0        1.154878    0.602056    0.106876
     38          6           0       -1.449838   -1.098296   -0.155528
     39          6           0        1.125219   -0.817420   -0.161997
     40          6           0       -0.134394   -1.587257   -0.254146
     41          1           0       13.846504   -0.259953    0.661757
     42          1           0       14.222378    0.099070   -1.368485
     43          1           0      -12.343111    1.736294    2.189752
     44          1           0      -13.756201    0.612455    1.943328
     45          1           0       14.100473   -2.358229   -0.405075
     46          1           0       12.717087   -1.984858   -1.314988
     47          1           0      -13.836287    3.051309    0.663796
     48          1           0      -13.940020    1.942376   -0.636541
     49          1           0       12.817649   -1.998047    1.627755
     50          1           0       11.742923   -3.124472    0.510294
     51          1           0      -11.689297    3.600433    0.193488
     52          1           0      -12.237574    3.188353   -1.356854
     53          1           0       11.588395   -0.440879   -2.622231
     54          1           0       12.999754    0.743597   -2.650861
     55          1           0       10.982520    1.348484   -2.478341
     56          1           0       12.842410    2.116404    0.879153
     57          1           0       11.775254    2.703936   -0.356296
     58          1           0       13.267473    2.225268   -0.937357
     59          1           0      -13.791833   -0.383264   -0.882649
     60          1           0      -13.882101   -1.491884    0.578844
     61          1           0      -12.585208   -1.711850   -0.637595
     62          1           0      -10.928081   -0.367302    2.480652
     63          1           0      -11.577527   -1.906287    1.416574
     64          1           0      -12.410567   -0.934501    2.576005
     65          1           0       10.192042    1.825530    0.312891
     66          1           0      -10.286421   -1.506354   -0.575275
     67          1           0        9.467533   -1.101487    2.529268
     68          1           0       10.738577   -2.061374    2.718018
     69          1           0        9.590191   -2.619894    1.470117
     70          1           0       -9.367497    1.382786   -2.068849
     71          1           0       -9.120769    2.751817   -1.010942
     72          1           0      -10.093398    2.793084   -2.403818
     73          1           0        8.158866   -0.647660   -0.406358
     74          1           0       -8.239820    0.676386    0.335874
     75          1           0        8.607697    3.075419    1.247466
     76          1           0        6.740373    3.461653    0.729940
     77          1           0        8.191241    3.065246   -0.435319
     78          1           0       -8.529598   -2.498023   -1.743159
     79          1           0       -8.666135   -3.055310   -0.025853
     80          1           0       -7.178328   -3.305998   -1.112127
     81          1           0        5.871950   -0.353952    0.003812
     82          1           0       -6.040057   -0.004970    0.128863
     83          1           0        4.921488    2.487356    0.292676
     84          1           0       -5.269183   -2.804493   -0.195627
     85          1           0        3.763470   -0.346418    0.084694
     86          1           0       -3.523950    0.005012   -0.209437
     87          1           0        2.937108    3.240640    1.384648
     88          1           0        1.255169    2.999774    0.363312
     89          1           0        2.797223    3.238674   -0.400993
     90          1           0       -2.865316   -3.717006   -1.537704
     91          1           0       -3.476850   -3.851260    0.008007
     92          1           0       -1.513862   -4.113093   -0.533003
     93          1           0        0.378456    1.178289   -0.022501
     94          1           0       -1.604216    0.044170   -0.089582
     95          1           0        1.842756   -1.717480   -0.335832
     96          1           0       -0.069339   -2.613864   -0.364022
 ---------------------------------------------------------------------

 SCF Done:  E(RB3LYP) =  -1557.52268028     A.U. after   16 cycles

 Excitation energies and oscillator strengths:

 Excited State   1:      Singlet-A      2.1910 eV  565.88 nm  f=2.9409  <S**2>=0.000
     148 ->149         0.70387
     148 <-149        -0.10109
 This state for optimization and/or second-order correction.
 Total Energy, E(TD-HF/TD-DFT) =  -1557.44216223
 Copying the excited state density for this state as the 1-particle RhoCI density.

 The electronic state is 1-A.
 Alpha  occ. eigenvalues --  -10.20696 -10.20685 -10.20662 -10.20613 -10.20574
 Alpha  occ. eigenvalues --  -10.20436 -10.20347 -10.20068 -10.20056 -10.19867
 Alpha  occ. eigenvalues --  -10.19661 -10.19615 -10.19445 -10.19336 -10.19325
 Alpha  occ. eigenvalues --  -10.19309 -10.19229 -10.19224 -10.19130 -10.18846
 Alpha  occ. eigenvalues --  -10.18602 -10.18596 -10.18386 -10.18373 -10.18358
 Alpha  occ. eigenvalues --  -10.18266 -10.18196 -10.18151 -10.18130 -10.18119
 Alpha  occ. eigenvalues --  -10.18112 -10.18038 -10.17662 -10.17645 -10.17577
 Alpha  occ. eigenvalues --  -10.17139 -10.17055 -10.16619 -10.16335 -10.15779
 Alpha  occ. eigenvalues --   -0.85602  -0.85492  -0.83334  -0.82690  -0.81582
 Alpha  occ. eigenvalues --   -0.81050  -0.79152  -0.78734  -0.77914  -0.77081
 Alpha  occ. eigenvalues --   -0.76303  -0.75203  -0.73283  -0.71584  -0.71217
 Alpha  occ. eigenvalues --   -0.69732  -0.68770  -0.68525  -0.67922  -0.67832
 Alpha  occ. eigenvalues --   -0.67401  -0.67173  -0.66845  -0.66192  -0.65567
 Alpha  occ. eigenvalues --   -0.63105  -0.62448  -0.59778  -0.58922  -0.57462
 Alpha  occ. eigenvalues --   -0.56998  -0.56386  -0.55413  -0.53623  -0.52625
 Alpha  occ. eigenvalues --   -0.52331  -0.51381  -0.50471  -0.49327  -0.49105
 Alpha  occ. eigenvalues --   -0.48173  -0.47682  -0.47198  -0.46488  -0.45658
 Alpha  occ. eigenvalues --   -0.45533  -0.45407  -0.45063  -0.44269  -0.43861
 Alpha  occ. eigenvalues --   -0.43707  -0.43298  -0.42997  -0.42797  -0.42329
 Alpha  occ. eigenvalues --   -0.42083  -0.41759  -0.41506  -0.40979  -0.40737
 Alpha  occ. eigenvalues --   -0.40589  -0.40179  -0.40002  -0.39700  -0.39339
 Alpha  occ. eigenvalues --   -0.39161  -0.38758  -0.38200  -0.37734  -0.37524
 Alpha  occ. eigenvalues --   -0.37316  -0.37143  -0.37006  -0.36839  -0.36384
 Alpha  occ. eigenvalues --   -0.36247  -0.35897  -0.35771  -0.35492  -0.35121
 Alpha  occ. eigenvalues --   -0.34726  -0.34630  -0.34543  -0.34056  -0.33695
 Alpha  occ. eigenvalues --   -0.33429  -0.33200  -0.33075  -0.32607  -0.32418
 Alpha  occ. eigenvalues --   -0.32146  -0.31773  -0.31068  -0.30944  -0.30748
 Alpha  occ. eigenvalues --   -0.30557  -0.30162  -0.29643  -0.28928  -0.28247
 Alpha  occ. eigenvalues --   -0.27789  -0.26688  -0.25858  -0.24196  -0.22992
 Alpha  occ. eigenvalues --   -0.20526  -0.18874  -0.16236
 Alpha virt. eigenvalues --   -0.07997  -0.04951  -0.02166   0.00703   0.03034
 Alpha virt. eigenvalues --    0.04622   0.05416   0.05963   0.06608   0.06802
 Alpha virt. eigenvalues --    0.07537   0.07670   0.08042   0.08431   0.08734

 Mulliken charges:
               1
     1  C   -0.029261
     2  C   -0.017590
     3  C   -0.173346
     4  C   -0.162636
     5  C   -0.172948
     6  C   -0.187548
     7  C    0.115786
     8  C    0.077754
     9  C   -0.208821
    10  C   -0.251016
    11  C    0.003970
    12  C    0.103939
    13  C   -0.289509
    14  C   -0.294318
    15  C   -0.298271
    16  C   -0.268036
    17  C   -0.129597
    18  C   -0.159800
    19  C   -0.346365
    20  C   -0.354594
    21  C   -0.092653
    22  C   -0.089909
    23  C    0.137940
    24  C    0.108227
    25  C   -0.368084
    26  C   -0.371730
    27  C   -0.154974
    28  C   -0.126487
    29  C   -0.075068
    30  C   -0.123820
    31  C   -0.082511
    32  C   -0.100399
    33  C    0.074657
    34  C    0.150615
    35  C   -0.360454
    36  C   -0.365682
    37  C   -0.104457
    38  C   -0.105844
    39  C   -0.088691
    40  C   -0.128583
    41  H    0.084279
    42  H    0.071921
    43  H    0.072127
    44  H    0.074922
    45  H    0.078169
    46  H    0.102201
    47  H    0.087030
    48  H    0.103736
    49  H    0.114790
    50  H    0.098118
    51  H    0.092240
    52  H    0.081519
    53  H    0.105912
    54  H    0.086947
    55  H    0.082951
    56  H    0.105767
    57  H    0.107655
    58  H    0.085379
    59  H    0.073086
    60  H    0.099458
    61  H    0.111347
    62  H    0.105313
    63  H    0.075336
    64  H    0.105259
    65  H    0.075522
    66  H    0.079709
    67  H    0.110882
    68  H    0.081619
    69  H    0.127446
    70  H    0.129253
    71  H    0.108175
    72  H    0.102259
    73  H    0.075804
    74  H    0.076332
    75  H    0.094378
    76  H    0.108382
    77  H    0.129409
    78  H    0.123942
    79  H    0.122476
    80  H    0.109808
    81  H    0.065298
    82  H    0.069176
    83  H    0.074828
    84  H    0.080016
    85  H    0.081203
    86  H    0.079194
    87  H    0.134864
    88  H    0.106654
    89  H    0.106002
    90  H    0.148572
    91  H    0.081823
    92  H    0.106660
    93  H    0.076809
    94  H    0.072697
    95  H    0.095927
    96  H    0.069529
 Sum of Mulliken charges =  -0.00000

 Dipole moment (field-independent basis, Debye):
    X=              0.3218    Y=             -0.0421    Z=             -0.6723  Tot=              0.7466
 Quadrupole moment (field-independent basis, Debye-Ang):
   XX=           -224.5401   YY=           -234.1854   ZZ=           -254.5544
   XY=             -0.2564   XZ=             -0.7501   YZ=              3.4810

 Normal termination of Gaussian 16 at Fri Jul 26 12:31:40 2019.
