 Gaussian 16, Revision A.03,
 Gaussian 16:  ES64L-G16RevA.03 25-Dec-2016

 ---------------------------------
 # td=(NStates=1) B3LYP/6-31G(d,p)
 ---------------------------------

 --
 TD
 --
 Symbolic Z-matrix:
 Charge =  0 Multiplicity = 1

                         Standard orientation:
 ---------------------------------------------------------------------
 Center     Atomic      Atomic             Coordinates (Angstroms)
 Number     Number       Type             X           Y           Z
 ---------------------------------------------------------------------
      1          6           0       12.175401    0.529895   -0.657145
      2          6           0      -12.181635   -0.013314    0.937830
      3          6           0       13.590923   -0.300674   -0.464716
      4          6           0      -12.962597    1.260253    1.279319
      5          6           0       13.183754   -1.776050   -0.338076
      6          6           0      -13.370456    2.204282    0.135140
      7          6           0       11.081430    0.003211    0.253005
      8          6           0      -10.970739    0.437493   -0.063660
      9          6           0       12.416475   -1.978896    0.868903
     10          6           0      -12.049998    2.706761   -0.542809
     11          6           0       11.165445   -1.087992    0.998115
     12          6           0      -11.031734    1.570344   -0.735935
     13          6           0       11.755703    0.512078   -2.138104
     14          6           0       12.500237    1.970225   -0.360299
     15          6           0      -13.086509   -1.091187    0.182916
     16          6           0      -11.568752   -0.535963    2.193780
     17          6           0        9.847135    0.902275    0.221200
     18          6           0       -9.966224   -0.539705   -0.205421
     19          6           0       10.280118   -1.400301    2.156235
     20          6           0      -10.051860    2.067234   -1.779635
     21          6           0        8.557543    0.507942    0.216640
     22          6           0       -8.598125   -0.360929   -0.062074
     23          6           0        7.335332    1.330643    0.206609
     24          6           0       -7.576064   -1.310876   -0.339308
     25          6           0        7.527859    2.784702    0.318986
     26          6           0       -7.953738   -2.784810   -0.874636
     27          6           0        6.184469    0.571254    0.214666
     28          6           0       -6.255823   -0.904506   -0.114990
     29          6           0        4.893122    1.298844    0.323819
     30          6           0       -5.108548   -1.683261   -0.358339
     31          6           0        3.715179    0.626315    0.059638
     32          6           0       -3.761299   -1.248744   -0.130365
     33          6           0        2.409837    1.173009    0.224917
     34          6           0       -2.578912   -1.961472   -0.413118
     35          6           0        2.287000    2.683239    0.508180
     36          6           0       -2.558927   -3.361074   -0.966900
     37          6           0        1.181950    0.485483    0.065266
     38          6           0       -1.426675   -1.235947   -0.197797
     39          6           0        1.127772   -0.796171   -0.260156
     40          6           0       -0.088950   -1.656101   -0.391208
     41          1           0       14.217351   -0.018748    0.424986
     42          1           0       14.080039   -0.279065   -1.428551
     43          1           0      -12.399675    1.853785    2.063215
     44          1           0      -13.889397    0.868333    1.610868
     45          1           0       14.131361   -2.383075   -0.364065
     46          1           0       12.787526   -1.938567   -1.338302
     47          1           0      -14.039972    3.032359    0.538344
     48          1           0      -13.848155    1.355061   -0.489035
     49          1           0       13.051670   -1.791050    1.859181
     50          1           0       12.013692   -3.028196    0.987991
     51          1           0      -11.653390    3.553631    0.172541
     52          1           0      -12.166398    3.124185   -1.479111
     53          1           0       11.644036   -0.512603   -2.631730
     54          1           0       12.300474    1.053900   -2.921076
     55          1           0       10.705418    0.907274   -2.465540
     56          1           0       12.613789    2.220763    0.680464
     57          1           0       11.623401    2.590725   -0.532655
     58          1           0       13.418391    2.238328   -0.867016
     59          1           0      -13.678324   -0.736740   -0.707036
     60          1           0      -13.799624   -1.527045    0.901753
     61          1           0      -12.650100   -2.088157   -0.175085
     62          1           0      -10.778966    0.287453    2.419094
     63          1           0      -11.157502   -1.356385    2.171983
     64          1           0      -12.372836   -0.473049    2.868670
     65          1           0       10.160677    1.998653   -0.061919
     66          1           0      -10.207001   -1.687521   -0.070270
     67          1           0        9.402208   -0.690049    2.669633
     68          1           0       10.705240   -1.751721    2.982367
     69          1           0        9.762465   -2.217847    1.700489
     70          1           0       -9.293611    1.259188   -1.925915
     71          1           0       -9.342096    2.837609   -1.365992
     72          1           0      -10.428324    2.418866   -2.706583
     73          1           0        8.487137   -0.622170    0.413885
     74          1           0       -8.190735    0.571326   -0.122301
     75          1           0        8.175376    2.871553    1.303381
     76          1           0        6.653839    3.355239    0.517632
     77          1           0        7.969887    3.115115   -0.540470
     78          1           0       -8.351327   -2.605270   -1.926700
     79          1           0       -8.629737   -3.417490   -0.330532
     80          1           0       -7.125931   -3.432669   -1.097650
     81          1           0        6.108675   -0.567820    0.347281
     82          1           0       -6.091124    0.100630    0.581307
     83          1           0        4.964397    2.488705    0.352844
     84          1           0       -5.175775   -2.730924   -0.845226
     85          1           0        3.820817   -0.449157   -0.317230
     86          1           0       -3.654541   -0.124633    0.284018
     87          1           0        2.816749    2.879155    1.473716
     88          1           0        1.101240    3.013983    0.749681
     89          1           0        2.558425    3.476440   -0.287025
     90          1           0       -2.902955   -3.536967   -2.008862
     91          1           0       -3.107853   -3.915198   -0.300826
     92          1           0       -1.764468   -3.888133   -0.771034
     93          1           0        0.319212    1.020567    0.559748
     94          1           0       -1.669675   -0.246032    0.435550
     95          1           0        2.074461   -1.345169   -0.302688
     96          1           0        0.286827   -2.716422   -0.513048
 ---------------------------------------------------------------------

 SCF Done:  E(RB3LYP) =  -1557.58400281     A.U. after   17 cycles

 Excitation energies and oscillator strengths:

 Excited State   1:      Singlet-A      1.8441 eV  672.33 nm  f=3.2503  <S**2>=0.000
     148 ->149         0.71895
     148 <-149        -0.17803
 This state for optimization and/or second-order correction.
 Total Energy, E(TD-HF/TD-DFT) =  -1557.51623338
 Copying the excited state density for this state as the 1-particle RhoCI density.

 The electronic state is 1-A.
 Alpha  occ. eigenvalues --  -10.20482 -10.20341 -10.20322 -10.20278 -10.20199
 Alpha  occ. eigenvalues --  -10.20155 -10.20088 -10.19882 -10.19771 -10.19759
 Alpha  occ. eigenvalues --  -10.19721 -10.19621 -10.19520 -10.19399 -10.19363
 Alpha  occ. eigenvalues --  -10.19277 -10.18898 -10.18763 -10.18688 -10.18637
 Alpha  occ. eigenvalues --  -10.18629 -10.18534 -10.18528 -10.18487 -10.18453
 Alpha  occ. eigenvalues --  -10.18402 -10.18233 -10.18086 -10.18078 -10.18076
 Alpha  occ. eigenvalues --  -10.18023 -10.17781 -10.17668 -10.17562 -10.17286
 Alpha  occ. eigenvalues --  -10.17169 -10.17032 -10.16551 -10.16505 -10.15168
 Alpha  occ. eigenvalues --   -0.85122  -0.84558  -0.83130  -0.82668  -0.81792
 Alpha  occ. eigenvalues --   -0.81073  -0.78857  -0.78600  -0.77905  -0.77162
 Alpha  occ. eigenvalues --   -0.76668  -0.74552  -0.73659  -0.72417  -0.71517
 Alpha  occ. eigenvalues --   -0.70906  -0.69065  -0.68816  -0.68518  -0.68016
 Alpha  occ. eigenvalues --   -0.67906  -0.67754  -0.66679  -0.66642  -0.64961
 Alpha  occ. eigenvalues --   -0.62308  -0.61126  -0.59011  -0.58272  -0.57345
 Alpha  occ. eigenvalues --   -0.57135  -0.55078  -0.54380  -0.52650  -0.51964
 Alpha  occ. eigenvalues --   -0.51661  -0.51302  -0.50285  -0.49228  -0.49045
 Alpha  occ. eigenvalues --   -0.47882  -0.47370  -0.46776  -0.46588  -0.46008
 Alpha  occ. eigenvalues --   -0.45716  -0.45170  -0.44179  -0.44091  -0.44009
 Alpha  occ. eigenvalues --   -0.43702  -0.43398  -0.43379  -0.43103  -0.42838
 Alpha  occ. eigenvalues --   -0.41913  -0.41586  -0.41360  -0.41249  -0.40920
 Alpha  occ. eigenvalues --   -0.40530  -0.39983  -0.39862  -0.39548  -0.39397
 Alpha  occ. eigenvalues --   -0.39284  -0.38892  -0.38753  -0.37901  -0.37717
 Alpha  occ. eigenvalues --   -0.37549  -0.37161  -0.36726  -0.36524  -0.36190
 Alpha  occ. eigenvalues --   -0.35737  -0.35726  -0.35071  -0.34640  -0.34539
 Alpha  occ. eigenvalues --   -0.34361  -0.34041  -0.34001  -0.33752  -0.33610
 Alpha  occ. eigenvalues --   -0.33136  -0.33118  -0.33104  -0.32834  -0.32553
 Alpha  occ. eigenvalues --   -0.32258  -0.31918  -0.31805  -0.31773  -0.31195
 Alpha  occ. eigenvalues --   -0.30772  -0.30268  -0.29656  -0.29517  -0.28239
 Alpha  occ. eigenvalues --   -0.27321  -0.27175  -0.26205  -0.24305  -0.22967
 Alpha  occ. eigenvalues --   -0.20787  -0.18729  -0.14971
 Alpha virt. eigenvalues --   -0.08958  -0.04813  -0.01849   0.00951   0.03017
 Alpha virt. eigenvalues --    0.04432   0.05946   0.06786   0.07313   0.07663
 Alpha virt. eigenvalues --    0.08019   0.08318   0.08544   0.08876   0.09292

 Mulliken charges:
               1
     1  C   -0.006153
     2  C    0.000988
     3  C   -0.189259
     4  C   -0.178676
     5  C   -0.187490
     6  C   -0.191325
     7  C    0.104196
     8  C    0.094304
     9  C   -0.197944
    10  C   -0.186795
    11  C    0.018418
    12  C    0.044265
    13  C   -0.318515
    14  C   -0.298819
    15  C   -0.328306
    16  C   -0.263914
    17  C   -0.123682
    18  C   -0.156824
    19  C   -0.346670
    20  C   -0.377035
    21  C   -0.100225
    22  C   -0.095982
    23  C    0.101729
    24  C    0.105346
    25  C   -0.357438
    26  C   -0.376190
    27  C   -0.118353
    28  C   -0.126492
    29  C   -0.103232
    30  C   -0.095980
    31  C   -0.103275
    32  C   -0.124925
    33  C    0.087591
    34  C    0.138862
    35  C   -0.362293
    36  C   -0.365201
    37  C   -0.085710
    38  C   -0.116393
    39  C   -0.093901
    40  C   -0.129043
    41  H    0.091942
    42  H    0.095790
    43  H    0.083051
    44  H    0.091778
    45  H    0.080482
    46  H    0.107040
    47  H    0.087057
    48  H    0.086515
    49  H    0.088844
    50  H    0.088779
    51  H    0.086557
    52  H    0.100679
    53  H    0.088719
    54  H    0.101712
    55  H    0.094587
    56  H    0.099801
    57  H    0.097050
    58  H    0.104529
    59  H    0.106820
    60  H    0.097011
    61  H    0.097000
    62  H    0.093558
    63  H    0.102245
    64  H    0.098267
    65  H    0.057667
    66  H    0.071401
    67  H    0.097007
    68  H    0.118530
    69  H    0.121384
    70  H    0.106169
    71  H    0.108177
    72  H    0.115737
    73  H    0.072524
    74  H    0.081278
    75  H    0.118027
    76  H    0.111087
    77  H    0.140073
    78  H    0.117046
    79  H    0.124528
    80  H    0.109720
    81  H    0.093295
    82  H    0.074705
    83  H    0.084776
    84  H    0.078736
    85  H    0.082202
    86  H    0.066874
    87  H    0.115991
    88  H    0.070214
    89  H    0.117623
    90  H    0.122290
    91  H    0.123817
    92  H    0.116606
    93  H    0.086310
    94  H    0.076490
    95  H    0.077528
    96  H    0.082713
 Sum of Mulliken charges =  -0.00000

 Dipole moment (field-independent basis, Debye):
    X=              1.5887    Y=             -0.6081    Z=              0.5050  Tot=              1.7745
 Quadrupole moment (field-independent basis, Debye-Ang):
   XX=           -217.5244   YY=           -231.5823   ZZ=           -252.4683
   XY=              3.1092   XZ=              0.9636   YZ=              1.8176

 Normal termination of Gaussian 16 at Thu Aug  1 14:27:10 2019.
