 Gaussian 16, Revision A.03,
 Gaussian 16:  ES64L-G16RevA.03 25-Dec-2016

 ---------------------------------
 # td=(NStates=1) B3LYP/6-31G(d,p)
 ---------------------------------

 --
 TD
 --
 Symbolic Z-matrix:
 Charge =  0 Multiplicity = 1

                         Standard orientation:
 ---------------------------------------------------------------------
 Center     Atomic      Atomic             Coordinates (Angstroms)
 Number     Number       Type             X           Y           Z
 ---------------------------------------------------------------------
      1          6           0       12.131983    0.555253   -0.692175
      2          6           0      -12.181870   -0.092395    0.681740
      3          6           0       13.459734   -0.227544   -0.546834
      4          6           0      -13.043960    1.016386    1.261973
      5          6           0       13.237795   -1.792668   -0.701764
      6          6           0      -13.432832    1.937746    0.176907
      7          6           0       11.054141   -0.009353    0.193141
      8          6           0      -10.928032    0.424305   -0.100369
      9          6           0       12.336486   -2.229754    0.455589
     10          6           0      -12.208098    2.682073   -0.355854
     11          6           0       11.149921   -1.251307    0.674246
     12          6           0      -10.953538    1.717868   -0.596369
     13          6           0       11.573556    0.748828   -2.093018
     14          6           0       12.529918    2.003935   -0.149954
     15          6           0      -12.993828   -1.089138   -0.065700
     16          6           0      -11.748465   -0.866289    2.033810
     17          6           0        9.849704    0.780168    0.496871
     18          6           0       -9.892518   -0.466554   -0.230695
     19          6           0       10.197493   -1.886144    1.728512
     20          6           0       -9.915760    2.357670   -1.491454
     21          6           0        8.585824    0.457132    0.332184
     22          6           0       -8.608669   -0.251466   -0.269940
     23          6           0        7.442706    1.242034    0.549342
     24          6           0       -7.544413   -1.208559   -0.500101
     25          6           0        7.721785    2.823907    0.858349
     26          6           0       -7.974496   -2.681977   -0.658145
     27          6           0        6.229938    0.845746    0.321869
     28          6           0       -6.245559   -0.856178   -0.417301
     29          6           0        4.939340    1.414568    0.384333
     30          6           0       -4.996873   -1.676406   -0.420170
     31          6           0        3.782429    0.818144    0.226521
     32          6           0       -3.733701   -1.097636   -0.401975
     33          6           0        2.388227    1.247803    0.166057
     34          6           0       -2.562761   -1.769263   -0.379856
     35          6           0        2.280735    2.692375    0.343353
     36          6           0       -2.646612   -3.325527   -0.526509
     37          6           0        1.310467    0.434532    0.149573
     38          6           0       -1.272298   -1.072566   -0.257980
     39          6           0        1.116027   -1.042166    0.058142
     40          6           0       -0.079854   -1.681177   -0.106389
     41          1           0       13.909609   -0.146400    0.526112
     42          1           0       14.360685    0.035524   -1.209584
     43          1           0      -12.587449    1.583457    2.178987
     44          1           0      -13.888308    0.714236    1.884295
     45          1           0       14.147456   -2.430818   -0.600919
     46          1           0       12.688526   -2.022371   -1.531728
     47          1           0      -14.278174    2.644142    0.538723
     48          1           0      -13.789237    1.204865   -0.593525
     49          1           0       13.021557   -2.346593    1.331823
     50          1           0       11.822444   -3.127025    0.394526
     51          1           0      -11.797359    3.559141    0.131385
     52          1           0      -12.376425    3.201735   -1.342894
     53          1           0       11.442668   -0.224441   -2.750305
     54          1           0       12.194870    1.162213   -2.774415
     55          1           0       10.594377    1.340554   -2.134800
     56          1           0       12.896338    1.856574    0.779211
     57          1           0       11.700613    2.919457   -0.095376
     58          1           0       13.388616    2.698365   -0.989328
     59          1           0      -13.331825   -0.638387   -1.092509
     60          1           0      -13.908170   -1.502854    0.380621
     61          1           0      -12.387970   -2.039825   -0.654633
     62          1           0      -11.093987   -0.173853    2.570402
     63          1           0      -11.365154   -1.877541    1.702474
     64          1           0      -12.780265   -1.099982    2.452315
     65          1           0        9.873358    1.858046    0.547306
     66          1           0      -10.099299   -1.541231   -0.413240
     67          1           0        9.474690   -1.008835    1.886495
     68          1           0       10.560932   -2.325336    2.583317
     69          1           0        9.429887   -2.681094    1.447329
     70          1           0       -9.311802    1.776830   -1.860256
     71          1           0       -9.293106    3.235473   -1.117158
     72          1           0      -10.430602    2.711823   -2.366303
     73          1           0        8.378316   -0.572079   -0.093668
     74          1           0       -8.045992    0.759361   -0.106437
     75          1           0        8.207019    2.785670    1.761281
     76          1           0        6.729501    3.307913    1.063059
     77          1           0        8.268577    3.252171    0.134946
     78          1           0       -8.551105   -2.801983   -1.596441
     79          1           0       -8.591991   -3.027421    0.234211
     80          1           0       -6.909249   -3.303287   -0.781064
     81          1           0        6.296908   -0.239620    0.110693
     82          1           0       -6.057231    0.264538    0.015971
     83          1           0        4.918991    2.611877    0.607728
     84          1           0       -5.173841   -2.726134   -0.290012
     85          1           0        3.741724   -0.230469    0.235282
     86          1           0       -3.669868   -0.054487   -0.349958
     87          1           0        2.919310    3.149378    1.133359
     88          1           0        1.369043    3.147276    0.309594
     89          1           0        2.647356    3.170748   -0.711127
     90          1           0       -3.314252   -3.599655   -1.382257
     91          1           0       -3.298286   -3.984358    0.332328
     92          1           0       -1.632017   -3.766371   -0.846417
     93          1           0        0.276896    1.091257    0.020390
     94          1           0       -1.388864    0.067421   -0.181588
     95          1           0        1.983579   -1.582728    0.031219
     96          1           0       -0.016469   -2.793323   -0.239193
 ---------------------------------------------------------------------

 SCF Done:  E(RB3LYP) =  -1557.53799400     A.U. after   16 cycles

 Excitation energies and oscillator strengths:

 Excited State   1:      Singlet-A      2.1566 eV  574.91 nm  f=3.0467  <S**2>=0.000
     146 ->149        -0.10397
     148 ->149         0.70008
     148 <-149        -0.12390
 This state for optimization and/or second-order correction.
 Total Energy, E(TD-HF/TD-DFT) =  -1557.45874155
 Copying the excited state density for this state as the 1-particle RhoCI density.

 The electronic state is 1-A.
 Alpha  occ. eigenvalues --  -10.21336 -10.20783 -10.20749 -10.20455 -10.20362
 Alpha  occ. eigenvalues --  -10.20299 -10.20248 -10.20064 -10.20000 -10.19954
 Alpha  occ. eigenvalues --  -10.19936 -10.19830 -10.19815 -10.19732 -10.19724
 Alpha  occ. eigenvalues --  -10.19676 -10.19290 -10.19230 -10.19179 -10.19138
 Alpha  occ. eigenvalues --  -10.18866 -10.18779 -10.18753 -10.18445 -10.18400
 Alpha  occ. eigenvalues --  -10.18212 -10.18175 -10.18028 -10.17988 -10.17982
 Alpha  occ. eigenvalues --  -10.17891 -10.17862 -10.17855 -10.17762 -10.17516
 Alpha  occ. eigenvalues --  -10.17282 -10.17248 -10.17081 -10.17012 -10.16272
 Alpha  occ. eigenvalues --   -0.85474  -0.85409  -0.84051  -0.83467  -0.82628
 Alpha  occ. eigenvalues --   -0.82084  -0.79943  -0.78616  -0.78100  -0.77762
 Alpha  occ. eigenvalues --   -0.77456  -0.75463  -0.74201  -0.72529  -0.72040
 Alpha  occ. eigenvalues --   -0.69896  -0.69485  -0.68828  -0.68434  -0.67525
 Alpha  occ. eigenvalues --   -0.67515  -0.67271  -0.66672  -0.66369  -0.65816
 Alpha  occ. eigenvalues --   -0.63804  -0.62553  -0.59949  -0.59411  -0.57260
 Alpha  occ. eigenvalues --   -0.57001  -0.56462  -0.55953  -0.54431  -0.53010
 Alpha  occ. eigenvalues --   -0.51867  -0.51740  -0.50533  -0.50031  -0.49862
 Alpha  occ. eigenvalues --   -0.48834  -0.47874  -0.47238  -0.46985  -0.46702
 Alpha  occ. eigenvalues --   -0.45907  -0.45119  -0.44729  -0.44470  -0.44120
 Alpha  occ. eigenvalues --   -0.43631  -0.43399  -0.42958  -0.42669  -0.42125
 Alpha  occ. eigenvalues --   -0.41846  -0.41828  -0.41553  -0.41218  -0.40896
 Alpha  occ. eigenvalues --   -0.40843  -0.40568  -0.40252  -0.39951  -0.39605
 Alpha  occ. eigenvalues --   -0.39453  -0.38941  -0.38757  -0.38349  -0.38068
 Alpha  occ. eigenvalues --   -0.37920  -0.37539  -0.36746  -0.36605  -0.36114
 Alpha  occ. eigenvalues --   -0.36079  -0.36011  -0.35633  -0.35391  -0.35315
 Alpha  occ. eigenvalues --   -0.35014  -0.34726  -0.34432  -0.34112  -0.33824
 Alpha  occ. eigenvalues --   -0.33329  -0.33182  -0.33097  -0.32789  -0.32142
 Alpha  occ. eigenvalues --   -0.32089  -0.31424  -0.31073  -0.31028  -0.30841
 Alpha  occ. eigenvalues --   -0.30626  -0.29956  -0.29788  -0.29411  -0.29165
 Alpha  occ. eigenvalues --   -0.27801  -0.27486  -0.26710  -0.25312  -0.23718
 Alpha  occ. eigenvalues --   -0.21297  -0.19680  -0.16656
 Alpha virt. eigenvalues --   -0.08926  -0.04976  -0.02244   0.00524   0.02999
 Alpha virt. eigenvalues --    0.04104   0.05992   0.06402   0.07066   0.07206
 Alpha virt. eigenvalues --    0.07275   0.07997   0.08168   0.08564   0.08678

 Mulliken charges:
               1
     1  C   -0.001555
     2  C   -0.023995
     3  C   -0.180798
     4  C   -0.154723
     5  C   -0.198532
     6  C   -0.185623
     7  C    0.115408
     8  C    0.096515
     9  C   -0.213460
    10  C   -0.206228
    11  C    0.036528
    12  C    0.033439
    13  C   -0.293119
    14  C   -0.260466
    15  C   -0.291996
    16  C   -0.287469
    17  C   -0.160594
    18  C   -0.142679
    19  C   -0.375202
    20  C   -0.346294
    21  C   -0.081015
    22  C   -0.067157
    23  C    0.112963
    24  C    0.129762
    25  C   -0.380427
    26  C   -0.370766
    27  C   -0.116266
    28  C   -0.147700
    29  C   -0.070196
    30  C   -0.094236
    31  C   -0.098432
    32  C   -0.097242
    33  C    0.142761
    34  C    0.129073
    35  C   -0.367204
    36  C   -0.374065
    37  C   -0.137098
    38  C   -0.107926
    39  C   -0.088133
    40  C   -0.077857
    41  H    0.087698
    42  H    0.090938
    43  H    0.072240
    44  H    0.089039
    45  H    0.083621
    46  H    0.111692
    47  H    0.074614
    48  H    0.101175
    49  H    0.095682
    50  H    0.106294
    51  H    0.111462
    52  H    0.088444
    53  H    0.074455
    54  H    0.115038
    55  H    0.103939
    56  H    0.120844
    57  H    0.075246
    58  H    0.036022
    59  H    0.089452
    60  H    0.113177
    61  H    0.067170
    62  H    0.112895
    63  H    0.088604
    64  H    0.090038
    65  H    0.073198
    66  H    0.081600
    67  H    0.107619
    68  H    0.118866
    69  H    0.094531
    70  H    0.123937
    71  H    0.101505
    72  H    0.106077
    73  H    0.077651
    74  H    0.061964
    75  H    0.132668
    76  H    0.097619
    77  H    0.132715
    78  H    0.124487
    79  H    0.125571
    80  H    0.077580
    81  H    0.061807
    82  H    0.062145
    83  H    0.060930
    84  H    0.087788
    85  H    0.067639
    86  H    0.075360
    87  H    0.122142
    88  H    0.109997
    89  H    0.087899
    90  H    0.121798
    91  H    0.093627
    92  H    0.102067
    93  H    0.056482
    94  H    0.084108
    95  H    0.083726
    96  H    0.087120
 Sum of Mulliken charges =  -0.00000

 Dipole moment (field-independent basis, Debye):
    X=             -0.9902    Y=             -0.0492    Z=             -0.3855  Tot=              1.0637
 Quadrupole moment (field-independent basis, Debye-Ang):
   XX=           -220.1980   YY=           -235.8727   ZZ=           -255.6020
   XY=             -4.2805   XZ=              0.3598   YZ=              1.1549

 Normal termination of Gaussian 16 at Tue Jul 30 01:44:36 2019.
