 Gaussian 16, Revision A.03,
 Gaussian 16:  ES64L-G16RevA.03 25-Dec-2016

 ---------------------------------
 # td=(NStates=1) B3LYP/6-31G(d,p)
 ---------------------------------

 --
 TD
 --
 Symbolic Z-matrix:
 Charge =  0 Multiplicity = 1

                         Standard orientation:
 ---------------------------------------------------------------------
 Center     Atomic      Atomic             Coordinates (Angstroms)
 Number     Number       Type             X           Y           Z
 ---------------------------------------------------------------------
      1          6           0       11.958680   -0.698831    0.776682
      2          6           0      -12.035635   -0.038094   -0.660569
      3          6           0       13.400931    0.055666    0.689482
      4          6           0      -12.873454   -1.177174   -1.212099
      5          6           0       13.229430    1.556018    0.705462
      6          6           0      -13.382142   -2.262639   -0.107957
      7          6           0       10.965600   -0.100586   -0.266910
      8          6           0      -10.829748   -0.562299    0.154577
      9          6           0       12.317725    1.985214   -0.488142
     10          6           0      -12.015466   -2.760537    0.595624
     11          6           0       11.172937    1.097053   -0.766566
     12          6           0      -10.890183   -1.769512    0.765330
     13          6           0       11.535892   -0.566504    2.258895
     14          6           0       12.317482   -2.149567    0.333411
     15          6           0      -12.971300    0.890018    0.164654
     16          6           0      -11.628626    0.911639   -1.925319
     17          6           0        9.738579   -0.896126   -0.379230
     18          6           0       -9.788127    0.379447    0.181112
     19          6           0       10.219451    1.655700   -1.800214
     20          6           0       -9.797755   -2.272221    1.602572
     21          6           0        8.442512   -0.488782   -0.326878
     22          6           0       -8.459950    0.308558    0.174733
     23          6           0        7.279811   -1.263534   -0.572584
     24          6           0       -7.481778    1.325940    0.253721
     25          6           0        7.490715   -2.788951   -0.918947
     26          6           0       -7.922483    2.706893    0.702919
     27          6           0        6.107121   -0.752196   -0.413818
     28          6           0       -6.186728    0.938489    0.137598
     29          6           0        4.768667   -1.232721   -0.555531
     30          6           0       -5.001061    1.762056    0.283384
     31          6           0        3.616361   -0.561572   -0.235755
     32          6           0       -3.751908    1.232992    0.261669
     33          6           0        2.305740   -1.031341   -0.187201
     34          6           0       -2.477490    2.035551    0.328790
     35          6           0        2.131120   -2.567995   -0.617735
     36          6           0       -2.594892    3.584286    0.508574
     37          6           0        1.212112   -0.289305   -0.239260
     38          6           0       -1.294578    1.316794    0.188309
     39          6           0        1.123077    1.137877    0.062595
     40          6           0       -0.017432    1.811410    0.196311
     41          1           0       13.935821   -0.147293   -0.175558
     42          1           0       13.924854   -0.285720    1.503510
     43          1           0      -12.237263   -1.778270   -2.001447
     44          1           0      -13.708671   -0.840225   -1.798466
     45          1           0       14.225040    2.233972    0.732384
     46          1           0       12.792896    1.867700    1.629272
     47          1           0      -13.978975   -2.996052   -0.730394
     48          1           0      -14.122050   -1.949488    0.687847
     49          1           0       13.047673    2.117153   -1.200324
     50          1           0       11.927700    3.050742   -0.365775
     51          1           0      -11.521275   -3.591020    0.116297
     52          1           0      -12.313205   -3.100303    1.594948
     53          1           0       11.463381    0.492828    2.734127
     54          1           0       12.542438   -0.957293    2.844566
     55          1           0       10.663640   -1.097538    2.427887
     56          1           0       12.453997   -2.232697   -0.620187
     57          1           0       11.582884   -2.768091    0.683254
     58          1           0       13.329062   -2.664079    0.848639
     59          1           0      -13.156498    0.444811    1.296268
     60          1           0      -14.053051    1.210820   -0.098824
     61          1           0      -12.202986    1.813355    0.278659
     62          1           0      -10.977340    0.246639   -2.834725
     63          1           0      -10.886985    1.660745   -1.587806
     64          1           0      -12.475312    1.220994   -2.297727
     65          1           0        9.901923   -1.914064   -0.488731
     66          1           0      -10.204924    1.298078    0.431396
     67          1           0        9.492187    0.955153   -2.145948
     68          1           0       10.854480    1.898603   -2.675269
     69          1           0        9.779177    2.616393   -1.192740
     70          1           0       -9.115043   -1.454063    1.823779
     71          1           0       -9.103571   -3.069099    1.223728
     72          1           0      -10.126194   -2.847169    2.737130
     73          1           0        8.353579    0.498979   -0.044611
     74          1           0       -7.894611   -0.627659   -0.232671
     75          1           0        8.144651   -2.788829   -1.801326
     76          1           0        6.575696   -3.517718   -0.992384
     77          1           0        8.051584   -3.260005   -0.121568
     78          1           0       -8.678047    2.538439    1.438967
     79          1           0       -8.307876    3.282491   -0.286591
     80          1           0       -7.085731    3.451286    1.046815
     81          1           0        6.165659    0.176905    0.159978
     82          1           0       -5.941854   -0.148982   -0.082391
     83          1           0        4.762151   -2.292999   -0.643399
     84          1           0       -5.332100    2.830848    0.320416
     85          1           0        3.684353    0.348735   -0.168895
     86          1           0       -3.487015    0.217508    0.250045
     87          1           0        2.422319   -2.543077   -1.607357
     88          1           0        0.942264   -2.790432   -0.429466
     89          1           0        2.786191   -3.259952    0.024907
     90          1           0       -2.560592    3.780746    1.568267
     91          1           0       -3.386896    3.948272   -0.166203
     92          1           0       -1.612040    3.956371    0.377811
     93          1           0        0.256722   -0.763032   -0.153057
     94          1           0       -1.409421    0.276079   -0.225105
     95          1           0        2.119331    1.633823    0.016358
     96          1           0        0.098635    2.850001    0.461560
 ---------------------------------------------------------------------

 SCF Done:  E(RB3LYP) =  -1557.57785168     A.U. after   15 cycles

 Excitation energies and oscillator strengths:

 Excited State   1:      Singlet-A      2.3171 eV  535.08 nm  f=2.9984  <S**2>=0.000
     148 ->149         0.70629
 This state for optimization and/or second-order correction.
 Total Energy, E(TD-HF/TD-DFT) =  -1557.49269935
 Copying the excited state density for this state as the 1-particle RhoCI density.

 The electronic state is 1-A.
 Alpha  occ. eigenvalues --  -10.20855 -10.20355 -10.20225 -10.20220 -10.20111
 Alpha  occ. eigenvalues --  -10.19587 -10.19563 -10.19505 -10.19371 -10.19242
 Alpha  occ. eigenvalues --  -10.19173 -10.19144 -10.19119 -10.19087 -10.18971
 Alpha  occ. eigenvalues --  -10.18961 -10.18850 -10.18768 -10.18695 -10.18658
 Alpha  occ. eigenvalues --  -10.18582 -10.18563 -10.18377 -10.18376 -10.18315
 Alpha  occ. eigenvalues --  -10.18266 -10.18212 -10.18182 -10.18093 -10.17956
 Alpha  occ. eigenvalues --  -10.17948 -10.17890 -10.17841 -10.17781 -10.17751
 Alpha  occ. eigenvalues --  -10.17545 -10.17504 -10.16872 -10.16700 -10.16094
 Alpha  occ. eigenvalues --   -0.85072  -0.85054  -0.84304  -0.83347  -0.82888
 Alpha  occ. eigenvalues --   -0.81891  -0.79295  -0.78345  -0.78149  -0.77793
 Alpha  occ. eigenvalues --   -0.76865  -0.75335  -0.74141  -0.72195  -0.71545
 Alpha  occ. eigenvalues --   -0.70011  -0.68901  -0.68672  -0.68578  -0.67983
 Alpha  occ. eigenvalues --   -0.67719  -0.67217  -0.66666  -0.66336  -0.65685
 Alpha  occ. eigenvalues --   -0.63860  -0.62749  -0.60121  -0.59526  -0.57699
 Alpha  occ. eigenvalues --   -0.57401  -0.55836  -0.55189  -0.54303  -0.53584
 Alpha  occ. eigenvalues --   -0.52980  -0.51997  -0.51115  -0.49932  -0.49468
 Alpha  occ. eigenvalues --   -0.48434  -0.47930  -0.47579  -0.46900  -0.46294
 Alpha  occ. eigenvalues --   -0.45886  -0.45465  -0.45032  -0.44816  -0.44662
 Alpha  occ. eigenvalues --   -0.43791  -0.43353  -0.42717  -0.42354  -0.42331
 Alpha  occ. eigenvalues --   -0.42177  -0.42035  -0.41755  -0.41569  -0.41289
 Alpha  occ. eigenvalues --   -0.40790  -0.40420  -0.40106  -0.39839  -0.39605
 Alpha  occ. eigenvalues --   -0.39220  -0.38782  -0.38399  -0.38335  -0.37949
 Alpha  occ. eigenvalues --   -0.37688  -0.37273  -0.36936  -0.36771  -0.36660
 Alpha  occ. eigenvalues --   -0.36552  -0.36101  -0.35676  -0.35404  -0.35306
 Alpha  occ. eigenvalues --   -0.35245  -0.34866  -0.34512  -0.34376  -0.33798
 Alpha  occ. eigenvalues --   -0.33683  -0.33559  -0.33046  -0.32564  -0.32454
 Alpha  occ. eigenvalues --   -0.32373  -0.31799  -0.31245  -0.30945  -0.30744
 Alpha  occ. eigenvalues --   -0.30272  -0.30037  -0.29653  -0.29158  -0.28836
 Alpha  occ. eigenvalues --   -0.28184  -0.27848  -0.26620  -0.24752  -0.23407
 Alpha  occ. eigenvalues --   -0.21387  -0.19264  -0.16985
 Alpha virt. eigenvalues --   -0.08015  -0.05248  -0.01823   0.00580   0.02693
 Alpha virt. eigenvalues --    0.04881   0.06530   0.06801   0.07378   0.07676
 Alpha virt. eigenvalues --    0.08034   0.08286   0.08749   0.08808   0.09163

 Mulliken charges:
               1
     1  C   -0.020326
     2  C   -0.027261
     3  C   -0.158861
     4  C   -0.167993
     5  C   -0.201125
     6  C   -0.202346
     7  C    0.075020
     8  C    0.112033
     9  C   -0.220687
    10  C   -0.221305
    11  C    0.055453
    12  C    0.085555
    13  C   -0.286252
    14  C   -0.291646
    15  C   -0.276029
    16  C   -0.272421
    17  C   -0.142168
    18  C   -0.154478
    19  C   -0.340849
    20  C   -0.360074
    21  C   -0.090897
    22  C   -0.105463
    23  C    0.146380
    24  C    0.139525
    25  C   -0.381852
    26  C   -0.369993
    27  C   -0.145427
    28  C   -0.132473
    29  C   -0.089132
    30  C   -0.080162
    31  C   -0.041342
    32  C   -0.101081
    33  C    0.072482
    34  C    0.079562
    35  C   -0.352777
    36  C   -0.366802
    37  C   -0.104007
    38  C   -0.121446
    39  C   -0.100192
    40  C   -0.075318
    41  H    0.091995
    42  H    0.090729
    43  H    0.075473
    44  H    0.083091
    45  H    0.056133
    46  H    0.097794
    47  H    0.091144
    48  H    0.095732
    49  H    0.122380
    50  H    0.086605
    51  H    0.116482
    52  H    0.100556
    53  H    0.099837
    54  H    0.074065
    55  H    0.111541
    56  H    0.121076
    57  H    0.107489
    58  H    0.057404
    59  H    0.076742
    60  H    0.105089
    61  H    0.075590
    62  H    0.051946
    63  H    0.103661
    64  H    0.116825
    65  H    0.074601
    66  H    0.086164
    67  H    0.123635
    68  H    0.104999
    69  H    0.086865
    70  H    0.123555
    71  H    0.113293
    72  H    0.051980
    73  H    0.078886
    74  H    0.070641
    75  H    0.121379
    76  H    0.100371
    77  H    0.126424
    78  H    0.132965
    79  H    0.102664
    80  H    0.102189
    81  H    0.069502
    82  H    0.071461
    83  H    0.069919
    84  H    0.078757
    85  H    0.041074
    86  H    0.082721
    87  H    0.144533
    88  H    0.078572
    89  H    0.103766
    90  H    0.132816
    91  H    0.128816
    92  H    0.113425
    93  H    0.073877
    94  H    0.081837
    95  H    0.082165
    96  H    0.072948
 Sum of Mulliken charges =  -0.00000

 Dipole moment (field-independent basis, Debye):
    X=              0.1371    Y=              0.5300    Z=              0.0578  Tot=              0.5505
 Quadrupole moment (field-independent basis, Debye-Ang):
   XX=           -228.1218   YY=           -236.9174   ZZ=           -255.8422
   XY=             -2.6521   XZ=             -1.1518   YZ=              2.8328

 Normal termination of Gaussian 16 at Thu Aug  1 08:59:24 2019.
