 Gaussian 16, Revision A.03,
 Gaussian 16:  ES64L-G16RevA.03 25-Dec-2016

 ---------------------------------
 # td=(NStates=1) B3LYP/6-31G(d,p)
 ---------------------------------

 --
 TD
 --
 Symbolic Z-matrix:
 Charge =  0 Multiplicity = 1

                         Standard orientation:
 ---------------------------------------------------------------------
 Center     Atomic      Atomic             Coordinates (Angstroms)
 Number     Number       Type             X           Y           Z
 ---------------------------------------------------------------------
      1          6           0       12.154253    0.465866   -0.682241
      2          6           0      -12.077738   -0.139821    0.864046
      3          6           0       13.338893   -0.480244   -0.609088
      4          6           0      -12.906142    0.994409    1.429075
      5          6           0       13.022724   -1.982637   -0.610680
      6          6           0      -13.430834    1.832551    0.165404
      7          6           0       10.977530   -0.056661    0.259481
      8          6           0      -10.983253    0.452045   -0.058040
      9          6           0       12.182586   -2.163965    0.709544
     10          6           0      -12.208873    2.528620   -0.472856
     11          6           0       11.169147   -1.180292    0.870468
     12          6           0      -11.070815    1.610437   -0.777041
     13          6           0       11.589444    0.429754   -2.145698
     14          6           0       12.656748    1.810885   -0.334652
     15          6           0      -12.920088   -1.245934    0.122886
     16          6           0      -11.389152   -0.702151    2.142530
     17          6           0        9.860102    0.880618    0.359408
     18          6           0       -9.878924   -0.547986   -0.284239
     19          6           0       10.255741   -1.621860    2.002204
     20          6           0      -10.144136    2.140946   -1.867246
     21          6           0        8.541197    0.529451    0.209699
     22          6           0       -8.560923   -0.346140   -0.251064
     23          6           0        7.333408    1.363252    0.373743
     24          6           0       -7.498408   -1.243883   -0.427443
     25          6           0        7.630186    2.883794    0.585710
     26          6           0       -7.854737   -2.625408   -0.715446
     27          6           0        6.114379    0.909816    0.277077
     28          6           0       -6.203031   -0.804758   -0.235524
     29          6           0        4.864892    1.527607    0.310840
     30          6           0       -5.076376   -1.565388   -0.369096
     31          6           0        3.771049    0.745612    0.124586
     32          6           0       -3.870012   -1.024310   -0.165261
     33          6           0        2.473357    1.256127    0.216496
     34          6           0       -2.564025   -1.717717   -0.296689
     35          6           0        2.376577    2.764912    0.521342
     36          6           0       -2.664942   -3.070565   -0.983966
     37          6           0        1.277064    0.553839    0.089627
     38          6           0       -1.351547   -0.987943   -0.092897
     39          6           0        1.135535   -0.777249   -0.104152
     40          6           0        0.007803   -1.562900   -0.137829
     41          1           0       13.727595   -0.293019    0.321380
     42          1           0       14.034746   -0.181127   -1.230774
     43          1           0      -12.312206    1.403328    2.191596
     44          1           0      -13.844571    0.479223    1.741718
     45          1           0       13.792266   -2.626744   -0.521871
     46          1           0       12.391248   -2.400883   -1.368390
     47          1           0      -14.352268    2.639013    0.352783
     48          1           0      -13.900307    1.205691   -0.609658
     49          1           0       12.874388   -2.236340    1.618870
     50          1           0       11.927097   -3.323733    0.765984
     51          1           0      -11.598202    3.271154    0.089803
     52          1           0      -12.438064    2.958097   -1.370234
     53          1           0       11.328341   -0.580349   -2.518883
     54          1           0       12.318084    0.876658   -2.815573
     55          1           0       10.701760    0.968465   -2.238474
     56          1           0       13.193905    1.907939    0.544150
     57          1           0       12.134049    2.875628   -0.394716
     58          1           0       13.653314    1.979730   -0.875640
     59          1           0      -13.364741   -0.803047   -0.704984
     60          1           0      -13.772318   -1.801391    0.887453
     61          1           0      -12.131078   -1.888492   -0.156350
     62          1           0      -10.683413    0.212371    2.485452
     63          1           0      -10.648542   -1.590061    1.996989
     64          1           0      -12.134617   -1.099421    2.843074
     65          1           0       10.025268    2.003004    0.504866
     66          1           0      -10.256765   -1.474679   -0.516107
     67          1           0        9.729491   -0.767676    2.418772
     68          1           0       10.876313   -2.245007    2.574171
     69          1           0        9.232616   -2.325645    1.704850
     70          1           0       -9.423845    1.456161   -2.373279
     71          1           0       -9.598980    2.893335   -1.524740
     72          1           0      -10.816424    2.325652   -2.544453
     73          1           0        8.153373   -0.639650    0.101470
     74          1           0       -8.235003    0.651786    0.317667
     75          1           0        8.112150    3.089845    1.498116
     76          1           0        6.774629    3.368402    0.762005
     77          1           0        8.413915    3.419347   -0.176765
     78          1           0       -8.420687   -2.760288   -1.529631
     79          1           0       -8.596494   -3.080543   -0.064801
     80          1           0       -6.922157   -3.283316   -0.710655
     81          1           0        5.944011   -0.084296    0.094601
     82          1           0       -5.958151    0.182451    0.124181
     83          1           0        4.604844    2.714047    0.482804
     84          1           0       -5.153552   -2.570837   -0.742984
     85          1           0        3.921141   -0.407123   -0.067547
     86          1           0       -3.806028    0.069258    0.203037
     87          1           0        2.816562    2.930639    1.602923
     88          1           0        1.278106    3.125250    0.625259
     89          1           0        2.822620    3.501376   -0.221008
     90          1           0       -3.293427   -3.012825   -1.852814
     91          1           0       -3.052947   -3.679854   -0.354435
     92          1           0       -1.820831   -3.658582   -1.309762
     93          1           0        0.338699    1.036438    0.329951
     94          1           0       -1.484976   -0.023121    0.296699
     95          1           0        2.207797   -1.149121   -0.422384
     96          1           0        0.220315   -2.553482   -0.341815
 ---------------------------------------------------------------------

 SCF Done:  E(RB3LYP) =  -1557.56088687     A.U. after   15 cycles

 Excitation energies and oscillator strengths:

 Excited State   1:      Singlet-A      2.1132 eV  586.71 nm  f=3.0571  <S**2>=0.000
     148 ->149         0.70664
     148 <-149        -0.11512
 This state for optimization and/or second-order correction.
 Total Energy, E(TD-HF/TD-DFT) =  -1557.48322761
 Copying the excited state density for this state as the 1-particle RhoCI density.

 The electronic state is 1-A.
 Alpha  occ. eigenvalues --  -10.20783 -10.20193 -10.20119 -10.20024 -10.20019
 Alpha  occ. eigenvalues --  -10.19730 -10.19570 -10.19552 -10.19540 -10.19400
 Alpha  occ. eigenvalues --  -10.19389 -10.19291 -10.19149 -10.19069 -10.19048
 Alpha  occ. eigenvalues --  -10.18983 -10.18816 -10.18564 -10.18555 -10.18355
 Alpha  occ. eigenvalues --  -10.17967 -10.17951 -10.17943 -10.17801 -10.17778
 Alpha  occ. eigenvalues --  -10.17683 -10.17670 -10.17619 -10.17600 -10.17513
 Alpha  occ. eigenvalues --  -10.17496 -10.17489 -10.17394 -10.17276 -10.17254
 Alpha  occ. eigenvalues --  -10.16718 -10.16439 -10.16006 -10.15655 -10.15531
 Alpha  occ. eigenvalues --   -0.85648  -0.85070  -0.84319  -0.83926  -0.82370
 Alpha  occ. eigenvalues --   -0.81292  -0.79479  -0.79366  -0.79170  -0.77696
 Alpha  occ. eigenvalues --   -0.76849  -0.75261  -0.74463  -0.72432  -0.72079
 Alpha  occ. eigenvalues --   -0.70709  -0.69396  -0.68838  -0.68658  -0.68470
 Alpha  occ. eigenvalues --   -0.68113  -0.67450  -0.66710  -0.66594  -0.66038
 Alpha  occ. eigenvalues --   -0.63323  -0.62223  -0.60815  -0.59553  -0.57620
 Alpha  occ. eigenvalues --   -0.56685  -0.55895  -0.55129  -0.54507  -0.53721
 Alpha  occ. eigenvalues --   -0.53240  -0.51953  -0.49837  -0.49167  -0.49083
 Alpha  occ. eigenvalues --   -0.48361  -0.47963  -0.47522  -0.47012  -0.46243
 Alpha  occ. eigenvalues --   -0.46057  -0.45743  -0.45118  -0.44437  -0.44076
 Alpha  occ. eigenvalues --   -0.43942  -0.43460  -0.43424  -0.43155  -0.42964
 Alpha  occ. eigenvalues --   -0.42124  -0.41716  -0.41465  -0.41142  -0.41076
 Alpha  occ. eigenvalues --   -0.40575  -0.40370  -0.39658  -0.39539  -0.39185
 Alpha  occ. eigenvalues --   -0.38916  -0.38820  -0.38626  -0.38364  -0.38345
 Alpha  occ. eigenvalues --   -0.37964  -0.37293  -0.37219  -0.37097  -0.36998
 Alpha  occ. eigenvalues --   -0.36823  -0.36235  -0.35935  -0.35764  -0.35023
 Alpha  occ. eigenvalues --   -0.34932  -0.34679  -0.34427  -0.34197  -0.34002
 Alpha  occ. eigenvalues --   -0.33873  -0.33524  -0.33126  -0.32980  -0.32783
 Alpha  occ. eigenvalues --   -0.32586  -0.32205  -0.31906  -0.31619  -0.30959
 Alpha  occ. eigenvalues --   -0.30702  -0.30400  -0.29551  -0.29137  -0.28436
 Alpha  occ. eigenvalues --   -0.27776  -0.27285  -0.26347  -0.24233  -0.22820
 Alpha  occ. eigenvalues --   -0.21330  -0.19062  -0.16120
 Alpha virt. eigenvalues --   -0.08401  -0.04806  -0.01422   0.01241   0.03101
 Alpha virt. eigenvalues --    0.04506   0.06492   0.06987   0.07193   0.07712
 Alpha virt. eigenvalues --    0.07802   0.08676   0.08806   0.09183   0.09445

 Mulliken charges:
               1
     1  C    0.004109
     2  C   -0.022888
     3  C   -0.175497
     4  C   -0.149012
     5  C   -0.185149
     6  C   -0.197591
     7  C    0.077824
     8  C    0.034038
     9  C   -0.281718
    10  C   -0.191816
    11  C    0.129608
    12  C    0.015463
    13  C   -0.298968
    14  C   -0.321920
    15  C   -0.282440
    16  C   -0.295441
    17  C   -0.162372
    18  C   -0.131121
    19  C   -0.339166
    20  C   -0.335567
    21  C   -0.083511
    22  C   -0.095125
    23  C    0.128507
    24  C    0.138094
    25  C   -0.373214
    26  C   -0.387457
    27  C   -0.118711
    28  C   -0.116640
    29  C   -0.066814
    30  C   -0.040769
    31  C   -0.108094
    32  C   -0.139490
    33  C    0.108787
    34  C    0.090583
    35  C   -0.386006
    36  C   -0.377618
    37  C   -0.099908
    38  C   -0.125118
    39  C   -0.072328
    40  C   -0.097087
    41  H    0.101029
    42  H    0.087547
    43  H    0.102013
    44  H    0.085064
    45  H    0.094302
    46  H    0.106439
    47  H    0.058627
    48  H    0.107621
    49  H    0.099057
    50  H    0.085681
    51  H    0.110380
    52  H    0.093273
    53  H    0.096016
    54  H    0.089588
    55  H    0.109913
    56  H    0.113289
    57  H    0.089481
    58  H    0.081731
    59  H    0.113142
    60  H    0.066743
    61  H    0.110790
    62  H    0.086460
    63  H    0.085062
    64  H    0.100586
    65  H    0.090990
    66  H    0.071605
    67  H    0.117747
    68  H    0.104763
    69  H    0.060417
    70  H    0.112946
    71  H    0.126945
    72  H    0.121604
    73  H    0.060997
    74  H    0.056132
    75  H    0.123728
    76  H    0.107831
    77  H    0.096426
    78  H    0.131746
    79  H    0.118844
    80  H    0.096475
    81  H    0.070064
    82  H    0.072885
    83  H    0.087944
    84  H    0.078603
    85  H    0.083028
    86  H    0.069199
    87  H    0.111701
    88  H    0.094523
    89  H    0.122447
    90  H    0.125065
    91  H    0.136982
    92  H    0.104610
    93  H    0.070106
    94  H    0.084602
    95  H    0.060762
    96  H    0.085992
 Sum of Mulliken charges =  -0.00000

 Dipole moment (field-independent basis, Debye):
    X=             -0.8549    Y=              0.0732    Z=             -0.3014  Tot=              0.9095
 Quadrupole moment (field-independent basis, Debye-Ang):
   XX=           -212.4770   YY=           -232.8615   ZZ=           -255.3534
   XY=              2.2051   XZ=             11.5749   YZ=              3.7829

 Normal termination of Gaussian 16 at Thu Aug  1 11:36:52 2019.
