 Gaussian 16, Revision A.03,
 Gaussian 16:  ES64L-G16RevA.03 25-Dec-2016

 ---------------------------------
 # td=(NStates=1) B3LYP/6-31G(d,p)
 ---------------------------------

 --
 TD
 --
 Symbolic Z-matrix:
 Charge =  0 Multiplicity = 1

                         Standard orientation:
 ---------------------------------------------------------------------
 Center     Atomic      Atomic             Coordinates (Angstroms)
 Number     Number       Type             X           Y           Z
 ---------------------------------------------------------------------
      1          6           0       12.142572    0.586694   -0.641108
      2          6           0      -12.064536    0.040549    1.009123
      3          6           0       13.482066   -0.287405   -0.466635
      4          6           0      -12.881513    1.210899    1.481222
      5          6           0       13.179795   -1.814052   -0.431333
      6          6           0      -13.273531    2.157563    0.350230
      7          6           0       11.046205   -0.038683    0.295435
      8          6           0      -10.974698    0.460492   -0.092531
      9          6           0       12.280819   -2.088817    0.751956
     10          6           0      -12.146971    2.700256   -0.455844
     11          6           0       11.121798   -1.222505    0.904034
     12          6           0      -11.088942    1.580800   -0.721533
     13          6           0       11.731081    0.545366   -2.197774
     14          6           0       12.491485    2.081643   -0.305391
     15          6           0      -12.867309   -1.122308    0.336487
     16          6           0      -11.269933   -0.644466    2.177824
     17          6           0        9.836870    0.923720    0.540008
     18          6           0       -9.964066   -0.610386   -0.369847
     19          6           0       10.128397   -1.648916    1.954833
     20          6           0      -10.092938    2.002164   -1.809014
     21          6           0        8.545397    0.506107    0.363747
     22          6           0       -8.629397   -0.370051   -0.290484
     23          6           0        7.357815    1.294671    0.372903
     24          6           0       -7.600664   -1.377013   -0.473148
     25          6           0        7.656573    2.846092    0.459149
     26          6           0       -7.911615   -2.764593   -0.659709
     27          6           0        6.187842    0.767780    0.308374
     28          6           0       -6.305803   -0.923779   -0.428359
     29          6           0        4.824498    1.361530    0.286017
     30          6           0       -5.091088   -1.695244   -0.530651
     31          6           0        3.726798    0.640659    0.208623
     32          6           0       -3.848948   -1.131082   -0.416599
     33          6           0        2.306879    1.234629    0.191124
     34          6           0       -2.545810   -1.861992   -0.507264
     35          6           0        2.227564    2.788195    0.273485
     36          6           0       -2.587645   -3.245285   -0.790076
     37          6           0        1.192477    0.525657    0.057869
     38          6           0       -1.362607   -1.074339   -0.314889
     39          6           0        1.083448   -0.940044    0.005994
     40          6           0       -0.051463   -1.624660   -0.444342
     41          1           0       13.903894   -0.163811    0.604165
     42          1           0       14.242794    0.125805   -1.066461
     43          1           0      -12.217210    1.870542    2.146557
     44          1           0      -13.721562    0.976832    1.977425
     45          1           0       14.085587   -2.608591   -0.309554
     46          1           0       12.666166   -2.167259   -1.316232
     47          1           0      -13.947516    3.017593    0.790817
     48          1           0      -14.049277    1.528792   -0.213616
     49          1           0       12.918935   -2.220727    1.646463
     50          1           0       11.977919   -3.233661    0.862660
     51          1           0      -11.470851    3.346208    0.192308
     52          1           0      -12.405579    3.158404   -1.406040
     53          1           0       11.454876   -0.582177   -2.373309
     54          1           0       12.692670    0.858538   -2.851476
     55          1           0       10.800732    1.257851   -2.384518
     56          1           0       12.609899    2.144595    0.690079
     57          1           0       11.707724    2.884456   -0.720904
     58          1           0       13.452972    2.201849   -0.785064
     59          1           0      -13.472333   -0.715833   -0.517657
     60          1           0      -13.501467   -1.757745    0.887007
     61          1           0      -12.433740   -1.905805   -0.123624
     62          1           0      -10.224741    0.082469    2.473843
     63          1           0      -10.900327   -1.591944    1.954758
     64          1           0      -11.882164   -0.674087    3.348234
     65          1           0       10.157048    1.978537    0.630325
     66          1           0      -10.292455   -1.510980   -0.525979
     67          1           0        9.688632   -0.969629    2.601100
     68          1           0       10.780876   -2.381899    2.523982
     69          1           0        9.239005   -2.264853    1.313469
     70          1           0       -9.536145    1.134848   -1.942139
     71          1           0       -9.464293    2.875100   -1.636212
     72          1           0      -10.626099    2.264213   -2.717173
     73          1           0        8.274653   -0.442258    0.102447
     74          1           0       -8.538914    0.696704   -0.081749
     75          1           0        8.135448    3.177797    1.446555
     76          1           0        6.805282    3.423703    0.541838
     77          1           0        8.347164    2.991232   -0.415465
     78          1           0       -8.653638   -2.817648   -1.494046
     79          1           0       -8.526284   -3.317876    0.050094
     80          1           0       -7.250351   -3.500166   -1.107162
     81          1           0        6.109310   -0.253735    0.237619
     82          1           0       -6.070453    0.222056   -0.195572
     83          1           0        4.619990    2.475753    0.334021
     84          1           0       -5.214378   -2.628020   -0.816364
     85          1           0        3.788468   -0.467414    0.194952
     86          1           0       -3.883832    0.095639   -0.362748
     87          1           0        2.692793    3.091398    1.105463
     88          1           0        1.197904    2.855001    0.262161
     89          1           0        2.642299    3.270367   -0.625940
     90          1           0       -2.997770   -3.371749   -1.706147
     91          1           0       -3.132481   -3.868337    0.135781
     92          1           0       -1.562779   -3.864607   -0.889296
     93          1           0        0.300280    0.997791    0.228073
     94          1           0       -1.388089   -0.115456   -0.063890
     95          1           0        1.991224   -1.555965   -0.132632
     96          1           0        0.134793   -2.670893   -0.392643
 ---------------------------------------------------------------------

 SCF Done:  E(RB3LYP) =  -1557.57611242     A.U. after   15 cycles

 Excitation energies and oscillator strengths:

 Excited State   1:      Singlet-A      2.5007 eV  495.80 nm  f=2.7445  <S**2>=0.000
     148 ->149         0.69337
 This state for optimization and/or second-order correction.
 Total Energy, E(TD-HF/TD-DFT) =  -1557.48421466
 Copying the excited state density for this state as the 1-particle RhoCI density.

 The electronic state is 1-A.
 Alpha  occ. eigenvalues --  -10.20948 -10.20719 -10.20680 -10.20307 -10.20136
 Alpha  occ. eigenvalues --  -10.20031 -10.20012 -10.19974 -10.19546 -10.19286
 Alpha  occ. eigenvalues --  -10.19224 -10.19193 -10.19187 -10.19155 -10.18906
 Alpha  occ. eigenvalues --  -10.18742 -10.18735 -10.18701 -10.18672 -10.18609
 Alpha  occ. eigenvalues --  -10.18557 -10.18457 -10.18427 -10.18391 -10.18375
 Alpha  occ. eigenvalues --  -10.18270 -10.18197 -10.18190 -10.17940 -10.17907
 Alpha  occ. eigenvalues --  -10.17698 -10.17649 -10.17607 -10.17605 -10.17591
 Alpha  occ. eigenvalues --  -10.17187 -10.17004 -10.16988 -10.16062 -10.15992
 Alpha  occ. eigenvalues --   -0.84881  -0.84381  -0.83513  -0.83245  -0.82530
 Alpha  occ. eigenvalues --   -0.81652  -0.78820  -0.78068  -0.77991  -0.77505
 Alpha  occ. eigenvalues --   -0.76761  -0.75460  -0.74753  -0.72570  -0.71681
 Alpha  occ. eigenvalues --   -0.70696  -0.68927  -0.68898  -0.68582  -0.67666
 Alpha  occ. eigenvalues --   -0.67593  -0.66901  -0.66775  -0.66142  -0.65864
 Alpha  occ. eigenvalues --   -0.62336  -0.61777  -0.59153  -0.58872  -0.57375
 Alpha  occ. eigenvalues --   -0.57061  -0.55433  -0.55113  -0.54336  -0.53696
 Alpha  occ. eigenvalues --   -0.53435  -0.53094  -0.50787  -0.49849  -0.49383
 Alpha  occ. eigenvalues --   -0.47943  -0.47600  -0.47218  -0.46900  -0.46522
 Alpha  occ. eigenvalues --   -0.45725  -0.45357  -0.44591  -0.44326  -0.44019
 Alpha  occ. eigenvalues --   -0.43426  -0.43364  -0.43120  -0.43085  -0.42219
 Alpha  occ. eigenvalues --   -0.42109  -0.41772  -0.41621  -0.41118  -0.40732
 Alpha  occ. eigenvalues --   -0.40663  -0.40263  -0.40066  -0.39814  -0.39638
 Alpha  occ. eigenvalues --   -0.39083  -0.38905  -0.38540  -0.38359  -0.37861
 Alpha  occ. eigenvalues --   -0.37074  -0.36990  -0.36921  -0.36894  -0.36637
 Alpha  occ. eigenvalues --   -0.36375  -0.35892  -0.35793  -0.35690  -0.35415
 Alpha  occ. eigenvalues --   -0.35312  -0.34869  -0.34693  -0.34310  -0.33971
 Alpha  occ. eigenvalues --   -0.33675  -0.33346  -0.33017  -0.32853  -0.32196
 Alpha  occ. eigenvalues --   -0.32140  -0.31905  -0.31270  -0.31210  -0.30969
 Alpha  occ. eigenvalues --   -0.30750  -0.29750  -0.29289  -0.29181  -0.28553
 Alpha  occ. eigenvalues --   -0.28205  -0.27115  -0.26181  -0.24140  -0.23199
 Alpha  occ. eigenvalues --   -0.21286  -0.19491  -0.16996
 Alpha virt. eigenvalues --   -0.07472  -0.04421  -0.01589   0.01309   0.03429
 Alpha virt. eigenvalues --    0.04410   0.06014   0.06662   0.06926   0.07944
 Alpha virt. eigenvalues --    0.08039   0.08583   0.08679   0.09055   0.09273

 Mulliken charges:
               1
     1  C   -0.013550
     2  C    0.029757
     3  C   -0.177198
     4  C   -0.168029
     5  C   -0.185068
     6  C   -0.188695
     7  C    0.040797
     8  C    0.058945
     9  C   -0.243511
    10  C   -0.190851
    11  C    0.113487
    12  C    0.029469
    13  C   -0.274304
    14  C   -0.299642
    15  C   -0.325940
    16  C   -0.261724
    17  C   -0.161773
    18  C   -0.130604
    19  C   -0.333013
    20  C   -0.368140
    21  C   -0.069635
    22  C   -0.081389
    23  C    0.151297
    24  C    0.139553
    25  C   -0.366217
    26  C   -0.411982
    27  C   -0.155836
    28  C   -0.131871
    29  C   -0.075119
    30  C   -0.044122
    31  C   -0.084031
    32  C   -0.122012
    33  C    0.065715
    34  C    0.114212
    35  C   -0.363238
    36  C   -0.375847
    37  C   -0.116225
    38  C   -0.084410
    39  C   -0.108827
    40  C   -0.094763
    41  H    0.081779
    42  H    0.091397
    43  H    0.084810
    44  H    0.102506
    45  H    0.067840
    46  H    0.107117
    47  H    0.067746
    48  H    0.087732
    49  H    0.110191
    50  H    0.075331
    51  H    0.107878
    52  H    0.102859
    53  H    0.094599
    54  H    0.082188
    55  H    0.094248
    56  H    0.118861
    57  H    0.083920
    58  H    0.101391
    59  H    0.091732
    60  H    0.097228
    61  H    0.110661
    62  H    0.055832
    63  H    0.114527
    64  H    0.048575
    65  H    0.092752
    66  H    0.064658
    67  H    0.132188
    68  H    0.090414
    69  H    0.081199
    70  H    0.122412
    71  H    0.105895
    72  H    0.099024
    73  H    0.073084
    74  H    0.094589
    75  H    0.105138
    76  H    0.108258
    77  H    0.117651
    78  H    0.113347
    79  H    0.128102
    80  H    0.121624
    81  H    0.067727
    82  H    0.063330
    83  H    0.073582
    84  H    0.067886
    85  H    0.073541
    86  H    0.067672
    87  H    0.132081
    88  H    0.108498
    89  H    0.122231
    90  H    0.142411
    91  H    0.100734
    92  H    0.094697
    93  H    0.080375
    94  H    0.074302
    95  H    0.078829
    96  H    0.085154
 Sum of Mulliken charges =  -0.00000

 Dipole moment (field-independent basis, Debye):
    X=              0.3384    Y=             -0.5507    Z=             -0.2913  Tot=              0.7090
 Quadrupole moment (field-independent basis, Debye-Ang):
   XX=           -225.4560   YY=           -231.8064   ZZ=           -256.4437
   XY=              7.1254   XZ=              8.7916   YZ=              2.6755

 Normal termination of Gaussian 16 at Tue Jul 30 08:31:39 2019.
