 Gaussian 16, Revision A.03,
 Gaussian 16:  ES64L-G16RevA.03 25-Dec-2016

 ---------------------------------
 # td=(NStates=1) B3LYP/6-31G(d,p)
 ---------------------------------

 --
 TD
 --
 Symbolic Z-matrix:
 Charge =  0 Multiplicity = 1

                         Standard orientation:
 ---------------------------------------------------------------------
 Center     Atomic      Atomic             Coordinates (Angstroms)
 Number     Number       Type             X           Y           Z
 ---------------------------------------------------------------------
      1          6           0       12.170401    0.527456   -0.941165
      2          6           0      -12.170137   -0.106291    0.812964
      3          6           0       13.403687   -0.284675   -0.920626
      4          6           0      -13.040995    1.018681    1.229881
      5          6           0       13.226802   -1.775395   -0.757527
      6          6           0      -13.483840    1.899867   -0.084161
      7          6           0       11.138514    0.006808    0.198602
      8          6           0      -11.058951    0.443465   -0.089846
      9          6           0       12.503521   -2.084931    0.609953
     10          6           0      -12.244443    2.571362   -0.601218
     11          6           0       11.281260   -1.124029    0.899193
     12          6           0      -11.041862    1.563045   -0.799847
     13          6           0       11.283049    0.337579   -2.276832
     14          6           0       12.380149    1.987396   -0.734560
     15          6           0      -12.879704   -1.162644    0.037150
     16          6           0      -11.577627   -0.762863    2.080349
     17          6           0        9.990319    0.822572    0.444617
     18          6           0       -9.972887   -0.500385   -0.290254
     19          6           0       10.470270   -1.533932    2.116799
     20          6           0       -9.996541    2.029740   -1.768171
     21          6           0        8.627598    0.408991    0.371798
     22          6           0       -8.635605   -0.245443   -0.200802
     23          6           0        7.428917    1.207364    0.480890
     24          6           0       -7.644803   -1.227267   -0.349705
     25          6           0        7.713743    2.723350    0.848422
     26          6           0       -7.940594   -2.656367   -0.721087
     27          6           0        6.216786    0.709680    0.336720
     28          6           0       -6.309646   -0.779153   -0.260720
     29          6           0        4.868329    1.363899    0.514314
     30          6           0       -5.058606   -1.569537   -0.401179
     31          6           0        3.684712    0.707424    0.318147
     32          6           0       -3.795779   -1.075851   -0.213259
     33          6           0        2.386775    1.287748    0.505939
     34          6           0       -2.550584   -1.797194   -0.317421
     35          6           0        2.329392    2.802031    0.811561
     36          6           0       -2.570797   -3.208692   -0.644639
     37          6           0        1.206949    0.639570    0.315706
     38          6           0       -1.358726   -1.019020   -0.056116
     39          6           0        1.055932   -0.825076   -0.050265
     40          6           0       -0.009543   -1.486399   -0.240840
     41          1           0       14.348398   -0.082416   -0.114984
     42          1           0       13.914101   -0.185729   -1.825665
     43          1           0      -12.583762    1.690036    1.858769
     44          1           0      -13.958841    0.587378    1.719812
     45          1           0       14.146896   -2.417781   -0.690078
     46          1           0       12.690026   -2.331669   -1.461704
     47          1           0      -14.088291    2.678443    0.186072
     48          1           0      -14.116089    1.182324   -0.938220
     49          1           0       13.282488   -2.103735    1.389143
     50          1           0       12.122487   -3.060343    0.867848
     51          1           0      -11.694169    3.261787    0.048836
     52          1           0      -12.288343    3.194053   -1.507814
     53          1           0       11.081332   -0.730676   -2.245905
     54          1           0       12.048483    0.438044   -3.199033
     55          1           0       10.531285    1.110307   -2.503009
     56          1           0       13.038981    1.998042    0.280685
     57          1           0       11.269605    2.372729   -0.678232
     58          1           0       12.980394    2.542696   -1.613542
     59          1           0      -13.371972   -1.126463   -0.924014
     60          1           0      -13.757056   -1.697884    0.581061
     61          1           0      -12.281999   -2.030411    0.020383
     62          1           0      -11.063099   -0.022172    2.553131
     63          1           0      -10.852941   -1.553072    1.681226
     64          1           0      -12.405307   -1.057610    2.868483
     65          1           0       10.370609    1.893446    0.435837
     66          1           0      -10.264965   -1.601600   -0.103040
     67          1           0        9.835911   -0.825550    2.158573
     68          1           0       11.047089   -1.683336    3.055700
     69          1           0       10.063749   -2.466191    1.928239
     70          1           0       -9.448317    1.429653   -2.087875
     71          1           0       -9.548721    2.966784   -1.283644
     72          1           0      -10.556186    2.500159   -2.601785
     73          1           0        8.588053   -0.669652    0.395078
     74          1           0       -8.341347    0.962179   -0.526556
     75          1           0        8.403375    2.671995    1.766537
     76          1           0        6.900259    3.360776    0.809509
     77          1           0        8.197900    3.135251   -0.152811
     78          1           0       -8.520054   -2.755792   -1.642939
     79          1           0       -8.547072   -3.077117    0.134393
     80          1           0       -6.997473   -3.202975   -0.470398
     81          1           0        6.351593   -0.414856   -0.049071
     82          1           0       -6.187958    0.182745    0.076112
     83          1           0        4.673874    2.529378    0.940182
     84          1           0       -5.160606   -2.723407   -0.666831
     85          1           0        3.764233   -0.426462    0.141156
     86          1           0       -3.902512    0.042040   -0.204028
     87          1           0        2.512003    3.163231    1.872296
     88          1           0        1.272917    3.119500    0.481486
     89          1           0        3.195879    3.415437    0.226690
     90          1           0       -3.340590   -3.321246   -1.436441
     91          1           0       -2.809778   -3.614447    0.361562
     92          1           0       -1.562715   -3.689579   -1.084434
     93          1           0        0.092969    1.035364    0.777403
     94          1           0       -1.472582    0.096322    0.100773
     95          1           0        2.143156   -1.174915   -0.375621
     96          1           0        0.102095   -2.510326   -0.605906
 ---------------------------------------------------------------------

 SCF Done:  E(RB3LYP) =  -1557.48330818     A.U. after   15 cycles

 Excitation energies and oscillator strengths:

 Excited State   1:      Singlet-A      2.3044 eV  538.03 nm  f=2.6830  <S**2>=0.000
     148 ->149         0.69807
     148 ->150         0.10898
 This state for optimization and/or second-order correction.
 Total Energy, E(TD-HF/TD-DFT) =  -1557.39862258
 Copying the excited state density for this state as the 1-particle RhoCI density.

 The electronic state is 1-A.
 Alpha  occ. eigenvalues --  -10.21269 -10.20768 -10.20676 -10.20475 -10.20353
 Alpha  occ. eigenvalues --  -10.20091 -10.19904 -10.19792 -10.19780 -10.19689
 Alpha  occ. eigenvalues --  -10.19687 -10.19636 -10.19623 -10.19504 -10.19434
 Alpha  occ. eigenvalues --  -10.19355 -10.19205 -10.19176 -10.19063 -10.18931
 Alpha  occ. eigenvalues --  -10.18928 -10.18835 -10.18750 -10.18740 -10.18732
 Alpha  occ. eigenvalues --  -10.18620 -10.18614 -10.18503 -10.18409 -10.18335
 Alpha  occ. eigenvalues --  -10.17916 -10.17878 -10.17825 -10.17775 -10.17615
 Alpha  occ. eigenvalues --  -10.17591 -10.17489 -10.16792 -10.16789 -10.15479
 Alpha  occ. eigenvalues --   -0.85862  -0.84927  -0.83212  -0.82519  -0.81859
 Alpha  occ. eigenvalues --   -0.81217  -0.79621  -0.79121  -0.78635  -0.77099
 Alpha  occ. eigenvalues --   -0.76948  -0.74669  -0.73891  -0.72357  -0.71714
 Alpha  occ. eigenvalues --   -0.69293  -0.68833  -0.68738  -0.68399  -0.67914
 Alpha  occ. eigenvalues --   -0.67757  -0.67438  -0.66970  -0.66770  -0.65926
 Alpha  occ. eigenvalues --   -0.62484  -0.62092  -0.59743  -0.58929  -0.57326
 Alpha  occ. eigenvalues --   -0.56816  -0.55815  -0.54654  -0.53166  -0.51962
 Alpha  occ. eigenvalues --   -0.51471  -0.50881  -0.49720  -0.49321  -0.48545
 Alpha  occ. eigenvalues --   -0.47876  -0.47402  -0.46840  -0.46488  -0.46122
 Alpha  occ. eigenvalues --   -0.45696  -0.45308  -0.44718  -0.44473  -0.44100
 Alpha  occ. eigenvalues --   -0.43978  -0.43507  -0.42940  -0.42778  -0.42536
 Alpha  occ. eigenvalues --   -0.42157  -0.42022  -0.41545  -0.41281  -0.40853
 Alpha  occ. eigenvalues --   -0.40566  -0.40378  -0.40291  -0.39808  -0.39380
 Alpha  occ. eigenvalues --   -0.39167  -0.38738  -0.38330  -0.38262  -0.37791
 Alpha  occ. eigenvalues --   -0.37578  -0.37198  -0.36923  -0.36722  -0.36347
 Alpha  occ. eigenvalues --   -0.36100  -0.35843  -0.35744  -0.35531  -0.35294
 Alpha  occ. eigenvalues --   -0.34857  -0.34696  -0.34377  -0.34166  -0.33749
 Alpha  occ. eigenvalues --   -0.33631  -0.33063  -0.33013  -0.32874  -0.32313
 Alpha  occ. eigenvalues --   -0.32142  -0.31777  -0.31728  -0.30952  -0.30772
 Alpha  occ. eigenvalues --   -0.29731  -0.29619  -0.29023  -0.28665  -0.28118
 Alpha  occ. eigenvalues --   -0.27812  -0.27489  -0.26075  -0.24707  -0.22904
 Alpha  occ. eigenvalues --   -0.20998  -0.18642  -0.16541
 Alpha virt. eigenvalues --   -0.07499  -0.05335  -0.01704   0.00276   0.03488
 Alpha virt. eigenvalues --    0.04360   0.05715   0.06132   0.06681   0.06972
 Alpha virt. eigenvalues --    0.07310   0.07536   0.08204   0.08331   0.08529

 Mulliken charges:
               1
     1  C    0.013037
     2  C   -0.015771
     3  C   -0.153075
     4  C   -0.176246
     5  C   -0.206427
     6  C   -0.175616
     7  C    0.071061
     8  C    0.114788
     9  C   -0.226862
    10  C   -0.219805
    11  C    0.032707
    12  C    0.032027
    13  C   -0.295882
    14  C   -0.278703
    15  C   -0.289709
    16  C   -0.284625
    17  C   -0.174265
    18  C   -0.174956
    19  C   -0.338589
    20  C   -0.315855
    21  C   -0.112548
    22  C   -0.100371
    23  C    0.140634
    24  C    0.115171
    25  C   -0.348858
    26  C   -0.367455
    27  C   -0.151887
    28  C   -0.121692
    29  C   -0.106657
    30  C   -0.098236
    31  C   -0.075813
    32  C   -0.105174
    33  C    0.123832
    34  C    0.094466
    35  C   -0.373307
    36  C   -0.366913
    37  C   -0.138058
    38  C   -0.124090
    39  C   -0.081275
    40  C   -0.067821
    41  H    0.068466
    42  H    0.104358
    43  H    0.101997
    44  H    0.080727
    45  H    0.084362
    46  H    0.108042
    47  H    0.102380
    48  H    0.068188
    49  H    0.093382
    50  H    0.086279
    51  H    0.110670
    52  H    0.088143
    53  H    0.119076
    54  H    0.065574
    55  H    0.122243
    56  H    0.086031
    57  H    0.093169
    58  H    0.085751
    59  H    0.109755
    60  H    0.071260
    61  H    0.103144
    62  H    0.115876
    63  H    0.090593
    64  H    0.086194
    65  H    0.090401
    66  H    0.069826
    67  H    0.117221
    68  H    0.104425
    69  H    0.114567
    70  H    0.111756
    71  H    0.104673
    72  H    0.100558
    73  H    0.085408
    74  H    0.063411
    75  H    0.121216
    76  H    0.113929
    77  H    0.097204
    78  H    0.131562
    79  H    0.109684
    80  H    0.111782
    81  H    0.071250
    82  H    0.073996
    83  H    0.077713
    84  H    0.063674
    85  H    0.085780
    86  H    0.081988
    87  H    0.118256
    88  H    0.110224
    89  H    0.096257
    90  H    0.126635
    91  H    0.140263
    92  H    0.101712
    93  H    0.066209
    94  H    0.079236
    95  H    0.066319
    96  H    0.076019
 Sum of Mulliken charges =  -0.00000

 Dipole moment (field-independent basis, Debye):
    X=             -0.9361    Y=             -0.0568    Z=             -0.3897  Tot=              1.0155
 Quadrupole moment (field-independent basis, Debye-Ang):
   XX=           -210.9480   YY=           -234.9944   ZZ=           -253.8617
   XY=             -9.4126   XZ=             -0.6151   YZ=              1.4877

 Normal termination of Gaussian 16 at Fri Jul 26 20:22:16 2019.
