 Gaussian 16, Revision A.03,
 Gaussian 16:  ES64L-G16RevA.03 25-Dec-2016

 ---------------------------------
 # td=(NStates=1) B3LYP/6-31G(d,p)
 ---------------------------------

 --
 TD
 --
 Symbolic Z-matrix:
 Charge =  0 Multiplicity = 1

                         Standard orientation:
 ---------------------------------------------------------------------
 Center     Atomic      Atomic             Coordinates (Angstroms)
 Number     Number       Type             X           Y           Z
 ---------------------------------------------------------------------
      1          6           0       12.138602    0.481993   -0.607310
      2          6           0      -12.136866   -0.026988    0.831875
      3          6           0       13.462403   -0.425261   -0.598865
      4          6           0      -13.067947    1.042925    1.233131
      5          6           0       13.022572   -1.942900   -0.375016
      6          6           0      -13.372227    2.031158    0.061623
      7          6           0       11.061600   -0.021528    0.206301
      8          6           0      -11.010715    0.293149   -0.028338
      9          6           0       12.221714   -2.214263    0.682501
     10          6           0      -12.143273    2.531048   -0.605796
     11          6           0       11.071115   -1.231558    0.804775
     12          6           0      -11.080061    1.467801   -0.796184
     13          6           0       11.761092    0.703986   -2.194686
     14          6           0       12.640413    1.922444   -0.054096
     15          6           0      -13.056012   -1.154012    0.148574
     16          6           0      -11.624763   -0.744283    2.162682
     17          6           0        9.867639    0.822198    0.315582
     18          6           0       -9.914982   -0.590253   -0.255251
     19          6           0        9.997988   -1.617765    1.836958
     20          6           0       -9.906656    2.025978   -1.629629
     21          6           0        8.619043    0.468432    0.120776
     22          6           0       -8.570396   -0.279316   -0.115247
     23          6           0        7.485145    1.226360    0.379787
     24          6           0       -7.598865   -1.232864   -0.314288
     25          6           0        7.666239    2.723332    0.632151
     26          6           0       -7.930848   -2.683452   -0.643646
     27          6           0        6.149054    0.776993    0.178227
     28          6           0       -6.236760   -0.839525   -0.191593
     29          6           0        4.887777    1.386530    0.313914
     30          6           0       -4.961856   -1.536210   -0.339948
     31          6           0        3.747672    0.653235    0.267123
     32          6           0       -3.733686   -0.950932   -0.343879
     33          6           0        2.392042    1.306195    0.209134
     34          6           0       -2.506096   -1.653326   -0.507701
     35          6           0        2.249339    2.758983    0.558757
     36          6           0       -2.537152   -3.187668   -0.795972
     37          6           0        1.257052    0.505790    0.131573
     38          6           0       -1.315766   -0.985428   -0.291726
     39          6           0        1.075207   -0.833926   -0.161414
     40          6           0        0.003595   -1.599789   -0.326567
     41          1           0       13.903010   -0.108294    0.411379
     42          1           0       14.222640   -0.282008   -1.247830
     43          1           0      -12.490260    1.787992    1.914517
     44          1           0      -13.933968    0.819592    1.730958
     45          1           0       13.922179   -2.462921   -0.478827
     46          1           0       12.573675   -2.189050   -1.671973
     47          1           0      -13.867842    3.010200    0.287602
     48          1           0      -13.869421    1.443452   -0.712420
     49          1           0       12.602066   -2.235740    1.683947
     50          1           0       11.792625   -3.283190    0.413915
     51          1           0      -11.635416    3.463238   -0.015350
     52          1           0      -12.389936    2.967370   -1.650747
     53          1           0       11.582198   -0.188480   -2.642725
     54          1           0       12.506591    1.377232   -2.710339
     55          1           0       10.804245    1.271612   -2.053720
     56          1           0       12.988981    1.873342    0.995018
     57          1           0       11.864849    2.741885   -0.177699
     58          1           0       13.520797    2.362143   -0.638191
     59          1           0      -13.564494   -0.819540   -0.908579
     60          1           0      -13.784887   -1.586311    0.666030
     61          1           0      -12.228310   -2.070352    0.001031
     62          1           0      -10.940719   -0.191755    2.735565
     63          1           0      -11.360505   -1.794706    2.013786
     64          1           0      -12.380535   -0.763229    3.050553
     65          1           0        9.959117    1.893386    0.791188
     66          1           0      -10.148572   -1.753170   -0.415459
     67          1           0        9.346416   -0.780414    2.143374
     68          1           0       10.365831   -2.255715    2.777205
     69          1           0        9.395068   -2.380317    1.412320
     70          1           0       -9.209117    1.222178   -1.950470
     71          1           0       -9.326774    2.879767   -0.923241
     72          1           0      -10.256380    2.652769   -2.473229
     73          1           0        8.500835   -0.480199   -0.256715
     74          1           0       -8.364585    0.918540    0.207129
     75          1           0        8.312173    2.941423    1.565481
     76          1           0        6.691969    3.360320    0.872011
     77          1           0        8.289280    3.311577   -0.167405
     78          1           0       -8.439247   -2.625338   -1.663440
     79          1           0       -8.398888   -3.030171    0.387432
     80          1           0       -6.912687   -3.242327   -1.041441
     81          1           0        6.225019   -0.315090   -0.082661
     82          1           0       -6.195246    0.216686    0.255382
     83          1           0        4.711629    2.483252    0.522366
     84          1           0       -4.850736   -2.472205   -0.880887
     85          1           0        3.810315   -0.328466   -0.252099
     86          1           0       -3.943761    0.156440   -0.248175
     87          1           0        2.808085    3.102705    1.455976
     88          1           0        1.184507    3.106412    0.735566
     89          1           0        2.600953    3.415589   -0.274407
     90          1           0       -3.178977   -3.444343   -1.717677
     91          1           0       -3.213502   -3.493751   -0.042905
     92          1           0       -1.428327   -3.531519   -0.862464
     93          1           0        0.421347    0.920099    0.355280
     94          1           0       -1.298094    0.145075    0.016856
     95          1           0        2.089055   -1.367146   -0.213502
     96          1           0        0.181505   -2.632239   -0.417030
 ---------------------------------------------------------------------

 SCF Done:  E(RB3LYP) =  -1557.54237495     A.U. after   16 cycles

 Excitation energies and oscillator strengths:

 Excited State   1:      Singlet-A      2.0974 eV  591.14 nm  f=2.6813  <S**2>=0.000
     148 ->149         0.70371
 This state for optimization and/or second-order correction.
 Total Energy, E(TD-HF/TD-DFT) =  -1557.46529800
 Copying the excited state density for this state as the 1-particle RhoCI density.

 The electronic state is 1-A.
 Alpha  occ. eigenvalues --  -10.20966 -10.20925 -10.20449 -10.20427 -10.20340
 Alpha  occ. eigenvalues --  -10.20326 -10.19999 -10.19880 -10.19873 -10.19792
 Alpha  occ. eigenvalues --  -10.19779 -10.19689 -10.19640 -10.19626 -10.19441
 Alpha  occ. eigenvalues --  -10.19389 -10.19349 -10.19340 -10.19290 -10.19265
 Alpha  occ. eigenvalues --  -10.19179 -10.18967 -10.18827 -10.18795 -10.18724
 Alpha  occ. eigenvalues --  -10.18674 -10.18632 -10.18614 -10.18537 -10.18353
 Alpha  occ. eigenvalues --  -10.18244 -10.18220 -10.18212 -10.17670 -10.17600
 Alpha  occ. eigenvalues --  -10.17441 -10.17406 -10.17217 -10.17150 -10.16804
 Alpha  occ. eigenvalues --   -0.85812  -0.85584  -0.83886  -0.83100  -0.82550
 Alpha  occ. eigenvalues --   -0.81750  -0.79980  -0.78583  -0.77798  -0.77437
 Alpha  occ. eigenvalues --   -0.76931  -0.75791  -0.74427  -0.71738  -0.71075
 Alpha  occ. eigenvalues --   -0.70070  -0.68111  -0.67807  -0.67738  -0.67356
 Alpha  occ. eigenvalues --   -0.67193  -0.67133  -0.66772  -0.66652  -0.66337
 Alpha  occ. eigenvalues --   -0.62960  -0.61961  -0.59655  -0.58870  -0.57135
 Alpha  occ. eigenvalues --   -0.56927  -0.56641  -0.55899  -0.54101  -0.52546
 Alpha  occ. eigenvalues --   -0.52346  -0.51563  -0.50958  -0.49535  -0.49218
 Alpha  occ. eigenvalues --   -0.48369  -0.46826  -0.46579  -0.46278  -0.46062
 Alpha  occ. eigenvalues --   -0.45397  -0.45226  -0.44697  -0.44591  -0.44111
 Alpha  occ. eigenvalues --   -0.43887  -0.43592  -0.43003  -0.42502  -0.42053
 Alpha  occ. eigenvalues --   -0.41766  -0.41445  -0.41300  -0.41129  -0.41007
 Alpha  occ. eigenvalues --   -0.40612  -0.39985  -0.39689  -0.39568  -0.39436
 Alpha  occ. eigenvalues --   -0.39110  -0.38851  -0.38657  -0.38421  -0.37875
 Alpha  occ. eigenvalues --   -0.37737  -0.37254  -0.36849  -0.36787  -0.36314
 Alpha  occ. eigenvalues --   -0.36241  -0.36191  -0.35877  -0.35517  -0.35072
 Alpha  occ. eigenvalues --   -0.34828  -0.34767  -0.34545  -0.34513  -0.34023
 Alpha  occ. eigenvalues --   -0.33710  -0.33409  -0.33337  -0.33056  -0.32977
 Alpha  occ. eigenvalues --   -0.31757  -0.31571  -0.31306  -0.31167  -0.31036
 Alpha  occ. eigenvalues --   -0.30316  -0.29545  -0.29373  -0.28549  -0.28362
 Alpha  occ. eigenvalues --   -0.27484  -0.26828  -0.26144  -0.23613  -0.22645
 Alpha  occ. eigenvalues --   -0.21322  -0.18795  -0.16400
 Alpha virt. eigenvalues --   -0.08440  -0.05770  -0.02151   0.00384   0.01751
 Alpha virt. eigenvalues --    0.03113   0.05100   0.05505   0.06353   0.07176
 Alpha virt. eigenvalues --    0.07577   0.07711   0.08069   0.08273   0.08833

 Mulliken charges:
               1
     1  C   -0.014801
     2  C   -0.013568
     3  C   -0.176392
     4  C   -0.160554
     5  C   -0.152249
     6  C   -0.191676
     7  C    0.106331
     8  C    0.120258
     9  C   -0.192804
    10  C   -0.200179
    11  C    0.048085
    12  C    0.055468
    13  C   -0.304289
    14  C   -0.315947
    15  C   -0.282096
    16  C   -0.310965
    17  C   -0.150099
    18  C   -0.167881
    19  C   -0.369044
    20  C   -0.344376
    21  C   -0.064328
    22  C   -0.078814
    23  C    0.132584
    24  C    0.109031
    25  C   -0.380521
    26  C   -0.360496
    27  C   -0.135845
    28  C   -0.144930
    29  C   -0.057156
    30  C   -0.091527
    31  C   -0.118522
    32  C   -0.091058
    33  C    0.093839
    34  C    0.082544
    35  C   -0.391287
    36  C   -0.371492
    37  C   -0.071560
    38  C   -0.115001
    39  C   -0.084751
    40  C   -0.078528
    41  H    0.068128
    42  H    0.096989
    43  H    0.070114
    44  H    0.103982
    45  H    0.099187
    46  H    0.013998
    47  H    0.087146
    48  H    0.097790
    49  H    0.124817
    50  H    0.098847
    51  H    0.076284
    52  H    0.088150
    53  H    0.113711
    54  H    0.094562
    55  H    0.097210
    56  H    0.102153
    57  H    0.091704
    58  H    0.089180
    59  H    0.077891
    60  H    0.119991
    61  H    0.060810
    62  H    0.113894
    63  H    0.100116
    64  H    0.075976
    65  H    0.075982
    66  H    0.081006
    67  H    0.126853
    68  H    0.079731
    69  H    0.121563
    70  H    0.124076
    71  H    0.078039
    72  H    0.100150
    73  H    0.075377
    74  H    0.085781
    75  H    0.103471
    76  H    0.092926
    77  H    0.112575
    78  H    0.128229
    79  H    0.130656
    80  H    0.091919
    81  H    0.069319
    82  H    0.065401
    83  H    0.087436
    84  H    0.067068
    85  H    0.093913
    86  H    0.079213
    87  H    0.123466
    88  H    0.107394
    89  H    0.121962
    90  H    0.114859
    91  H    0.144394
    92  H    0.109438
    93  H    0.051134
    94  H    0.086947
    95  H    0.054952
    96  H    0.086731
 Sum of Mulliken charges =  -0.00000

 Dipole moment (field-independent basis, Debye):
    X=              0.2230    Y=             -0.0171    Z=              0.5625  Tot=              0.6054
 Quadrupole moment (field-independent basis, Debye-Ang):
   XX=           -224.0460   YY=           -236.5443   ZZ=           -255.0698
   XY=             -4.6723   XZ=              0.9093   YZ=              2.7056

 Normal termination of Gaussian 16 at Wed Jul 31 03:53:36 2019.
