 Gaussian 16, Revision A.03,
 Gaussian 16:  ES64L-G16RevA.03 25-Dec-2016

 ---------------------------------
 # td=(NStates=1) B3LYP/6-31G(d,p)
 ---------------------------------

 --
 TD
 --
 Symbolic Z-matrix:
 Charge =  0 Multiplicity = 1

                         Standard orientation:
 ---------------------------------------------------------------------
 Center     Atomic      Atomic             Coordinates (Angstroms)
 Number     Number       Type             X           Y           Z
 ---------------------------------------------------------------------
      1          6           0       12.116224    0.544972   -0.738700
      2          6           0      -12.103775   -0.018137    0.806664
      3          6           0       13.331704   -0.407905   -0.671079
      4          6           0      -13.077421    1.114435    1.315667
      5          6           0       13.117770   -1.848873   -0.656288
      6          6           0      -13.474330    2.008346   -0.048319
      7          6           0       11.089880    0.008134    0.213364
      8          6           0      -11.007258    0.459892   -0.053925
      9          6           0       12.352717   -2.189750    0.616531
     10          6           0      -12.239003    2.613727   -0.609061
     11          6           0       11.193318   -1.177799    0.839039
     12          6           0      -11.062659    1.670159   -0.772283
     13          6           0       11.580725    0.531206   -2.138094
     14          6           0       12.545457    2.069117   -0.369457
     15          6           0      -12.948126   -1.102066    0.117995
     16          6           0      -11.578628   -0.642983    2.161736
     17          6           0        9.903625    0.834214    0.410351
     18          6           0       -9.911650   -0.563952   -0.310814
     19          6           0       10.260655   -1.703549    1.969229
     20          6           0       -9.915918    2.145522   -1.744312
     21          6           0        8.593092    0.517966    0.465931
     22          6           0       -8.603611   -0.395914   -0.078467
     23          6           0        7.368013    1.300497    0.531664
     24          6           0       -7.522978   -1.272938   -0.200881
     25          6           0        7.616180    2.834137    0.779167
     26          6           0       -7.902504   -2.796112   -0.567629
     27          6           0        6.151935    0.736977    0.228296
     28          6           0       -6.264280   -0.842331   -0.138557
     29          6           0        4.924526    1.453823    0.232193
     30          6           0       -5.049652   -1.665695   -0.429486
     31          6           0        3.695999    0.715551    0.230495
     32          6           0       -3.694084   -1.145568   -0.280333
     33          6           0        2.318116    1.309403    0.244702
     34          6           0       -2.512183   -1.901912   -0.531038
     35          6           0        2.340346    2.887739    0.595197
     36          6           0       -2.557493   -3.297125   -0.826562
     37          6           0        1.199519    0.566763    0.044783
     38          6           0       -1.376135   -1.151744   -0.246210
     39          6           0        1.196971   -0.829775   -0.161117
     40          6           0        0.016129   -1.553713   -0.186198
     41          1           0       14.049096   -0.173242    0.214446
     42          1           0       14.032296   -0.203733   -1.593523
     43          1           0      -12.561833    1.803495    1.956768
     44          1           0      -13.877563    0.548478    1.717838
     45          1           0       14.228546   -2.295493   -0.584840
     46          1           0       12.662189   -2.376175   -1.582998
     47          1           0      -14.157848    2.789350    0.199927
     48          1           0      -14.159565    1.366137   -0.615739
     49          1           0       13.047968   -2.139263    1.549533
     50          1           0       12.048154   -3.261654    0.685575
     51          1           0      -11.836413    3.452366   -0.088724
     52          1           0      -12.403400    3.032148   -1.690464
     53          1           0       11.406481   -0.410592   -2.877821
     54          1           0       12.281014    1.277806   -2.855765
     55          1           0       10.484796    0.842137   -2.106834
     56          1           0       12.993639    2.240290    0.701969
     57          1           0       11.702667    2.624959   -0.537384
     58          1           0       13.395586    2.528203   -1.002754
     59          1           0      -13.382406   -0.700825   -0.937251
     60          1           0      -13.618047   -1.528327    0.909124
     61          1           0      -12.269109   -2.024798   -0.196711
     62          1           0      -10.827006   -0.065441    2.740364
     63          1           0      -10.928230   -1.478318    1.836905
     64          1           0      -12.284236   -0.983349    2.844974
     65          1           0        9.955565    1.951581    0.462533
     66          1           0      -10.062020   -1.656990   -0.313693
     67          1           0        9.402098   -1.112935    2.169509
     68          1           0       10.823255   -1.625193    3.011359
     69          1           0        9.935544   -2.688721    1.670480
     70          1           0       -9.224900    1.097605   -1.896371
     71          1           0       -9.282975    2.887001   -1.322092
     72          1           0      -10.597867    2.335097   -2.744685
     73          1           0        8.310753   -0.486729    0.331394
     74          1           0       -8.213908    0.555975    0.113433
     75          1           0        8.417463    2.834870    1.482426
     76          1           0        6.657820    3.383005    1.135835
     77          1           0        8.172316    3.343593    0.005310
     78          1           0       -8.415673   -2.719498   -1.605155
     79          1           0       -8.797106   -2.987605    0.271533
     80          1           0       -7.148140   -3.572640   -0.830026
     81          1           0        6.290246   -0.267863    0.093721
     82          1           0       -6.124462    0.155235   -0.094966
     83          1           0        4.717144    2.549605    0.184131
     84          1           0       -5.142557   -2.776357   -0.497715
     85          1           0        3.858554   -0.456311    0.012550
     86          1           0       -3.599460   -0.076689    0.229648
     87          1           0        2.614203    3.051719    1.677865
     88          1           0        1.214627    3.189274    0.607139
     89          1           0        2.837045    3.390400   -0.194409
     90          1           0       -3.139804   -3.507135   -1.737204
     91          1           0       -3.342584   -3.609083   -0.077189
     92          1           0       -1.575546   -3.949748   -0.802393
     93          1           0        0.231988    1.078227    0.133241
     94          1           0       -1.648794   -0.084804    0.124393
     95          1           0        2.077734   -1.414641   -0.242171
     96          1           0        0.105381   -2.562842   -0.310213
 ---------------------------------------------------------------------

 SCF Done:  E(RB3LYP) =  -1557.60982534     A.U. after   15 cycles

 Excitation energies and oscillator strengths:

 Excited State   1:      Singlet-A      2.1676 eV  571.99 nm  f=2.9985  <S**2>=0.000
     148 ->149         0.70780
     148 <-149        -0.10029
 This state for optimization and/or second-order correction.
 Total Energy, E(TD-HF/TD-DFT) =  -1557.53016776
 Copying the excited state density for this state as the 1-particle RhoCI density.

 The electronic state is 1-A.
 Alpha  occ. eigenvalues --  -10.20894 -10.20674 -10.20636 -10.20581 -10.20523
 Alpha  occ. eigenvalues --  -10.20272 -10.20224 -10.20111 -10.20015 -10.20002
 Alpha  occ. eigenvalues --  -10.19926 -10.19758 -10.19649 -10.19645 -10.19592
 Alpha  occ. eigenvalues --  -10.19579 -10.19542 -10.19468 -10.19244 -10.19076
 Alpha  occ. eigenvalues --  -10.19018 -10.18992 -10.18879 -10.18861 -10.18762
 Alpha  occ. eigenvalues --  -10.18743 -10.18689 -10.18676 -10.18541 -10.18455
 Alpha  occ. eigenvalues --  -10.18442 -10.18372 -10.18272 -10.18111 -10.18032
 Alpha  occ. eigenvalues --  -10.17848 -10.17840 -10.17719 -10.17214 -10.16513
 Alpha  occ. eigenvalues --   -0.85386  -0.84330  -0.83787  -0.82690  -0.82429
 Alpha  occ. eigenvalues --   -0.81544  -0.78492  -0.77858  -0.77632  -0.77132
 Alpha  occ. eigenvalues --   -0.76434  -0.74642  -0.73387  -0.71492  -0.70595
 Alpha  occ. eigenvalues --   -0.70521  -0.68589  -0.68138  -0.67763  -0.67413
 Alpha  occ. eigenvalues --   -0.67027  -0.66954  -0.66237  -0.66113  -0.66019
 Alpha  occ. eigenvalues --   -0.62761  -0.61765  -0.60245  -0.58530  -0.57450
 Alpha  occ. eigenvalues --   -0.56857  -0.55454  -0.55097  -0.53600  -0.52589
 Alpha  occ. eigenvalues --   -0.52284  -0.51827  -0.50182  -0.49732  -0.49316
 Alpha  occ. eigenvalues --   -0.47987  -0.47583  -0.47022  -0.46443  -0.46329
 Alpha  occ. eigenvalues --   -0.45315  -0.44720  -0.44499  -0.44280  -0.43863
 Alpha  occ. eigenvalues --   -0.43392  -0.43063  -0.42819  -0.42581  -0.41881
 Alpha  occ. eigenvalues --   -0.41768  -0.41522  -0.41130  -0.40957  -0.40681
 Alpha  occ. eigenvalues --   -0.40152  -0.40098  -0.40009  -0.39669  -0.39388
 Alpha  occ. eigenvalues --   -0.38951  -0.38407  -0.38110  -0.38004  -0.37885
 Alpha  occ. eigenvalues --   -0.37831  -0.37255  -0.37157  -0.36784  -0.36607
 Alpha  occ. eigenvalues --   -0.36491  -0.35509  -0.35320  -0.35253  -0.35107
 Alpha  occ. eigenvalues --   -0.35083  -0.34717  -0.34288  -0.34137  -0.33687
 Alpha  occ. eigenvalues --   -0.33656  -0.33503  -0.33356  -0.32600  -0.32142
 Alpha  occ. eigenvalues --   -0.31911  -0.31662  -0.31566  -0.31174  -0.31088
 Alpha  occ. eigenvalues --   -0.30906  -0.29827  -0.29554  -0.29066  -0.28078
 Alpha  occ. eigenvalues --   -0.28026  -0.26885  -0.26382  -0.24268  -0.22650
 Alpha  occ. eigenvalues --   -0.21106  -0.18868  -0.16497
 Alpha virt. eigenvalues --   -0.08302  -0.05303  -0.01853   0.00455   0.02392
 Alpha virt. eigenvalues --    0.03895   0.05436   0.06372   0.06829   0.07165
 Alpha virt. eigenvalues --    0.07597   0.07868   0.08577   0.08770   0.09073

 Mulliken charges:
               1
     1  C    0.011186
     2  C   -0.026280
     3  C   -0.159160
     4  C   -0.168856
     5  C   -0.171908
     6  C   -0.203788
     7  C    0.107854
     8  C    0.096686
     9  C   -0.209717
    10  C   -0.199499
    11  C    0.038274
    12  C    0.029482
    13  C   -0.286465
    14  C   -0.306817
    15  C   -0.281437
    16  C   -0.311073
    17  C   -0.143843
    18  C   -0.160571
    19  C   -0.349998
    20  C   -0.339940
    21  C   -0.097372
    22  C   -0.079304
    23  C    0.115170
    24  C    0.155773
    25  C   -0.386652
    26  C   -0.374841
    27  C   -0.109201
    28  C   -0.129524
    29  C   -0.090337
    30  C   -0.123763
    31  C   -0.100661
    32  C   -0.131043
    33  C    0.064150
    34  C    0.182337
    35  C   -0.373940
    36  C   -0.396068
    37  C   -0.108760
    38  C   -0.123298
    39  C   -0.058397
    40  C   -0.108960
    41  H    0.080362
    42  H    0.067403
    43  H    0.100353
    44  H    0.088870
    45  H    0.071981
    46  H    0.091999
    47  H    0.088107
    48  H    0.101723
    49  H    0.093434
    50  H    0.093636
    51  H    0.118639
    52  H    0.080522
    53  H    0.090618
    54  H    0.070576
    55  H    0.102711
    56  H    0.093711
    57  H    0.119673
    58  H    0.094173
    59  H    0.093708
    60  H    0.097855
    61  H    0.085199
    62  H    0.099713
    63  H    0.088344
    64  H    0.103324
    65  H    0.063243
    66  H    0.072691
    67  H    0.121021
    68  H    0.094684
    69  H    0.113815
    70  H    0.096340
    71  H    0.128654
    72  H    0.090611
    73  H    0.061581
    74  H    0.067901
    75  H    0.122103
    76  H    0.100725
    77  H    0.124916
    78  H    0.115981
    79  H    0.098381
    80  H    0.112735
    81  H    0.077407
    82  H    0.073479
    83  H    0.093169
    84  H    0.075151
    85  H    0.067328
    86  H    0.085255
    87  H    0.132190
    88  H    0.093925
    89  H    0.137938
    90  H    0.130591
    91  H    0.126414
    92  H    0.113719
    93  H    0.083889
    94  H    0.066798
    95  H    0.087614
    96  H    0.063684
 Sum of Mulliken charges =  -0.00000

 Dipole moment (field-independent basis, Debye):
    X=              0.0710    Y=             -0.0687    Z=              0.3831  Tot=              0.3957
 Quadrupole moment (field-independent basis, Debye-Ang):
   XX=           -235.6031   YY=           -234.2453   ZZ=           -256.5931
   XY=             -2.7794   XZ=             -0.9019   YZ=              3.4640

 Normal termination of Gaussian 16 at Mon Jul 29 15:05:44 2019.
