 Gaussian 16, Revision A.03,
 Gaussian 16:  ES64L-G16RevA.03 25-Dec-2016

 ---------------------------------
 # td=(NStates=1) B3LYP/6-31G(d,p)
 ---------------------------------

 --
 TD
 --
 Symbolic Z-matrix:
 Charge =  0 Multiplicity = 1

                         Standard orientation:
 ---------------------------------------------------------------------
 Center     Atomic      Atomic             Coordinates (Angstroms)
 Number     Number       Type             X           Y           Z
 ---------------------------------------------------------------------
      1          6           0      -12.090902   -0.535858   -0.744042
      2          6           0       12.061276   -0.012524    0.921168
      3          6           0      -13.416173    0.265397   -0.552337
      4          6           0       13.052594   -1.192034    1.181705
      5          6           0      -13.139728    1.875704   -0.501192
      6          6           0       13.300461   -2.063058    0.010655
      7          6           0      -10.976162   -0.070255    0.120499
      8          6           0       10.914408   -0.379799   -0.087160
      9          6           0      -12.319273    2.059813    0.755332
     10          6           0       12.053729   -2.622966   -0.542314
     11          6           0      -11.102668    1.086687    0.899467
     12          6           0       11.040088   -1.615133   -0.775260
     13          6           0      -11.735949   -0.680419   -2.242791
     14          6           0      -12.536637   -1.904761   -0.381317
     15          6           0       12.886858    1.142411    0.273665
     16          6           0       11.416299    0.508321    2.192330
     17          6           0       -9.746337   -0.907780    0.119073
     18          6           0        9.919807    0.614984   -0.306351
     19          6           0      -10.146850    1.584181    1.973594
     20          6           0       10.008054   -1.977369   -1.785177
     21          6           0       -8.511431   -0.405452    0.249543
     22          6           0        8.569058    0.370963   -0.189683
     23          6           0       -7.366688   -1.252613    0.421410
     24          6           0        7.506292    1.295988   -0.448355
     25          6           0       -7.548244   -2.794414    0.644891
     26          6           0        7.900468    2.804834   -0.660997
     27          6           0       -6.083768   -0.741878    0.391655
     28          6           0        6.248399    0.863008   -0.285690
     29          6           0       -4.841293   -1.477606    0.407216
     30          6           0        5.002135    1.522496   -0.503448
     31          6           0       -3.726764   -0.667920    0.329248
     32          6           0        3.781696    0.991815   -0.297277
     33          6           0       -2.383708   -1.203499    0.277528
     34          6           0        2.527412    1.822561   -0.423644
     35          6           0       -2.225825   -2.642565    0.585419
     36          6           0        2.616969    3.266521   -0.691787
     37          6           0       -1.270229   -0.425355    0.161248
     38          6           0        1.373401    1.088138   -0.215552
     39          6           0       -1.176088    1.021691   -0.179067
     40          6           0        0.014155    1.748137   -0.247162
     41          1           0      -13.563946    0.235095    0.555897
     42          1           0      -14.419757   -0.187887   -1.164935
     43          1           0       12.653994   -1.843301    2.016024
     44          1           0       13.844433   -0.816423    1.844139
     45          1           0      -13.899702    2.586433   -0.817965
     46          1           0      -12.393554    2.163308   -1.201450
     47          1           0       13.987285   -2.877187    0.441130
     48          1           0       14.007591   -1.453166   -0.657047
     49          1           0      -13.005010    2.051198    1.679818
     50          1           0      -11.807659    2.951124    0.717715
     51          1           0       11.700551   -3.455457    0.092554
     52          1           0       12.126006   -3.308604   -1.386864
     53          1           0      -11.512771    0.455750   -2.545473
     54          1           0      -12.462994   -1.223306   -2.706843
     55          1           0      -10.793944   -1.187681   -2.170471
     56          1           0      -12.689391   -2.082019    0.644465
     57          1           0      -11.828119   -2.687795   -0.688632
     58          1           0      -13.474723   -2.214690   -0.907204
     59          1           0       13.383733    0.840674   -0.506556
     60          1           0       13.407975    1.437797    1.208826
     61          1           0       12.254861    2.032958   -0.134706
     62          1           0       10.713487   -0.408845    2.445292
     63          1           0       10.877329    1.300827    1.956252
     64          1           0       12.035155    0.602227    3.118259
     65          1           0      -10.083292   -2.059026    0.063946
     66          1           0       10.300127    1.697940   -0.413518
     67          1           0       -9.267481    0.668609    1.985617
     68          1           0      -10.846602    1.879781    2.866733
     69          1           0       -9.708971    2.606878    1.731504
     70          1           0        9.414844   -1.160310   -2.056725
     71          1           0        9.219914   -2.819963   -1.675354
     72          1           0       10.607812   -2.387582   -2.808607
     73          1           0       -8.496879    0.630768    0.287057
     74          1           0        8.270468   -0.785382   -0.017327
     75          1           0       -8.139659   -2.773903    1.561503
     76          1           0       -6.610230   -3.256587    1.169556
     77          1           0       -8.081105   -3.084507   -0.417896
     78          1           0        8.666932    2.856486   -1.503694
     79          1           0        8.427329    3.285803    0.188154
     80          1           0        7.087368    3.444143   -1.335763
     81          1           0       -6.008822    0.289048    0.115849
     82          1           0        5.972270   -0.155416   -0.031215
     83          1           0       -4.753198   -2.626154    0.568139
     84          1           0        4.919474    2.812764   -0.507216
     85          1           0       -3.791719    0.485912    0.133182
     86          1           0        3.660959   -0.186809   -0.116065
     87          1           0       -2.779854   -2.933333    1.504579
     88          1           0       -0.998690   -2.887905    0.956162
     89          1           0       -2.298094   -3.199713   -0.277891
     90          1           0        3.187873    3.490060   -1.661825
     91          1           0        3.340720    3.791880   -0.036998
     92          1           0        1.662638    3.914180   -0.752298
     93          1           0       -0.268714   -0.866620    0.508805
     94          1           0        1.410823   -0.083452    0.021364
     95          1           0       -2.083078    1.691684   -0.463746
     96          1           0       -0.167030    2.647352   -0.548499
 ---------------------------------------------------------------------

 SCF Done:  E(RB3LYP) =  -1557.52952274     A.U. after   14 cycles

 Excitation energies and oscillator strengths:

 Excited State   1:      Singlet-A      2.3159 eV  535.36 nm  f=2.8006  <S**2>=0.000
     148 ->149         0.70610
 This state for optimization and/or second-order correction.
 Total Energy, E(TD-HF/TD-DFT) =  -1557.44441470
 Copying the excited state density for this state as the 1-particle RhoCI density.

 The electronic state is 1-A.
 Alpha  occ. eigenvalues --  -10.20959 -10.20747 -10.20531 -10.20449 -10.20393
 Alpha  occ. eigenvalues --  -10.20278 -10.20266 -10.20204 -10.20177 -10.20090
 Alpha  occ. eigenvalues --  -10.20010 -10.19851 -10.19835 -10.19738 -10.19650
 Alpha  occ. eigenvalues --  -10.19646 -10.19644 -10.19574 -10.19574 -10.19425
 Alpha  occ. eigenvalues --  -10.19279 -10.19031 -10.19008 -10.18988 -10.18927
 Alpha  occ. eigenvalues --  -10.18662 -10.18598 -10.18565 -10.18498 -10.18411
 Alpha  occ. eigenvalues --  -10.18397 -10.18337 -10.18080 -10.17880 -10.17591
 Alpha  occ. eigenvalues --  -10.17577 -10.16770 -10.16482 -10.16442 -10.16332
 Alpha  occ. eigenvalues --   -0.85369  -0.85070  -0.83384  -0.82971  -0.81957
 Alpha  occ. eigenvalues --   -0.81415  -0.79114  -0.79076  -0.78537  -0.77762
 Alpha  occ. eigenvalues --   -0.76821  -0.74896  -0.74257  -0.71751  -0.71601
 Alpha  occ. eigenvalues --   -0.69515  -0.68255  -0.68183  -0.68136  -0.67887
 Alpha  occ. eigenvalues --   -0.67599  -0.67277  -0.66988  -0.66027  -0.65545
 Alpha  occ. eigenvalues --   -0.62070  -0.61586  -0.59624  -0.58948  -0.56979
 Alpha  occ. eigenvalues --   -0.56437  -0.55448  -0.54793  -0.53771  -0.52490
 Alpha  occ. eigenvalues --   -0.52225  -0.51347  -0.50726  -0.49594  -0.48802
 Alpha  occ. eigenvalues --   -0.47722  -0.47481  -0.46970  -0.46416  -0.45581
 Alpha  occ. eigenvalues --   -0.45358  -0.44922  -0.44749  -0.44461  -0.44173
 Alpha  occ. eigenvalues --   -0.43855  -0.43399  -0.43259  -0.42594  -0.42297
 Alpha  occ. eigenvalues --   -0.41999  -0.41889  -0.41826  -0.41497  -0.41254
 Alpha  occ. eigenvalues --   -0.40726  -0.40678  -0.40218  -0.39992  -0.39436
 Alpha  occ. eigenvalues --   -0.38981  -0.38839  -0.38458  -0.37827  -0.37602
 Alpha  occ. eigenvalues --   -0.37482  -0.37075  -0.36887  -0.36836  -0.36368
 Alpha  occ. eigenvalues --   -0.36159  -0.35689  -0.35190  -0.35043  -0.34925
 Alpha  occ. eigenvalues --   -0.34480  -0.34448  -0.33592  -0.33538  -0.33171
 Alpha  occ. eigenvalues --   -0.33079  -0.32727  -0.32701  -0.32582  -0.32137
 Alpha  occ. eigenvalues --   -0.31962  -0.31825  -0.31550  -0.31325  -0.31042
 Alpha  occ. eigenvalues --   -0.30611  -0.29550  -0.29435  -0.29357  -0.28901
 Alpha  occ. eigenvalues --   -0.28177  -0.27876  -0.26174  -0.23942  -0.22483
 Alpha  occ. eigenvalues --   -0.20887  -0.18743  -0.16894
 Alpha virt. eigenvalues --   -0.07760  -0.05352  -0.02166   0.00150   0.02073
 Alpha virt. eigenvalues --    0.03800   0.05484   0.05792   0.06283   0.06827
 Alpha virt. eigenvalues --    0.07061   0.07756   0.07880   0.08072   0.08399

 Mulliken charges:
               1
     1  C   -0.025433
     2  C   -0.024777
     3  C   -0.175012
     4  C   -0.172989
     5  C   -0.193969
     6  C   -0.186009
     7  C    0.090416
     8  C    0.068206
     9  C   -0.239025
    10  C   -0.209100
    11  C    0.037470
    12  C    0.093564
    13  C   -0.268201
    14  C   -0.301914
    15  C   -0.277055
    16  C   -0.288801
    17  C   -0.117655
    18  C   -0.157953
    19  C   -0.359177
    20  C   -0.364857
    21  C   -0.120595
    22  C   -0.091718
    23  C    0.064954
    24  C    0.131122
    25  C   -0.351851
    26  C   -0.377058
    27  C   -0.112230
    28  C   -0.119422
    29  C   -0.085658
    30  C   -0.075081
    31  C   -0.098944
    32  C   -0.105690
    33  C    0.115550
    34  C    0.158651
    35  C   -0.365750
    36  C   -0.404377
    37  C   -0.130516
    38  C   -0.128026
    39  C   -0.102980
    40  C   -0.072898
    41  H    0.104041
    42  H    0.062403
    43  H    0.075603
    44  H    0.087130
    45  H    0.092493
    46  H    0.098012
    47  H    0.078365
    48  H    0.092253
    49  H    0.093095
    50  H    0.107699
    51  H    0.110708
    52  H    0.100099
    53  H    0.081843
    54  H    0.106879
    55  H    0.103349
    56  H    0.106827
    57  H    0.083845
    58  H    0.092565
    59  H    0.113121
    60  H    0.094495
    61  H    0.072958
    62  H    0.085529
    63  H    0.111867
    64  H    0.090899
    65  H    0.085554
    66  H    0.081647
    67  H    0.104695
    68  H    0.104015
    69  H    0.108917
    70  H    0.128026
    71  H    0.097495
    72  H    0.057050
    73  H    0.107953
    74  H    0.081240
    75  H    0.129558
    76  H    0.101301
    77  H    0.120322
    78  H    0.112301
    79  H    0.133027
    80  H    0.094107
    81  H    0.075056
    82  H    0.077889
    83  H    0.099522
    84  H    0.043383
    85  H    0.081141
    86  H    0.074249
    87  H    0.122075
    88  H    0.054767
    89  H    0.143695
    90  H    0.122396
    91  H    0.133456
    92  H    0.112560
    93  H    0.079583
    94  H    0.085510
    95  H    0.076049
    96  H    0.070162
 Sum of Mulliken charges =  -0.00000

 Dipole moment (field-independent basis, Debye):
    X=             -0.5679    Y=              0.1966    Z=              0.2971  Tot=              0.6704
 Quadrupole moment (field-independent basis, Debye-Ang):
   XX=           -241.4765   YY=           -232.2813   ZZ=           -258.0138
   XY=             -2.0145   XZ=              3.0769   YZ=             -3.3639

 Normal termination of Gaussian 16 at Mon Jul 29 09:39:08 2019.
