 Gaussian 16, Revision A.03,
 Gaussian 16:  ES64L-G16RevA.03 25-Dec-2016

 ---------------------------------
 # td=(NStates=1) B3LYP/6-31G(d,p)
 ---------------------------------

 --
 TD
 --
 Symbolic Z-matrix:
 Charge =  0 Multiplicity = 1

                         Standard orientation:
 ---------------------------------------------------------------------
 Center     Atomic      Atomic             Coordinates (Angstroms)
 Number     Number       Type             X           Y           Z
 ---------------------------------------------------------------------
      1          6           0       12.068065    0.499253   -0.719183
      2          6           0      -12.070952   -0.114227    0.899875
      3          6           0       13.376025   -0.277914   -0.614032
      4          6           0      -13.034475    1.106165    1.285195
      5          6           0       13.249397   -1.775922   -0.589682
      6          6           0      -13.504685    1.929023    0.103414
      7          6           0       10.969486   -0.043839    0.167386
      8          6           0      -10.985020    0.385880   -0.028692
      9          6           0       12.416044   -2.076600    0.702595
     10          6           0      -12.166206    2.620397   -0.503515
     11          6           0       11.175427   -1.166455    0.890378
     12          6           0      -11.011706    1.672971   -0.726164
     13          6           0       11.669039    0.450059   -2.250398
     14          6           0       12.419877    2.062472   -0.348029
     15          6           0      -13.055913   -1.127702    0.124746
     16          6           0      -11.388034   -0.739990    2.152251
     17          6           0        9.802869    0.822229    0.291211
     18          6           0       -9.840985   -0.566353   -0.296231
     19          6           0       10.234300   -1.707029    1.991152
     20          6           0       -9.942579    2.207271   -1.551900
     21          6           0        8.473315    0.421346    0.315472
     22          6           0       -8.532599   -0.295961   -0.414472
     23          6           0        7.307986    1.253818    0.523278
     24          6           0       -7.534068   -1.299980   -0.445937
     25          6           0        7.691656    2.652769    0.816137
     26          6           0       -7.963609   -2.793602   -0.561545
     27          6           0        6.088178    0.751770    0.345832
     28          6           0       -6.193305   -0.854226   -0.403320
     29          6           0        4.842965    1.391629    0.420542
     30          6           0       -5.036987   -1.578962   -0.430015
     31          6           0        3.646682    0.726175    0.304800
     32          6           0       -3.750309   -1.055450   -0.292297
     33          6           0        2.366121    1.336219    0.201802
     34          6           0       -2.540142   -1.757984   -0.304994
     35          6           0        2.247587    2.762745    0.498848
     36          6           0       -2.523231   -3.289804   -0.694039
     37          6           0        1.198683    0.587171    0.025530
     38          6           0       -1.324129   -1.042991   -0.255820
     39          6           0        1.095089   -0.810231   -0.308331
     40          6           0       -0.030985   -1.613579   -0.419881
     41          1           0       13.996382   -0.084148    0.394948
     42          1           0       14.148486   -0.001773   -1.339332
     43          1           0      -12.327491    1.586915    1.844005
     44          1           0      -13.759288    0.572169    1.974504
     45          1           0       14.254577   -2.297488   -0.434139
     46          1           0       12.836543   -2.158229   -1.427989
     47          1           0      -13.985295    2.836717    0.534808
     48          1           0      -13.861857    1.174648   -0.771757
     49          1           0       12.974915   -1.995105    1.507143
     50          1           0       12.022018   -3.043176    0.603171
     51          1           0      -12.042241    3.486988    0.036943
     52          1           0      -12.459688    2.926719   -1.459311
     53          1           0       11.569260   -0.615609   -2.506651
     54          1           0       12.467616    0.973332   -2.939517
     55          1           0       10.737837    0.981445   -2.385239
     56          1           0       12.480657    2.135101    0.746486
     57          1           0       11.745505    2.670183   -0.693317
     58          1           0       13.362837    2.379409   -0.724359
     59          1           0      -13.335339   -0.388078   -0.798301
     60          1           0      -13.625478   -1.633879    0.733281
     61          1           0      -12.339871   -1.890897   -0.300766
     62          1           0      -10.423756   -0.295183    2.630170
     63          1           0      -11.015088   -1.742972    1.981715
     64          1           0      -12.302082   -0.670555    2.900808
     65          1           0       10.041612    1.932843    0.131900
     66          1           0      -10.171974   -1.628421   -0.220271
     67          1           0        9.381272   -0.882841    2.287220
     68          1           0       10.917892   -2.130297    2.733119
     69          1           0        9.684713   -2.598460    1.547685
     70          1           0       -9.287076    1.410098   -1.963313
     71          1           0       -9.335185    2.731715   -1.037215
     72          1           0      -10.396352    2.752810   -2.569844
     73          1           0        8.167539   -0.629218    0.161592
     74          1           0       -8.046316    0.591804   -0.408592
     75          1           0        8.346823    2.828533    1.821588
     76          1           0        6.852349    3.244789    1.267228
     77          1           0        8.218139    3.370783    0.091799
     78          1           0       -8.912151   -2.844078   -1.371136
     79          1           0       -8.304921   -3.369773    0.298134
     80          1           0       -7.080368   -3.401107   -0.895822
     81          1           0        6.077740   -0.292766    0.128970
     82          1           0       -6.120347    0.284124   -0.486618
     83          1           0        4.963417    2.543237    0.475147
     84          1           0       -5.037966   -2.712949   -0.424106
     85          1           0        3.704976   -0.461800    0.218784
     86          1           0       -3.710915    0.029324   -0.153907
     87          1           0        2.509847    3.274992    1.310175
     88          1           0        1.210628    3.162516    0.710823
     89          1           0        2.751706    3.380667   -0.382544
     90          1           0       -3.438541   -3.401711   -1.388852
     91          1           0       -2.983646   -3.722115    0.167139
     92          1           0       -1.590754   -3.683925   -1.003560
     93          1           0        0.288555    1.233122    0.195717
     94          1           0       -1.496029    0.195276   -0.101500
     95          1           0        2.184526   -1.251199   -0.318909
     96          1           0        0.038433   -2.765862   -0.339927
 ---------------------------------------------------------------------

 SCF Done:  E(RB3LYP) =  -1557.57930108     A.U. after   16 cycles

 Excitation energies and oscillator strengths:

 Excited State   1:      Singlet-A      1.9097 eV  649.24 nm  f=3.1541  <S**2>=0.000
     148 ->149         0.70875
     148 <-149        -0.13576
 This state for optimization and/or second-order correction.
 Total Energy, E(TD-HF/TD-DFT) =  -1557.50912125
 Copying the excited state density for this state as the 1-particle RhoCI density.

 The electronic state is 1-A.
 Alpha  occ. eigenvalues --  -10.20486 -10.20381 -10.20344 -10.20296 -10.20251
 Alpha  occ. eigenvalues --  -10.20191 -10.20099 -10.20078 -10.20040 -10.19984
 Alpha  occ. eigenvalues --  -10.19701 -10.19618 -10.19552 -10.19515 -10.19509
 Alpha  occ. eigenvalues --  -10.19434 -10.19381 -10.19269 -10.19110 -10.19100
 Alpha  occ. eigenvalues --  -10.19083 -10.19040 -10.18796 -10.18781 -10.18779
 Alpha  occ. eigenvalues --  -10.18760 -10.18609 -10.18240 -10.18068 -10.17939
 Alpha  occ. eigenvalues --  -10.17808 -10.17778 -10.17661 -10.17359 -10.17319
 Alpha  occ. eigenvalues --  -10.17245 -10.17120 -10.17100 -10.16726 -10.15968
 Alpha  occ. eigenvalues --   -0.84608  -0.84139  -0.83829  -0.83130  -0.82402
 Alpha  occ. eigenvalues --   -0.81550  -0.78817  -0.78302  -0.77644  -0.77305
 Alpha  occ. eigenvalues --   -0.76494  -0.75253  -0.74451  -0.71507  -0.71304
 Alpha  occ. eigenvalues --   -0.70178  -0.68648  -0.68446  -0.68386  -0.68187
 Alpha  occ. eigenvalues --   -0.67857  -0.67269  -0.67070  -0.66473  -0.65756
 Alpha  occ. eigenvalues --   -0.63267  -0.62057  -0.59886  -0.59157  -0.57438
 Alpha  occ. eigenvalues --   -0.56602  -0.55752  -0.54897  -0.53853  -0.52819
 Alpha  occ. eigenvalues --   -0.52719  -0.51739  -0.50627  -0.49909  -0.49242
 Alpha  occ. eigenvalues --   -0.48761  -0.47627  -0.46852  -0.46740  -0.46069
 Alpha  occ. eigenvalues --   -0.45553  -0.45332  -0.44477  -0.44144  -0.43732
 Alpha  occ. eigenvalues --   -0.43364  -0.43147  -0.42952  -0.42588  -0.42307
 Alpha  occ. eigenvalues --   -0.41888  -0.41676  -0.41488  -0.40802  -0.40630
 Alpha  occ. eigenvalues --   -0.40572  -0.40293  -0.40187  -0.39784  -0.39433
 Alpha  occ. eigenvalues --   -0.39158  -0.38874  -0.38685  -0.38411  -0.38106
 Alpha  occ. eigenvalues --   -0.37933  -0.37638  -0.37428  -0.37300  -0.37222
 Alpha  occ. eigenvalues --   -0.36103  -0.35823  -0.35639  -0.35405  -0.35390
 Alpha  occ. eigenvalues --   -0.34879  -0.34698  -0.34541  -0.34234  -0.33883
 Alpha  occ. eigenvalues --   -0.33356  -0.33100  -0.32894  -0.32768  -0.32535
 Alpha  occ. eigenvalues --   -0.32233  -0.32177  -0.31764  -0.31134  -0.30427
 Alpha  occ. eigenvalues --   -0.30334  -0.29797  -0.29637  -0.29107  -0.28675
 Alpha  occ. eigenvalues --   -0.28072  -0.27575  -0.26509  -0.24449  -0.22517
 Alpha  occ. eigenvalues --   -0.20774  -0.18582  -0.15754
 Alpha virt. eigenvalues --   -0.09011  -0.05588  -0.01986   0.00442   0.02415
 Alpha virt. eigenvalues --    0.04403   0.05852   0.05976   0.06684   0.07410
 Alpha virt. eigenvalues --    0.07773   0.08057   0.08414   0.08543   0.09116

 Mulliken charges:
               1
     1  C   -0.017732
     2  C   -0.051664
     3  C   -0.159930
     4  C   -0.150455
     5  C   -0.194301
     6  C   -0.204211
     7  C    0.103054
     8  C    0.074519
     9  C   -0.216823
    10  C   -0.232322
    11  C    0.033674
    12  C    0.051368
    13  C   -0.294846
    14  C   -0.317805
    15  C   -0.272421
    16  C   -0.304726
    17  C   -0.133440
    18  C   -0.157337
    19  C   -0.352564
    20  C   -0.353666
    21  C   -0.126445
    22  C   -0.047006
    23  C    0.173394
    24  C    0.125372
    25  C   -0.397382
    26  C   -0.374017
    27  C   -0.118789
    28  C   -0.141545
    29  C   -0.076712
    30  C   -0.081068
    31  C   -0.116714
    32  C   -0.107476
    33  C    0.124229
    34  C    0.102155
    35  C   -0.375435
    36  C   -0.374819
    37  C   -0.105573
    38  C   -0.096370
    39  C   -0.084230
    40  C   -0.117515
    41  H    0.057678
    42  H    0.083539
    43  H    0.108518
    44  H    0.073057
    45  H    0.079259
    46  H    0.105576
    47  H    0.101990
    48  H    0.093310
    49  H    0.119219
    50  H    0.102285
    51  H    0.112462
    52  H    0.105347
    53  H    0.101412
    54  H    0.082683
    55  H    0.105488
    56  H    0.103441
    57  H    0.109381
    58  H    0.100635
    59  H    0.090935
    60  H    0.112885
    61  H    0.084226
    62  H    0.104040
    63  H    0.106746
    64  H    0.079164
    65  H    0.083575
    66  H    0.082858
    67  H    0.108368
    68  H    0.107821
    69  H    0.107946
    70  H    0.115168
    71  H    0.138307
    72  H    0.071487
    73  H    0.075183
    74  H    0.066788
    75  H    0.097975
    76  H    0.095856
    77  H    0.121442
    78  H    0.092878
    79  H    0.125852
    80  H    0.104978
    81  H    0.070938
    82  H    0.072380
    83  H    0.084791
    84  H    0.067334
    85  H    0.076742
    86  H    0.072295
    87  H    0.135549
    88  H    0.091415
    89  H    0.101512
    90  H    0.115329
    91  H    0.132661
    92  H    0.118763
    93  H    0.074777
    94  H    0.068261
    95  H    0.068845
    96  H    0.096220
 Sum of Mulliken charges =  -0.00000

 Dipole moment (field-independent basis, Debye):
    X=              0.3736    Y=              0.2182    Z=              0.7133  Tot=              0.8342
 Quadrupole moment (field-independent basis, Debye-Ang):
   XX=           -232.8052   YY=           -230.6394   ZZ=           -257.9292
   XY=             -3.5366   XZ=             -3.2798   YZ=              0.6281

 Normal termination of Gaussian 16 at Thu Aug  1 04:40:40 2019.
