 Gaussian 16, Revision A.03,
 Gaussian 16:  ES64L-G16RevA.03 25-Dec-2016

 ---------------------------------
 # td=(NStates=1) B3LYP/6-31G(d,p)
 ---------------------------------

 --
 TD
 --
 Symbolic Z-matrix:
 Charge =  0 Multiplicity = 1

                         Standard orientation:
 ---------------------------------------------------------------------
 Center     Atomic      Atomic             Coordinates (Angstroms)
 Number     Number       Type             X           Y           Z
 ---------------------------------------------------------------------
      1          6           0       12.044376    0.684976   -0.824819
      2          6           0      -12.144122   -0.040297    0.774459
      3          6           0       13.374275    0.019958   -0.726819
      4          6           0      -13.146589    1.011074    1.170242
      5          6           0       13.281955   -1.590475   -0.673546
      6          6           0      -13.464350    2.091490    0.088984
      7          6           0       11.078671    0.065480    0.079463
      8          6           0      -11.072088    0.547170   -0.161066
      9          6           0       12.581654   -1.990950    0.644712
     10          6           0      -12.263665    2.763215   -0.370119
     11          6           0       11.371738   -1.177587    0.916506
     12          6           0      -11.048711    1.781254   -0.732959
     13          6           0       11.551832    0.667659   -2.218409
     14          6           0       12.423338    2.191361   -0.381983
     15          6           0      -12.981014   -1.107612    0.011702
     16          6           0      -11.557129   -0.647181    2.090055
     17          6           0        9.900882    0.786695    0.284445
     18          6           0       -9.927476   -0.425235   -0.363237
     19          6           0       10.383933   -1.665097    1.836332
     20          6           0      -10.058191    2.247407   -1.716862
     21          6           0        8.640695    0.376125    0.244314
     22          6           0       -8.634371   -0.231010   -0.230380
     23          6           0        7.374661    1.170042    0.329795
     24          6           0       -7.543597   -1.243641   -0.450461
     25          6           0        7.610786    2.596329    0.722329
     26          6           0       -8.018628   -2.633976   -0.809234
     27          6           0        6.196869    0.543194    0.220175
     28          6           0       -6.210444   -0.860265   -0.315509
     29          6           0        5.013054    1.229548    0.370702
     30          6           0       -4.978941   -1.617800   -0.449255
     31          6           0        3.656415    0.572314    0.461215
     32          6           0       -3.733178   -1.153971   -0.363573
     33          6           0        2.305529    1.071408    0.514438
     34          6           0       -2.496061   -1.971993   -0.307907
     35          6           0        2.290910    2.603248    0.807765
     36          6           0       -2.537680   -3.358324   -0.675752
     37          6           0        1.190401    0.378065    0.245987
     38          6           0       -1.420330   -1.235596   -0.165464
     39          6           0        1.038180   -1.158275    0.064360
     40          6           0       -0.155192   -1.782835   -0.042534
     41          1           0       13.942121    0.297860    0.174950
     42          1           0       13.823243    0.261072   -1.779748
     43          1           0      -12.685584    1.704318    1.880352
     44          1           0      -13.895883    0.465239    1.429214
     45          1           0       14.339104   -2.004785   -0.554863
     46          1           0       12.796704   -1.968914   -1.669047
     47          1           0      -14.087882    2.954378    0.600471
     48          1           0      -13.968076    1.573451   -0.600011
     49          1           0       13.331327   -1.773111    1.488933
     50          1           0       12.250472   -2.998880    0.797277
     51          1           0      -11.759095    3.316718    0.453072
     52          1           0      -12.364402    3.260056   -1.344385
     53          1           0       11.455427   -0.349908   -2.797000
     54          1           0       12.161861    1.354226   -2.784683
     55          1           0       10.580031    0.975650   -2.355474
     56          1           0       12.594857    2.342138    0.801141
     57          1           0       11.568095    3.101123   -0.650681
     58          1           0       13.542390    2.604924   -0.493281
     59          1           0      -13.459961   -0.924181   -0.828785
     60          1           0      -13.710248   -1.633673    0.728747
     61          1           0      -12.333917   -2.051460   -0.343356
     62          1           0      -10.832204    0.090461    2.708846
     63          1           0      -10.848481   -1.461330    1.680678
     64          1           0      -12.073117   -0.885384    3.119697
     65          1           0       10.095899    1.911107    0.669304
     66          1           0      -10.248648   -1.384013   -0.539512
     67          1           0        9.650110   -0.952331    2.043904
     68          1           0       10.909261   -2.185836    2.631774
     69          1           0        9.894043   -2.569303    1.499313
     70          1           0       -9.276613    1.523809   -1.930384
     71          1           0       -9.516883    3.012005   -1.273990
     72          1           0      -10.527147    2.525295   -2.603345
     73          1           0        8.380883   -0.727229   -0.021043
     74          1           0       -8.292004    0.832443   -0.052986
     75          1           0        8.386847    2.650728    1.683047
     76          1           0        6.774860    3.283058    0.700506
     77          1           0        8.102417    3.089296   -0.272452
     78          1           0       -8.401318   -2.604339   -2.041333
     79          1           0       -8.942312   -3.094435   -0.091191
     80          1           0       -7.136848   -3.487595   -0.651143
     81          1           0        6.262238   -0.605776    0.219369
     82          1           0       -6.018913    0.223540   -0.203956
     83          1           0        5.004112    2.411332    0.625454
     84          1           0       -5.157800   -2.663334   -0.567713
     85          1           0        3.623255   -0.441626    0.128805
     86          1           0       -3.498193   -0.161943   -0.292315
     87          1           0        2.636686    2.975211    1.920714
     88          1           0        1.178429    2.868443    0.918697
     89          1           0        2.818954    3.256771    0.096476
     90          1           0       -2.573245   -3.615349   -1.730706
     91          1           0       -3.182621   -3.954139   -0.014901
     92          1           0       -1.397645   -3.587335   -0.291358
     93          1           0        0.228303    0.955655    0.403284
     94          1           0       -1.585464   -0.213167    0.028325
     95          1           0        1.874051   -1.714876    0.078667
     96          1           0        0.058145   -2.841405   -0.119932
 ---------------------------------------------------------------------

 SCF Done:  E(RB3LYP) =  -1557.50284537     A.U. after   16 cycles

 Excitation energies and oscillator strengths:

 Excited State   1:      Singlet-A      2.3235 eV  533.62 nm  f=2.6520  <S**2>=0.000
     148 ->149         0.69846
 This state for optimization and/or second-order correction.
 Total Energy, E(TD-HF/TD-DFT) =  -1557.41745995
 Copying the excited state density for this state as the 1-particle RhoCI density.

 The electronic state is 1-A.
 Alpha  occ. eigenvalues --  -10.22712 -10.21195 -10.21042 -10.20706 -10.20409
 Alpha  occ. eigenvalues --  -10.20396 -10.19998 -10.19974 -10.19928 -10.19853
 Alpha  occ. eigenvalues --  -10.19574 -10.19554 -10.19444 -10.19307 -10.19083
 Alpha  occ. eigenvalues --  -10.19035 -10.18911 -10.18906 -10.18893 -10.18807
 Alpha  occ. eigenvalues --  -10.18782 -10.18743 -10.18612 -10.18581 -10.18378
 Alpha  occ. eigenvalues --  -10.18321 -10.18280 -10.18236 -10.18206 -10.18179
 Alpha  occ. eigenvalues --  -10.18117 -10.17801 -10.17598 -10.17424 -10.17207
 Alpha  occ. eigenvalues --  -10.16892 -10.16662 -10.16587 -10.16260 -10.15590
 Alpha  occ. eigenvalues --   -0.85534  -0.84994  -0.84908  -0.82970  -0.81502
 Alpha  occ. eigenvalues --   -0.80938  -0.79726  -0.78874  -0.78520  -0.77759
 Alpha  occ. eigenvalues --   -0.77000  -0.75159  -0.73955  -0.72261  -0.71802
 Alpha  occ. eigenvalues --   -0.70026  -0.68486  -0.68306  -0.67852  -0.67794
 Alpha  occ. eigenvalues --   -0.67379  -0.67037  -0.66270  -0.65942  -0.65529
 Alpha  occ. eigenvalues --   -0.62355  -0.61809  -0.59933  -0.59331  -0.57181
 Alpha  occ. eigenvalues --   -0.56234  -0.55984  -0.54730  -0.53957  -0.53187
 Alpha  occ. eigenvalues --   -0.51625  -0.50870  -0.50502  -0.49868  -0.49220
 Alpha  occ. eigenvalues --   -0.48867  -0.48207  -0.47131  -0.46917  -0.46332
 Alpha  occ. eigenvalues --   -0.45726  -0.45501  -0.45002  -0.44514  -0.44169
 Alpha  occ. eigenvalues --   -0.43728  -0.43511  -0.43397  -0.42803  -0.42232
 Alpha  occ. eigenvalues --   -0.42026  -0.41693  -0.41377  -0.41274  -0.40683
 Alpha  occ. eigenvalues --   -0.40551  -0.40513  -0.40251  -0.39562  -0.39267
 Alpha  occ. eigenvalues --   -0.39236  -0.38816  -0.38574  -0.38108  -0.37854
 Alpha  occ. eigenvalues --   -0.37735  -0.37211  -0.37061  -0.36697  -0.36300
 Alpha  occ. eigenvalues --   -0.36019  -0.35457  -0.35423  -0.34939  -0.34769
 Alpha  occ. eigenvalues --   -0.34663  -0.34261  -0.34148  -0.34013  -0.33875
 Alpha  occ. eigenvalues --   -0.33803  -0.33313  -0.32479  -0.32453  -0.31969
 Alpha  occ. eigenvalues --   -0.31867  -0.31756  -0.31135  -0.31065  -0.30710
 Alpha  occ. eigenvalues --   -0.30496  -0.29971  -0.29492  -0.28973  -0.28609
 Alpha  occ. eigenvalues --   -0.27686  -0.26871  -0.26280  -0.24006  -0.22073
 Alpha  occ. eigenvalues --   -0.20181  -0.18662  -0.16693
 Alpha virt. eigenvalues --   -0.07668  -0.05071  -0.01378  -0.00155   0.02585
 Alpha virt. eigenvalues --    0.03649   0.06180   0.06369   0.06485   0.07314
 Alpha virt. eigenvalues --    0.07632   0.08016   0.08087   0.08302   0.08659

 Mulliken charges:
               1
     1  C    0.046296
     2  C   -0.008036
     3  C   -0.173873
     4  C   -0.142698
     5  C   -0.193421
     6  C   -0.180643
     7  C    0.040331
     8  C    0.081962
     9  C   -0.222737
    10  C   -0.203490
    11  C    0.098300
    12  C    0.011713
    13  C   -0.305212
    14  C   -0.311069
    15  C   -0.308249
    16  C   -0.295723
    17  C   -0.135977
    18  C   -0.132637
    19  C   -0.374851
    20  C   -0.365007
    21  C   -0.107793
    22  C   -0.079786
    23  C    0.146359
    24  C    0.124144
    25  C   -0.360854
    26  C   -0.346250
    27  C   -0.099385
    28  C   -0.129264
    29  C   -0.106801
    30  C   -0.084631
    31  C   -0.130785
    32  C   -0.084177
    33  C    0.125121
    34  C    0.135686
    35  C   -0.362252
    36  C   -0.372300
    37  C   -0.137142
    38  C   -0.079482
    39  C   -0.104214
    40  C   -0.100539
    41  H    0.095482
    42  H    0.081092
    43  H    0.084269
    44  H    0.085062
    45  H    0.084649
    46  H    0.091056
    47  H    0.075185
    48  H    0.101922
    49  H    0.097688
    50  H    0.103467
    51  H    0.110149
    52  H    0.094870
    53  H    0.086559
    54  H    0.104553
    55  H    0.119052
    56  H    0.084888
    57  H    0.072845
    58  H    0.094570
    59  H    0.122489
    60  H    0.093587
    61  H    0.071144
    62  H    0.079999
    63  H    0.095716
    64  H    0.100212
    65  H    0.080171
    66  H    0.076048
    67  H    0.129862
    68  H    0.100984
    69  H    0.115276
    70  H    0.120586
    71  H    0.121719
    72  H    0.114947
    73  H    0.068027
    74  H    0.066833
    75  H    0.112833
    76  H    0.110874
    77  H    0.098298
    78  H    0.096217
    79  H    0.095597
    80  H    0.088692
    81  H    0.087328
    82  H    0.069546
    83  H    0.078580
    84  H    0.066724
    85  H    0.066419
    86  H    0.062106
    87  H    0.091553
    88  H    0.088524
    89  H    0.124941
    90  H    0.138432
    91  H    0.119748
    92  H    0.080054
    93  H    0.076255
    94  H    0.084848
    95  H    0.078537
    96  H    0.088308
 Sum of Mulliken charges =  -0.00000

 Dipole moment (field-independent basis, Debye):
    X=              0.4987    Y=             -0.2760    Z=             -0.0075  Tot=              0.5700
 Quadrupole moment (field-independent basis, Debye-Ang):
   XX=           -217.1043   YY=           -236.2203   ZZ=           -253.4159
   XY=             -5.0625   XZ=              9.0994   YZ=              1.2018

 Normal termination of Gaussian 16 at Mon Jul 29 22:00:35 2019.
