 Gaussian 16, Revision A.03,
 Gaussian 16:  ES64L-G16RevA.03 25-Dec-2016

 ---------------------------------
 # td=(NStates=1) B3LYP/6-31G(d,p)
 ---------------------------------

 --
 TD
 --
 Symbolic Z-matrix:
 Charge =  0 Multiplicity = 1

                         Standard orientation:
 ---------------------------------------------------------------------
 Center     Atomic      Atomic             Coordinates (Angstroms)
 Number     Number       Type             X           Y           Z
 ---------------------------------------------------------------------
      1          6           0       12.150438   -0.626626    0.684631
      2          6           0      -12.024954   -0.001946   -0.707470
      3          6           0       13.428386    0.206690    0.511556
      4          6           0      -12.950662   -1.199051   -1.240760
      5          6           0       13.166593    1.742643    0.739979
      6          6           0      -13.330091   -1.999777   -0.000214
      7          6           0       11.019016    0.013782   -0.107803
      8          6           0      -10.986476   -0.497273    0.209879
      9          6           0       12.239984    2.205212   -0.463012
     10          6           0      -12.132412   -2.684330    0.602531
     11          6           0       11.103501    1.231296   -0.694181
     12          6           0      -10.946624   -1.697446    0.830343
     13          6           0       11.649557   -0.812385    2.285670
     14          6           0       12.506213   -1.991203    0.158523
     15          6           0      -12.894768    1.134027   -0.067311
     16          6           0      -11.509028    0.631641   -1.956164
     17          6           0        9.850639   -0.874219   -0.315865
     18          6           0       -9.951762    0.560044    0.300323
     19          6           0       10.014924    1.989291   -1.455963
     20          6           0       -9.920560   -2.128313    1.751379
     21          6           0        8.560262   -0.458734   -0.187239
     22          6           0       -8.604946    0.254413    0.289076
     23          6           0        7.381993   -1.368954   -0.472460
     24          6           0       -7.567161    1.322486    0.395863
     25          6           0        7.639609   -2.781265   -1.051695
     26          6           0       -7.960592    2.771728    0.773861
     27          6           0        6.246577   -0.794309   -0.182923
     28          6           0       -6.236185    0.900407    0.116788
     29          6           0        4.891567   -1.342871   -0.406735
     30          6           0       -5.045402    1.670463    0.265544
     31          6           0        3.660408   -0.717625   -0.263223
     32          6           0       -3.744958    1.172556    0.138884
     33          6           0        2.329568   -1.261616   -0.473426
     34          6           0       -2.539447    1.888159    0.268902
     35          6           0        2.206273   -2.714248   -0.642102
     36          6           0       -2.608860    3.377786    0.439979
     37          6           0        1.268746   -0.443134   -0.279200
     38          6           0       -1.404542    1.115563    0.137963
     39          6           0        1.205207    0.894634   -0.044958
     40          6           0       -0.043230    1.611386    0.129542
     41          1           0       13.865438    0.066555   -0.579375
     42          1           0       14.258867   -0.196692    1.181070
     43          1           0      -12.479712   -1.809647   -2.160458
     44          1           0      -13.876812   -0.660690   -1.646135
     45          1           0       14.039654    2.333776    0.740036
     46          1           0       12.667409    1.756861    1.792344
     47          1           0      -13.890498   -2.893828   -0.159783
     48          1           0      -14.056622   -1.617054    0.862882
     49          1           0       12.894483    2.377714   -1.294621
     50          1           0       11.757167    3.204470   -0.263548
     51          1           0      -11.948485   -3.493860   -0.097475
     52          1           0      -12.521781   -2.913381    1.791921
     53          1           0       11.383615    0.109009    2.658675
     54          1           0       12.323319   -1.172199    2.855859
     55          1           0       10.759206   -1.568796    2.274499
     56          1           0       12.926851   -2.072143   -0.743138
     57          1           0       11.731899   -2.560195    0.316184
     58          1           0       13.237256   -2.574456    0.945517
     59          1           0      -13.206221    0.759665    0.921343
     60          1           0      -13.678238    1.580780   -0.752426
     61          1           0      -12.370659    2.055941    0.172827
     62          1           0      -10.724335   -0.003069   -2.474740
     63          1           0      -10.861542    1.365361   -1.934518
     64          1           0      -12.111972    0.813010   -2.669925
     65          1           0        9.968276   -1.917205   -0.542192
     66          1           0      -10.368896    1.556549    0.507788
     67          1           0        9.391262    1.369623   -2.064386
     68          1           0       10.547807    2.623606   -2.278124
     69          1           0        9.460831    2.750549   -1.035980
     70          1           0       -8.899673   -1.518563    2.001207
     71          1           0       -9.407277   -3.064774    1.343360
     72          1           0      -10.546430   -2.327199    2.557975
     73          1           0        8.291606    0.626679   -0.045351
     74          1           0       -8.070354   -0.601822    0.184049
     75          1           0        8.432340   -2.642893   -1.888990
     76          1           0        6.677357   -3.074570   -1.309753
     77          1           0        8.065531   -3.547260   -0.185728
     78          1           0       -8.495039    2.975533    1.534302
     79          1           0       -8.590368    3.086707   -0.033502
     80          1           0       -7.077942    3.528240    0.781088
     81          1           0        6.321385    0.284833    0.460442
     82          1           0       -6.141622   -0.242585   -0.471026
     83          1           0        4.811545   -2.387405   -0.932537
     84          1           0       -5.287662    2.602615    0.434619
     85          1           0        3.572250    0.383940    0.141376
     86          1           0       -3.630765    0.140741   -0.021959
     87          1           0        2.508961   -3.171260   -1.631104
     88          1           0        1.164888   -3.070035   -0.630338
     89          1           0        2.733480   -3.417376   -0.024254
     90          1           0       -3.017775    3.583768    1.453161
     91          1           0       -3.147329    3.889585   -0.439228
     92          1           0       -1.481212    3.684495    0.242892
     93          1           0        0.420639   -0.986684   -0.338329
     94          1           0       -1.321133   -0.076474    0.007558
     95          1           0        2.179245    1.597894    0.305341
     96          1           0        0.116980    2.680325    0.069536
 ---------------------------------------------------------------------

 SCF Done:  E(RB3LYP) =  -1557.51435038     A.U. after   15 cycles

 Excitation energies and oscillator strengths:

 Excited State   1:      Singlet-A      2.0937 eV  592.18 nm  f=3.0469  <S**2>=0.000
     148 ->149         0.70740
     148 <-149        -0.13305
 This state for optimization and/or second-order correction.
 Total Energy, E(TD-HF/TD-DFT) =  -1557.43740874
 Copying the excited state density for this state as the 1-particle RhoCI density.

 The electronic state is 1-A.
 Alpha  occ. eigenvalues --  -10.20882 -10.20508 -10.20496 -10.20242 -10.20212
 Alpha  occ. eigenvalues --  -10.20139 -10.20055 -10.19973 -10.19955 -10.19884
 Alpha  occ. eigenvalues --  -10.19684 -10.19658 -10.19538 -10.19499 -10.19481
 Alpha  occ. eigenvalues --  -10.19354 -10.19159 -10.18926 -10.18917 -10.18833
 Alpha  occ. eigenvalues --  -10.18404 -10.18388 -10.18373 -10.18293 -10.18180
 Alpha  occ. eigenvalues --  -10.18160 -10.18100 -10.18084 -10.18081 -10.17997
 Alpha  occ. eigenvalues --  -10.17970 -10.17966 -10.17749 -10.17694 -10.17580
 Alpha  occ. eigenvalues --  -10.17331 -10.17079 -10.16313 -10.15610 -10.13914
 Alpha  occ. eigenvalues --   -0.85454  -0.84204  -0.83742  -0.82961  -0.81686
 Alpha  occ. eigenvalues --   -0.81049  -0.79249  -0.77995  -0.77915  -0.77090
 Alpha  occ. eigenvalues --   -0.76176  -0.74997  -0.73333  -0.72459  -0.71467
 Alpha  occ. eigenvalues --   -0.70529  -0.69840  -0.68946  -0.68938  -0.68437
 Alpha  occ. eigenvalues --   -0.68006  -0.67640  -0.66660  -0.66344  -0.65948
 Alpha  occ. eigenvalues --   -0.63146  -0.61535  -0.59335  -0.58683  -0.57357
 Alpha  occ. eigenvalues --   -0.57140  -0.56449  -0.54923  -0.54213  -0.52883
 Alpha  occ. eigenvalues --   -0.52000  -0.50449  -0.49635  -0.49577  -0.48672
 Alpha  occ. eigenvalues --   -0.48067  -0.47526  -0.46945  -0.46675  -0.45890
 Alpha  occ. eigenvalues --   -0.45466  -0.45052  -0.44616  -0.44352  -0.43856
 Alpha  occ. eigenvalues --   -0.43451  -0.43337  -0.42912  -0.42884  -0.42656
 Alpha  occ. eigenvalues --   -0.42138  -0.41918  -0.41729  -0.41597  -0.41357
 Alpha  occ. eigenvalues --   -0.40565  -0.40311  -0.40179  -0.39504  -0.39484
 Alpha  occ. eigenvalues --   -0.39248  -0.39023  -0.38708  -0.38250  -0.38099
 Alpha  occ. eigenvalues --   -0.37962  -0.37647  -0.37225  -0.36857  -0.36471
 Alpha  occ. eigenvalues --   -0.36386  -0.35734  -0.35621  -0.35486  -0.35170
 Alpha  occ. eigenvalues --   -0.35020  -0.34968  -0.34223  -0.34169  -0.33547
 Alpha  occ. eigenvalues --   -0.33331  -0.33106  -0.32807  -0.32117  -0.32044
 Alpha  occ. eigenvalues --   -0.32010  -0.31568  -0.31356  -0.30866  -0.30582
 Alpha  occ. eigenvalues --   -0.30375  -0.30042  -0.29718  -0.29108  -0.28212
 Alpha  occ. eigenvalues --   -0.27523  -0.27015  -0.26267  -0.24118  -0.22775
 Alpha  occ. eigenvalues --   -0.20944  -0.19025  -0.15922
 Alpha virt. eigenvalues --   -0.08502  -0.04274  -0.01708   0.01056   0.02659
 Alpha virt. eigenvalues --    0.04405   0.05625   0.05853   0.06503   0.06902
 Alpha virt. eigenvalues --    0.07419   0.07839   0.08179   0.08355   0.08817

 Mulliken charges:
               1
     1  C   -0.017506
     2  C   -0.016084
     3  C   -0.172499
     4  C   -0.173342
     5  C   -0.192167
     6  C   -0.191333
     7  C    0.093016
     8  C    0.094917
     9  C   -0.223766
    10  C   -0.207183
    11  C    0.072643
    12  C    0.055345
    13  C   -0.311861
    14  C   -0.275600
    15  C   -0.305346
    16  C   -0.286082
    17  C   -0.158528
    18  C   -0.154490
    19  C   -0.379840
    20  C   -0.343915
    21  C   -0.088225
    22  C   -0.059148
    23  C    0.126311
    24  C    0.087725
    25  C   -0.350077
    26  C   -0.371770
    27  C   -0.116027
    28  C   -0.143101
    29  C   -0.126229
    30  C   -0.064425
    31  C   -0.099604
    32  C   -0.093310
    33  C    0.134777
    34  C    0.118491
    35  C   -0.404253
    36  C   -0.364747
    37  C   -0.083315
    38  C   -0.104045
    39  C   -0.102021
    40  C   -0.116249
    41  H    0.070338
    42  H    0.075971
    43  H    0.088119
    44  H    0.085684
    45  H    0.090157
    46  H    0.083649
    47  H    0.093333
    48  H    0.086913
    49  H    0.111790
    50  H    0.094538
    51  H    0.114136
    52  H    0.061011
    53  H    0.112080
    54  H    0.115094
    55  H    0.092087
    56  H    0.110671
    57  H    0.106633
    58  H    0.057682
    59  H    0.102378
    60  H    0.096044
    61  H    0.100515
    62  H    0.072795
    63  H    0.102247
    64  H    0.102471
    65  H    0.086523
    66  H    0.097398
    67  H    0.119434
    68  H    0.078818
    69  H    0.129870
    70  H    0.102820
    71  H    0.104071
    72  H    0.116463
    73  H    0.085410
    74  H    0.080578
    75  H    0.119540
    76  H    0.120599
    77  H    0.102375
    78  H    0.134273
    79  H    0.127815
    80  H    0.095366
    81  H    0.066608
    82  H    0.051816
    83  H    0.070628
    84  H    0.061478
    85  H    0.061912
    86  H    0.072539
    87  H    0.108937
    88  H    0.101888
    89  H    0.131677
    90  H    0.133637
    91  H    0.122548
    92  H    0.097715
    93  H    0.065445
    94  H    0.079644
    95  H    0.080826
    96  H    0.077879
 Sum of Mulliken charges =  -0.00000

 Dipole moment (field-independent basis, Debye):
    X=             -1.8675    Y=              0.1442    Z=             -0.1922  Tot=              1.8829
 Quadrupole moment (field-independent basis, Debye-Ang):
   XX=           -223.5585   YY=           -231.5363   ZZ=           -253.7942
   XY=             -4.6166   XZ=             -1.5746   YZ=              3.0259

 Normal termination of Gaussian 16 at Tue Jul 30 01:05:53 2019.
