 Gaussian 16, Revision A.03,
 Gaussian 16:  ES64L-G16RevA.03 25-Dec-2016

 ---------------------------------
 # td=(NStates=1) B3LYP/6-31G(d,p)
 ---------------------------------

 --
 TD
 --
 Symbolic Z-matrix:
 Charge =  0 Multiplicity = 1

                         Standard orientation:
 ---------------------------------------------------------------------
 Center     Atomic      Atomic             Coordinates (Angstroms)
 Number     Number       Type             X           Y           Z
 ---------------------------------------------------------------------
      1          6           0       12.068478    0.558000   -0.599480
      2          6           0      -12.041391   -0.078588    0.838186
      3          6           0       13.386095   -0.296079   -0.422720
      4          6           0      -12.975430    1.103436    1.372600
      5          6           0       13.232214   -1.839597   -0.426844
      6          6           0      -13.346208    2.122762    0.308064
      7          6           0       10.901930    0.065850    0.255964
      8          6           0      -10.958121    0.410247   -0.058003
      9          6           0       12.244011   -2.178452    0.761688
     10          6           0      -12.070411    2.682646   -0.325926
     11          6           0       11.048200   -1.147891    0.854506
     12          6           0      -10.982332    1.596732   -0.631079
     13          6           0       11.679750    0.420360   -2.117865
     14          6           0       12.418519    1.960695   -0.201236
     15          6           0      -13.102951   -0.998672    0.088498
     16          6           0      -11.519902   -0.896621    2.061054
     17          6           0        9.772800    0.866777    0.448037
     18          6           0       -9.856878   -0.535605   -0.503457
     19          6           0       10.013875   -1.725210    1.850133
     20          6           0       -9.920461    2.249035   -1.625396
     21          6           0        8.522697    0.531177    0.450964
     22          6           0       -8.561377   -0.357411   -0.117131
     23          6           0        7.416912    1.354675    0.491026
     24          6           0       -7.474425   -1.299962   -0.354874
     25          6           0        7.758612    2.821521    0.589418
     26          6           0       -7.932253   -2.660205   -0.794459
     27          6           0        6.154246    0.779272    0.256315
     28          6           0       -6.237515   -0.904962   -0.230950
     29          6           0        4.901413    1.516298    0.263106
     30          6           0       -5.069476   -1.666030   -0.366653
     31          6           0        3.718765    0.782499   -0.025224
     32          6           0       -3.681762   -1.165186   -0.310303
     33          6           0        2.358553    1.349759    0.090411
     34          6           0       -2.475910   -1.943578   -0.395509
     35          6           0        2.286581    2.730725    0.366692
     36          6           0       -2.626723   -3.371261   -0.621815
     37          6           0        1.228607    0.601648   -0.095450
     38          6           0       -1.340094   -1.222361   -0.269517
     39          6           0        1.166612   -0.874655   -0.360680
     40          6           0        0.051729   -1.591825   -0.470730
     41          1           0       13.981533    0.043797    0.500390
     42          1           0       14.050352    0.065115   -1.496604
     43          1           0      -12.310547    1.597986    2.293734
     44          1           0      -13.729587    0.734245    2.096706
     45          1           0       13.978805   -2.369016   -0.311633
     46          1           0       12.663814   -2.012663   -1.243604
     47          1           0      -13.989047    2.957298    0.650285
     48          1           0      -13.969366    1.496439   -0.385322
     49          1           0       12.800111   -1.974899    1.834210
     50          1           0       11.995452   -3.279638    0.802786
     51          1           0      -11.626285    3.327126    0.284331
     52          1           0      -12.357456    3.169432   -1.154783
     53          1           0       11.685656   -0.474380   -2.523124
     54          1           0       12.316333    0.884891   -2.867992
     55          1           0       10.540283    0.809755   -2.204104
     56          1           0       12.349828    2.034449    0.928929
     57          1           0       11.653814    2.555480   -0.654685
     58          1           0       13.508381    2.272228   -0.659004
     59          1           0      -13.586371   -0.558336   -0.691843
     60          1           0      -13.771822   -1.570169    0.848245
     61          1           0      -12.520403   -1.865567   -0.482246
     62          1           0      -10.789729   -0.052369    2.478563
     63          1           0      -11.042411   -1.812857    1.664390
     64          1           0      -12.331392   -1.164748    2.867517
     65          1           0       10.067383    1.917254    0.389051
     66          1           0      -10.157180   -1.510865   -0.680960
     67          1           0        9.373116   -1.107391    2.375444
     68          1           0       10.520213   -2.203539    2.630983
     69          1           0        9.351777   -2.554280    1.331205
     70          1           0       -9.148487    1.602137   -1.859490
     71          1           0       -9.442882    3.204404   -1.487179
     72          1           0      -10.645299    2.571860   -2.408832
     73          1           0        8.222826   -0.556055    0.268127
     74          1           0       -8.216473    0.703226    0.027117
     75          1           0        7.998579    2.857938    1.618224
     76          1           0        6.736999    3.477358    0.429839
     77          1           0        8.481208    3.084845   -0.202733
     78          1           0       -8.416141   -2.696771   -1.875217
     79          1           0       -8.718993   -3.230413   -0.093529
     80          1           0       -6.978166   -3.328632   -0.765633
     81          1           0        6.271707   -0.417883    0.043109
     82          1           0       -6.162169    0.183882    0.218491
     83          1           0        4.940636    2.485264    0.491024
     84          1           0       -4.900721   -2.855588   -0.482979
     85          1           0        3.927460   -0.196405   -0.284056
     86          1           0       -3.648794   -0.044527   -0.340883
     87          1           0        2.944191    3.033752    1.005467
     88          1           0        1.329486    3.287028    0.682315
     89          1           0        2.478394    3.499033   -0.571993
     90          1           0       -3.113131   -3.758404   -1.324102
     91          1           0       -3.099082   -3.886073    0.090750
     92          1           0       -1.657699   -3.883991   -0.691385
     93          1           0        0.277465    1.231108   -0.334920
     94          1           0       -1.413652   -0.142097   -0.004923
     95          1           0        2.108749   -1.395335   -0.329745
     96          1           0        0.246869   -2.684225   -0.565895
 ---------------------------------------------------------------------

 SCF Done:  E(RB3LYP) =  -1557.51646991     A.U. after   16 cycles

 Excitation energies and oscillator strengths:

 Excited State   1:      Singlet-A      2.2049 eV  562.31 nm  f=2.7828  <S**2>=0.000
     148 ->149         0.70936
 This state for optimization and/or second-order correction.
 Total Energy, E(TD-HF/TD-DFT) =  -1557.43544080
 Copying the excited state density for this state as the 1-particle RhoCI density.

 The electronic state is 1-A.
 Alpha  occ. eigenvalues --  -10.20519 -10.20450 -10.20384 -10.20237 -10.20235
 Alpha  occ. eigenvalues --  -10.20196 -10.20173 -10.20154 -10.20001 -10.19730
 Alpha  occ. eigenvalues --  -10.19718 -10.19660 -10.19445 -10.19280 -10.19260
 Alpha  occ. eigenvalues --  -10.19255 -10.19206 -10.19191 -10.19183 -10.19036
 Alpha  occ. eigenvalues --  -10.18963 -10.18847 -10.18793 -10.18701 -10.18516
 Alpha  occ. eigenvalues --  -10.18442 -10.18156 -10.18015 -10.17988 -10.17982
 Alpha  occ. eigenvalues --  -10.17875 -10.17712 -10.17551 -10.17296 -10.17209
 Alpha  occ. eigenvalues --  -10.17041 -10.16985 -10.16075 -10.16074 -10.16005
 Alpha  occ. eigenvalues --   -0.85553  -0.84485  -0.83833  -0.83430  -0.82767
 Alpha  occ. eigenvalues --   -0.82423  -0.78893  -0.77939  -0.77745  -0.77444
 Alpha  occ. eigenvalues --   -0.77147  -0.75585  -0.74252  -0.72442  -0.72253
 Alpha  occ. eigenvalues --   -0.71083  -0.69003  -0.68988  -0.68499  -0.67891
 Alpha  occ. eigenvalues --   -0.67578  -0.66841  -0.66755  -0.66575  -0.65208
 Alpha  occ. eigenvalues --   -0.63376  -0.62426  -0.60037  -0.59187  -0.57392
 Alpha  occ. eigenvalues --   -0.56697  -0.56046  -0.55292  -0.54899  -0.53316
 Alpha  occ. eigenvalues --   -0.52510  -0.51196  -0.50468  -0.49659  -0.49279
 Alpha  occ. eigenvalues --   -0.48090  -0.47839  -0.47075  -0.46722  -0.46283
 Alpha  occ. eigenvalues --   -0.46146  -0.45537  -0.45252  -0.44511  -0.44381
 Alpha  occ. eigenvalues --   -0.44139  -0.43923  -0.43202  -0.42688  -0.42648
 Alpha  occ. eigenvalues --   -0.42239  -0.41832  -0.41672  -0.40750  -0.40733
 Alpha  occ. eigenvalues --   -0.40567  -0.40302  -0.40167  -0.40031  -0.39626
 Alpha  occ. eigenvalues --   -0.38899  -0.38844  -0.38824  -0.38415  -0.38243
 Alpha  occ. eigenvalues --   -0.37933  -0.37738  -0.37700  -0.36758  -0.36242
 Alpha  occ. eigenvalues --   -0.35931  -0.35815  -0.35639  -0.35586  -0.35391
 Alpha  occ. eigenvalues --   -0.34524  -0.34318  -0.34236  -0.33993  -0.33986
 Alpha  occ. eigenvalues --   -0.33477  -0.33161  -0.32932  -0.32541  -0.32528
 Alpha  occ. eigenvalues --   -0.32101  -0.32029  -0.31850  -0.31310  -0.30873
 Alpha  occ. eigenvalues --   -0.30392  -0.29936  -0.29686  -0.28880  -0.28485
 Alpha  occ. eigenvalues --   -0.28211  -0.27701  -0.26392  -0.24550  -0.22815
 Alpha  occ. eigenvalues --   -0.21612  -0.18623  -0.16640
 Alpha virt. eigenvalues --   -0.08140  -0.05682  -0.01441   0.00899   0.03167
 Alpha virt. eigenvalues --    0.04029   0.05408   0.06490   0.06982   0.07178
 Alpha virt. eigenvalues --    0.07381   0.07670   0.08586   0.08804   0.09244

 Mulliken charges:
               1
     1  C    0.003534
     2  C   -0.027646
     3  C   -0.163312
     4  C   -0.155374
     5  C   -0.145124
     6  C   -0.195282
     7  C    0.091810
     8  C    0.088234
     9  C   -0.234971
    10  C   -0.195726
    11  C    0.040671
    12  C    0.031249
    13  C   -0.301679
    14  C   -0.299594
    15  C   -0.289289
    16  C   -0.285754
    17  C   -0.143565
    18  C   -0.158214
    19  C   -0.356111
    20  C   -0.354969
    21  C   -0.064452
    22  C   -0.089279
    23  C    0.107101
    24  C    0.181085
    25  C   -0.356669
    26  C   -0.376297
    27  C   -0.139986
    28  C   -0.134765
    29  C   -0.070749
    30  C   -0.101692
    31  C   -0.106044
    32  C   -0.136132
    33  C    0.145750
    34  C    0.163192
    35  C   -0.378122
    36  C   -0.395664
    37  C   -0.150593
    38  C   -0.129657
    39  C   -0.081753
    40  C   -0.093512
    41  H    0.081208
    42  H    0.031808
    43  H    0.036178
    44  H    0.087832
    45  H    0.092801
    46  H    0.113981
    47  H    0.088057
    48  H    0.094254
    49  H    0.077745
    50  H    0.101382
    51  H    0.124736
    52  H    0.098114
    53  H    0.118567
    54  H    0.096281
    55  H    0.074599
    56  H    0.104718
    57  H    0.107879
    58  H    0.082690
    59  H    0.115100
    60  H    0.090722
    61  H    0.062990
    62  H    0.093972
    63  H    0.103792
    64  H    0.089420
    65  H    0.073353
    66  H    0.082963
    67  H    0.120537
    68  H    0.103731
    69  H    0.090452
    70  H    0.118771
    71  H    0.112523
    72  H    0.103558
    73  H    0.071879
    74  H    0.072716
    75  H    0.141908
    76  H    0.074929
    77  H    0.132399
    78  H    0.113323
    79  H    0.104267
    80  H    0.095270
    81  H    0.067999
    82  H    0.083345
    83  H    0.078803
    84  H    0.065839
    85  H    0.082169
    86  H    0.075063
    87  H    0.132723
    88  H    0.104687
    89  H    0.085635
    90  H    0.138239
    91  H    0.136848
    92  H    0.104163
    93  H    0.081644
    94  H    0.082590
    95  H    0.087625
    96  H    0.070572
 Sum of Mulliken charges =  -0.00000

 Dipole moment (field-independent basis, Debye):
    X=              1.2833    Y=             -0.1650    Z=             -0.1435  Tot=              1.3018
 Quadrupole moment (field-independent basis, Debye-Ang):
   XX=           -230.7862   YY=           -231.1937   ZZ=           -255.5136
   XY=             -6.6370   XZ=              3.3852   YZ=              1.7427

 Normal termination of Gaussian 16 at Wed Jul 31 11:26:42 2019.
