 Gaussian 16, Revision A.03,
 Gaussian 16:  ES64L-G16RevA.03 25-Dec-2016

 ---------------------------------
 # td=(NStates=1) B3LYP/6-31G(d,p)
 ---------------------------------

 --
 TD
 --
 Symbolic Z-matrix:
 Charge =  0 Multiplicity = 1

                         Standard orientation:
 ---------------------------------------------------------------------
 Center     Atomic      Atomic             Coordinates (Angstroms)
 Number     Number       Type             X           Y           Z
 ---------------------------------------------------------------------
      1          6           0      -12.127579   -0.586465   -0.740852
      2          6           0       12.063261   -0.194488    0.914030
      3          6           0      -13.430778    0.200824   -0.619255
      4          6           0       12.735586   -1.408321    1.342379
      5          6           0      -13.171546    1.742959   -0.528863
      6          6           0       13.232685   -2.157827    0.118874
      7          6           0      -11.011763   -0.065782    0.204256
      8          6           0       10.818162   -0.352184   -0.141713
      9          6           0      -12.355167    2.018688    0.664153
     10          6           0       11.926448   -2.660567   -0.585560
     11          6           0      -11.105808    1.140945    0.953022
     12          6           0       10.911155   -1.580936   -0.904120
     13          6           0      -11.693945   -0.680121   -2.244840
     14          6           0      -12.376487   -2.084007   -0.343822
     15          6           0       13.032969    0.981546    0.302581
     16          6           0       11.398247    0.431593    2.140830
     17          6           0       -9.767863   -0.773794    0.255986
     18          6           0        9.827629    0.627693   -0.280288
     19          6           0      -10.210358    1.543676    1.999711
     20          6           0        9.874418   -1.989854   -1.899725
     21          6           0       -8.510355   -0.300370    0.305411
     22          6           0        8.468664    0.293892   -0.190560
     23          6           0       -7.269108   -1.180468    0.345463
     24          6           0        7.469439    1.320037   -0.520945
     25          6           0       -7.457355   -2.704253    0.522957
     26          6           0        7.949998    2.770830   -0.852949
     27          6           0       -6.021100   -0.682470    0.214745
     28          6           0        6.167183    1.012970   -0.323064
     29          6           0       -4.737927   -1.430020    0.324410
     30          6           0        5.004456    1.923690   -0.357534
     31          6           0       -3.601259   -0.704878    0.090901
     32          6           0        3.807504    1.321047   -0.192329
     33          6           0       -2.202303   -1.232056    0.377298
     34          6           0        2.552173    1.915103   -0.304391
     35          6           0       -2.085823   -2.710493    0.739153
     36          6           0        2.537901    3.453480   -0.585551
     37          6           0       -1.129240   -0.476277    0.285381
     38          6           0        1.400795    1.272336   -0.265275
     39          6           0       -1.036471    0.919121   -0.019195
     40          6           0        0.081996    1.731805   -0.242580
     41          1           0      -13.849049   -0.296333    0.395230
     42          1           0      -14.032530   -0.094955   -1.487129
     43          1           0       11.971151   -2.122393    1.945153
     44          1           0       13.392447   -1.061489    2.096319
     45          1           0      -14.026834    2.213268   -0.136339
     46          1           0      -12.677705    1.850101   -1.573103
     47          1           0       13.766620   -2.918374    0.429279
     48          1           0       13.832795   -1.699776   -0.460197
     49          1           0      -13.116770    2.051515    1.533381
     50          1           0      -11.947353    2.961470    0.733551
     51          1           0       11.513436   -3.326774    0.214656
     52          1           0       11.934391   -3.091352   -1.611610
     53          1           0      -11.430246    0.277182   -2.459724
     54          1           0      -12.533703   -1.028122   -2.895962
     55          1           0      -10.676908   -1.165517   -2.232236
     56          1           0      -12.607412   -2.299418    0.759540
     57          1           0      -11.532041   -2.722855   -0.551240
     58          1           0      -13.135734   -2.565458   -1.194470
     59          1           0       13.368528    0.498269   -0.722230
     60          1           0       13.986320    1.321250    0.852361
     61          1           0       12.333540    1.691692    0.029374
     62          1           0       10.851152   -0.194544    2.490067
     63          1           0       11.035036    1.365293    2.098296
     64          1           0       12.099885    0.706858    2.915213
     65          1           0       -9.883223   -1.926626    0.372698
     66          1           0       10.162244    1.609710   -0.415582
     67          1           0       -9.531600    0.776564    2.384252
     68          1           0      -10.675460    1.968785    2.948538
     69          1           0       -9.781777    2.551873    1.707015
     70          1           0        9.101735   -1.153102   -2.131804
     71          1           0        9.188223   -2.722867   -1.393874
     72          1           0       10.318481   -2.336428   -2.790262
     73          1           0       -8.329088    0.660390    0.322399
     74          1           0        8.043392   -0.693253   -0.140180
     75          1           0       -8.174529   -2.769198    1.242275
     76          1           0       -6.527876   -3.431727    0.671977
     77          1           0       -8.110410   -3.136545   -0.378343
     78          1           0        8.464204    2.554962   -1.785918
     79          1           0        8.825290    3.398112   -0.259301
     80          1           0        7.012137    3.410586   -1.306301
     81          1           0       -6.030902    0.463785    0.293636
     82          1           0        5.948882   -0.003824   -0.116980
     83          1           0       -4.772299   -2.541898    0.510290
     84          1           0        5.113808    2.781313   -0.580509
     85          1           0       -3.539094    0.252403   -0.155520
     86          1           0        3.793639    0.378853    0.118521
     87          1           0       -2.597445   -3.097188    1.723841
     88          1           0       -1.097784   -2.940555    0.683067
     89          1           0       -2.789821   -3.281826    0.009453
     90          1           0        2.597869    3.455540   -1.851334
     91          1           0        3.740614    3.687359   -0.131747
     92          1           0        1.547598    3.885446    0.004742
     93          1           0       -0.043759   -0.929362    0.353529
     94          1           0        1.493713    0.285795   -0.248380
     95          1           0       -1.881036    1.560583   -0.121622
     96          1           0        0.144653    2.933183   -0.455538
 ---------------------------------------------------------------------

 SCF Done:  E(RB3LYP) =  -1557.42228186     A.U. after   14 cycles

 Excitation energies and oscillator strengths:

 Excited State   1:      Singlet-A      2.3017 eV  538.67 nm  f=2.7604  <S**2>=0.000
     148 ->149         0.69860
 This state for optimization and/or second-order correction.
 Total Energy, E(TD-HF/TD-DFT) =  -1557.33769696
 Copying the excited state density for this state as the 1-particle RhoCI density.

 The electronic state is 1-A.
 Alpha  occ. eigenvalues --  -10.22219 -10.20724 -10.20408 -10.20233 -10.20156
 Alpha  occ. eigenvalues --  -10.20008 -10.19946 -10.19860 -10.19819 -10.19430
 Alpha  occ. eigenvalues --  -10.19314 -10.19292 -10.19240 -10.19189 -10.19061
 Alpha  occ. eigenvalues --  -10.19054 -10.19038 -10.18868 -10.18855 -10.18726
 Alpha  occ. eigenvalues --  -10.18686 -10.18653 -10.18592 -10.18554 -10.18500
 Alpha  occ. eigenvalues --  -10.18421 -10.18297 -10.18267 -10.18252 -10.18205
 Alpha  occ. eigenvalues --  -10.18106 -10.17872 -10.17800 -10.17684 -10.17318
 Alpha  occ. eigenvalues --  -10.17239 -10.17012 -10.16138 -10.15495 -10.12777
 Alpha  occ. eigenvalues --   -0.84989  -0.84572  -0.84348  -0.83032  -0.81902
 Alpha  occ. eigenvalues --   -0.81389  -0.79286  -0.78995  -0.78344  -0.78132
 Alpha  occ. eigenvalues --   -0.77100  -0.75636  -0.74284  -0.72699  -0.72243
 Alpha  occ. eigenvalues --   -0.69411  -0.68495  -0.68378  -0.67833  -0.67675
 Alpha  occ. eigenvalues --   -0.67580  -0.67032  -0.66802  -0.66296  -0.65864
 Alpha  occ. eigenvalues --   -0.63871  -0.62197  -0.61617  -0.59542  -0.57691
 Alpha  occ. eigenvalues --   -0.56976  -0.56442  -0.55018  -0.54083  -0.53493
 Alpha  occ. eigenvalues --   -0.52404  -0.51977  -0.50607  -0.50284  -0.49029
 Alpha  occ. eigenvalues --   -0.48892  -0.47952  -0.47413  -0.47131  -0.46704
 Alpha  occ. eigenvalues --   -0.46238  -0.45922  -0.45302  -0.45030  -0.44688
 Alpha  occ. eigenvalues --   -0.44044  -0.43567  -0.42896  -0.42456  -0.42093
 Alpha  occ. eigenvalues --   -0.41921  -0.41843  -0.40753  -0.40528  -0.40413
 Alpha  occ. eigenvalues --   -0.40229  -0.40076  -0.39970  -0.39865  -0.39709
 Alpha  occ. eigenvalues --   -0.39567  -0.39070  -0.38953  -0.38713  -0.38237
 Alpha  occ. eigenvalues --   -0.37887  -0.37613  -0.37427  -0.36922  -0.36666
 Alpha  occ. eigenvalues --   -0.36567  -0.36425  -0.35909  -0.35672  -0.35545
 Alpha  occ. eigenvalues --   -0.35423  -0.34894  -0.34405  -0.34097  -0.33889
 Alpha  occ. eigenvalues --   -0.33592  -0.33357  -0.33066  -0.32799  -0.32772
 Alpha  occ. eigenvalues --   -0.31998  -0.31795  -0.31734  -0.30802  -0.30668
 Alpha  occ. eigenvalues --   -0.30158  -0.29881  -0.29542  -0.28754  -0.28708
 Alpha  occ. eigenvalues --   -0.28296  -0.27523  -0.26137  -0.23593  -0.22278
 Alpha  occ. eigenvalues --   -0.20365  -0.18868  -0.16729
 Alpha virt. eigenvalues --   -0.07831  -0.04821  -0.02442  -0.00021   0.02167
 Alpha virt. eigenvalues --    0.03967   0.05266   0.05390   0.06252   0.06488
 Alpha virt. eigenvalues --    0.07398   0.07882   0.08519   0.08810   0.09043

 Mulliken charges:
               1
     1  C   -0.014033
     2  C    0.003404
     3  C   -0.165193
     4  C   -0.179915
     5  C   -0.167940
     6  C   -0.161130
     7  C    0.064954
     8  C    0.044038
     9  C   -0.218669
    10  C   -0.214603
    11  C    0.084679
    12  C    0.044481
    13  C   -0.301610
    14  C   -0.291537
    15  C   -0.306557
    16  C   -0.272425
    17  C   -0.138941
    18  C   -0.129902
    19  C   -0.385134
    20  C   -0.365279
    21  C   -0.071300
    22  C   -0.093695
    23  C    0.109110
    24  C    0.112159
    25  C   -0.369353
    26  C   -0.374118
    27  C   -0.140988
    28  C   -0.138761
    29  C   -0.085106
    30  C   -0.018258
    31  C   -0.063110
    32  C   -0.076888
    33  C    0.118904
    34  C    0.090901
    35  C   -0.363630
    36  C   -0.339413
    37  C   -0.135315
    38  C   -0.053082
    39  C   -0.089970
    40  C   -0.124385
    41  H    0.069787
    42  H    0.085215
    43  H    0.065048
    44  H    0.096433
    45  H    0.105514
    46  H    0.097014
    47  H    0.092342
    48  H    0.106515
    49  H    0.086695
    50  H    0.103708
    51  H    0.108294
    52  H    0.084116
    53  H    0.108848
    54  H    0.102203
    55  H    0.104839
    56  H    0.093287
    57  H    0.107676
    58  H    0.064663
    59  H    0.079759
    60  H    0.093526
    61  H    0.109638
    62  H    0.100988
    63  H    0.094733
    64  H    0.070551
    65  H    0.066859
    66  H    0.088601
    67  H    0.131651
    68  H    0.102094
    69  H    0.107544
    70  H    0.106309
    71  H    0.112032
    72  H    0.110772
    73  H    0.071574
    74  H    0.088578
    75  H    0.135090
    76  H    0.097541
    77  H    0.097666
    78  H    0.133443
    79  H    0.109920
    80  H    0.088209
    81  H    0.070363
    82  H    0.068843
    83  H    0.088352
    84  H    0.039144
    85  H    0.072212
    86  H    0.065293
    87  H    0.106978
    88  H    0.115135
    89  H    0.102634
    90  H    0.106235
    91  H    0.079707
    92  H    0.107124
    93  H    0.075037
    94  H    0.049840
    95  H    0.084036
    96  H    0.067402
 Sum of Mulliken charges =  -0.00000

 Dipole moment (field-independent basis, Debye):
    X=             -0.7855    Y=             -0.2970    Z=              0.2740  Tot=              0.8833
 Quadrupole moment (field-independent basis, Debye-Ang):
   XX=           -220.9718   YY=           -239.2099   ZZ=           -253.4765
   XY=             -9.6354   XZ=             -5.0552   YZ=             -1.2962

 Normal termination of Gaussian 16 at Tue Jul 30 16:20:19 2019.
