 Gaussian 16, Revision A.03,
 Gaussian 16:  ES64L-G16RevA.03 25-Dec-2016

 ---------------------------------
 # td=(NStates=1) B3LYP/6-31G(d,p)
 ---------------------------------

 --
 TD
 --
 Symbolic Z-matrix:
 Charge =  0 Multiplicity = 1

                         Standard orientation:
 ---------------------------------------------------------------------
 Center     Atomic      Atomic             Coordinates (Angstroms)
 Number     Number       Type             X           Y           Z
 ---------------------------------------------------------------------
      1          6           0       12.058773    0.472459   -0.828428
      2          6           0      -12.121080   -0.093351    0.871006
      3          6           0       13.409520   -0.239628   -0.711766
      4          6           0      -13.056775    0.990155    1.302036
      5          6           0       13.170853   -1.809320   -0.362314
      6          6           0      -13.373872    1.979983    0.206664
      7          6           0       11.020656    0.044516    0.243321
      8          6           0      -10.944868    0.541546   -0.037477
      9          6           0       12.398025   -1.951356    0.920605
     10          6           0      -12.090635    2.743770   -0.277717
     11          6           0       11.184494   -1.042464    1.072744
     12          6           0      -10.951061    1.742530   -0.658990
     13          6           0       11.541444    0.356148   -2.236903
     14          6           0       12.555765    1.957174   -0.554319
     15          6           0      -12.887188   -1.108042   -0.101394
     16          6           0      -11.591723   -0.924169    2.051684
     17          6           0        9.741692    0.885541    0.343008
     18          6           0       -9.810561   -0.450416   -0.236920
     19          6           0       10.254824   -1.637659    2.102077
     20          6           0       -9.865509    2.273799   -1.551394
     21          6           0        8.479721    0.460279    0.371526
     22          6           0       -8.588616   -0.267039   -0.273510
     23          6           0        7.346222    1.222820    0.620591
     24          6           0       -7.470343   -1.201761   -0.408215
     25          6           0        7.550721    2.755658    0.640002
     26          6           0       -7.928508   -2.680101   -0.619042
     27          6           0        6.134722    0.693397    0.398351
     28          6           0       -6.220700   -0.804625   -0.310285
     29          6           0        4.851531    1.382377    0.353790
     30          6           0       -4.954185   -1.700455   -0.402138
     31          6           0        3.653384    0.607287    0.248138
     32          6           0       -3.725848   -1.139279   -0.308562
     33          6           0        2.324772    1.236908    0.099341
     34          6           0       -2.491626   -1.917988   -0.453016
     35          6           0        2.219204    2.741125    0.377651
     36          6           0       -2.603684   -3.336819   -0.881149
     37          6           0        1.112129    0.516625    0.028003
     38          6           0       -1.296552   -1.120787   -0.389979
     39          6           0        1.110406   -0.836735   -0.308381
     40          6           0        0.067039   -1.686933   -0.360719
     41          1           0       13.932709    0.234166    0.122367
     42          1           0       14.148809   -0.098932   -1.615726
     43          1           0      -12.512501    1.499931    2.288547
     44          1           0      -13.956212    0.586037    1.603672
     45          1           0       14.233968   -2.174108   -0.478421
     46          1           0       12.438384   -2.306869   -1.005343
     47          1           0      -14.175216    2.690355    0.539616
     48          1           0      -13.774569    1.273530   -0.785890
     49          1           0       12.889932   -1.658924    1.811907
     50          1           0       12.171407   -3.120999    1.050266
     51          1           0      -11.541508    3.424204    0.860057
     52          1           0      -12.341376    3.423732   -1.097737
     53          1           0       11.626160   -0.674189   -2.753750
     54          1           0       12.252144    0.918356   -2.879506
     55          1           0       10.585835    0.823015   -2.529886
     56          1           0       12.912103    2.040565    0.507235
     57          1           0       11.719251    2.740059   -0.653188
     58          1           0       13.263409    2.373484   -1.181184
     59          1           0      -13.313916   -0.684017   -0.981553
     60          1           0      -13.555476   -1.697820    0.528126
     61          1           0      -12.412472   -2.018956   -0.283609
     62          1           0      -11.141875   -0.092286    2.635564
     63          1           0      -10.943006   -1.602075    1.457478
     64          1           0      -12.589627   -1.425146    2.526922
     65          1           0       10.013623    1.912419    0.580644
     66          1           0      -10.188393   -1.386773   -0.493325
     67          1           0        9.481595   -0.675297    2.518870
     68          1           0       10.660764   -1.973172    3.027900
     69          1           0        9.529999   -2.314247    1.597278
     70          1           0       -9.344765    1.432623   -2.023820
     71          1           0       -9.145744    2.824570   -1.079420
     72          1           0      -10.294407    2.944958   -2.304888
     73          1           0        8.377634   -0.587612    0.197198
     74          1           0       -8.133655    0.728762    0.061198
     75          1           0        8.156129    2.922562    1.470680
     76          1           0        6.585104    3.269301    0.891444
     77          1           0        8.010278    3.302811   -0.201181
     78          1           0       -8.493519   -2.780541   -1.485019
     79          1           0       -8.807362   -3.017262    0.207550
     80          1           0       -7.204980   -3.415738   -0.514290
     81          1           0        6.204796   -0.499671    0.119010
     82          1           0       -6.120201    0.167337    0.101363
     83          1           0        4.694031    2.487409    0.581642
     84          1           0       -5.012377   -2.671021   -0.416620
     85          1           0        3.672868   -0.435740    0.197768
     86          1           0       -3.702833   -0.219723   -0.132386
     87          1           0        2.542096    3.163340    1.489378
     88          1           0        1.242747    3.167101    0.293472
     89          1           0        3.025140    3.137328   -0.265197
     90          1           0       -3.370471   -3.502645   -1.728656
     91          1           0       -2.877898   -3.898366    0.039534
     92          1           0       -1.576462   -3.509746   -1.110606
     93          1           0        0.198349    1.041259   -0.084077
     94          1           0       -1.511809    0.057439   -0.081989
     95          1           0        2.018706   -1.427945   -0.366820
     96          1           0        0.179271   -2.647844   -0.640111
 ---------------------------------------------------------------------

 SCF Done:  E(RB3LYP) =  -1557.55249300     A.U. after   15 cycles

 Excitation energies and oscillator strengths:

 Excited State   1:      Singlet-A      2.3213 eV  534.12 nm  f=2.5298  <S**2>=0.000
     148 ->149         0.70189
 This state for optimization and/or second-order correction.
 Total Energy, E(TD-HF/TD-DFT) =  -1557.46718687
 Copying the excited state density for this state as the 1-particle RhoCI density.

 The electronic state is 1-A.
 Alpha  occ. eigenvalues --  -10.21133 -10.20957 -10.20845 -10.20666 -10.20354
 Alpha  occ. eigenvalues --  -10.20202 -10.20182 -10.20044 -10.19960 -10.19668
 Alpha  occ. eigenvalues --  -10.19611 -10.19423 -10.19380 -10.19228 -10.19190
 Alpha  occ. eigenvalues --  -10.19166 -10.19029 -10.18906 -10.18835 -10.18590
 Alpha  occ. eigenvalues --  -10.18556 -10.18482 -10.18454 -10.18360 -10.18356
 Alpha  occ. eigenvalues --  -10.18353 -10.18288 -10.18238 -10.18199 -10.17907
 Alpha  occ. eigenvalues --  -10.17872 -10.17787 -10.17564 -10.17434 -10.17406
 Alpha  occ. eigenvalues --  -10.17223 -10.16685 -10.16548 -10.16460 -10.16423
 Alpha  occ. eigenvalues --   -0.84413  -0.84396  -0.83455  -0.83012  -0.82438
 Alpha  occ. eigenvalues --   -0.81494  -0.79076  -0.78495  -0.78189  -0.76943
 Alpha  occ. eigenvalues --   -0.76348  -0.74525  -0.73835  -0.72584  -0.71565
 Alpha  occ. eigenvalues --   -0.69813  -0.68822  -0.68684  -0.68390  -0.67976
 Alpha  occ. eigenvalues --   -0.67932  -0.67374  -0.66672  -0.66069  -0.65949
 Alpha  occ. eigenvalues --   -0.62795  -0.61348  -0.59416  -0.58830  -0.56623
 Alpha  occ. eigenvalues --   -0.56164  -0.55984  -0.55378  -0.54905  -0.53429
 Alpha  occ. eigenvalues --   -0.52424  -0.51914  -0.50632  -0.49515  -0.48533
 Alpha  occ. eigenvalues --   -0.47793  -0.47525  -0.46863  -0.46626  -0.46265
 Alpha  occ. eigenvalues --   -0.45442  -0.44872  -0.44612  -0.44415  -0.43863
 Alpha  occ. eigenvalues --   -0.43689  -0.43284  -0.42726  -0.42566  -0.42282
 Alpha  occ. eigenvalues --   -0.42108  -0.41703  -0.41598  -0.41465  -0.40951
 Alpha  occ. eigenvalues --   -0.40676  -0.40472  -0.40440  -0.40346  -0.39519
 Alpha  occ. eigenvalues --   -0.39118  -0.38955  -0.38461  -0.38095  -0.37986
 Alpha  occ. eigenvalues --   -0.37691  -0.37237  -0.37171  -0.36604  -0.36403
 Alpha  occ. eigenvalues --   -0.36080  -0.35933  -0.35496  -0.35434  -0.35286
 Alpha  occ. eigenvalues --   -0.35077  -0.34872  -0.34767  -0.34239  -0.33562
 Alpha  occ. eigenvalues --   -0.33512  -0.33196  -0.33110  -0.32458  -0.32293
 Alpha  occ. eigenvalues --   -0.32114  -0.31794  -0.31657  -0.31410  -0.31101
 Alpha  occ. eigenvalues --   -0.30524  -0.29764  -0.29619  -0.29201  -0.28057
 Alpha  occ. eigenvalues --   -0.27344  -0.27159  -0.25944  -0.23938  -0.22679
 Alpha  occ. eigenvalues --   -0.21372  -0.19694  -0.16904
 Alpha virt. eigenvalues --   -0.08141  -0.04457  -0.01367   0.00537   0.02402
 Alpha virt. eigenvalues --    0.03340   0.05564   0.06685   0.07054   0.07205
 Alpha virt. eigenvalues --    0.07690   0.07995   0.08069   0.08488   0.08640

 Mulliken charges:
               1
     1  C    0.021655
     2  C   -0.024276
     3  C   -0.177399
     4  C   -0.127533
     5  C   -0.188422
     6  C   -0.174531
     7  C    0.030687
     8  C    0.075094
     9  C   -0.210620
    10  C   -0.161465
    11  C    0.060991
    12  C    0.047800
    13  C   -0.300203
    14  C   -0.320392
    15  C   -0.311039
    16  C   -0.277959
    17  C   -0.137059
    18  C   -0.145223
    19  C   -0.353032
    20  C   -0.362364
    21  C   -0.065695
    22  C   -0.079696
    23  C    0.112534
    24  C    0.158687
    25  C   -0.370627
    26  C   -0.373900
    27  C   -0.113613
    28  C   -0.171650
    29  C   -0.109426
    30  C   -0.086235
    31  C   -0.079463
    32  C   -0.038296
    33  C    0.077673
    34  C    0.078551
    35  C   -0.359892
    36  C   -0.365778
    37  C   -0.104917
    38  C   -0.123719
    39  C   -0.069213
    40  C   -0.099641
    41  H    0.095686
    42  H    0.077153
    43  H    0.055796
    44  H    0.093561
    45  H    0.086530
    46  H    0.105347
    47  H    0.091028
    48  H    0.062043
    49  H    0.112734
    50  H    0.079142
    51  H    0.022946
    52  H    0.094764
    53  H    0.091133
    54  H    0.091522
    55  H    0.106349
    56  H    0.098913
    57  H    0.075476
    58  H    0.113167
    59  H    0.111936
    60  H    0.084771
    61  H    0.099659
    62  H    0.108457
    63  H    0.109405
    64  H    0.082737
    65  H    0.085841
    66  H    0.080969
    67  H    0.067567
    68  H    0.120765
    69  H    0.127559
    70  H    0.121052
    71  H    0.129588
    72  H    0.094939
    73  H    0.072798
    74  H    0.060177
    75  H    0.125777
    76  H    0.093454
    77  H    0.125918
    78  H    0.131753
    79  H    0.076897
    80  H    0.113750
    81  H    0.067689
    82  H    0.078923
    83  H    0.098770
    84  H    0.065935
    85  H    0.085180
    86  H    0.044155
    87  H    0.089408
    88  H    0.113356
    89  H    0.118546
    90  H    0.122571
    91  H    0.126371
    92  H    0.112695
    93  H    0.087111
    94  H    0.071905
    95  H    0.072813
    96  H    0.085119
 Sum of Mulliken charges =  -0.00000

 Dipole moment (field-independent basis, Debye):
    X=              0.8423    Y=             -0.4327    Z=             -0.1490  Tot=              0.9586
 Quadrupole moment (field-independent basis, Debye-Ang):
   XX=           -225.8666   YY=           -235.4001   ZZ=           -255.7054
   XY=              6.1612   XZ=              3.4659   YZ=              1.5557

 Normal termination of Gaussian 16 at Fri Aug  2 01:32:01 2019.
