 Gaussian 16, Revision A.03,
 Gaussian 16:  ES64L-G16RevA.03 25-Dec-2016

 ---------------------------------
 # td=(NStates=1) B3LYP/6-31G(d,p)
 ---------------------------------

 --
 TD
 --
 Symbolic Z-matrix:
 Charge =  0 Multiplicity = 1

                         Standard orientation:
 ---------------------------------------------------------------------
 Center     Atomic      Atomic             Coordinates (Angstroms)
 Number     Number       Type             X           Y           Z
 ---------------------------------------------------------------------
      1          6           0       12.164163    0.475968   -0.578420
      2          6           0      -12.187171   -0.073830    0.975313
      3          6           0       13.407086   -0.408322   -0.395156
      4          6           0      -12.961948    1.044454    1.408688
      5          6           0       13.157325   -1.863458   -0.283499
      6          6           0      -13.434274    2.000070    0.318488
      7          6           0       11.011113   -0.016536    0.394564
      8          6           0      -10.968128    0.453894   -0.015147
      9          6           0       12.264654   -2.039967    0.887639
     10          6           0      -12.165435    2.649805   -0.276506
     11          6           0       11.107320   -1.200723    1.075948
     12          6           0      -11.043357    1.619420   -0.670424
     13          6           0       11.633153    0.270162   -2.029480
     14          6           0       12.584651    1.925397   -0.349677
     15          6           0      -12.912090   -1.152660    0.269055
     16          6           0      -11.362189   -0.623333    2.262293
     17          6           0        9.848141    0.826949    0.496572
     18          6           0       -9.925652   -0.570074   -0.167104
     19          6           0       10.162321   -1.521944    2.131635
     20          6           0      -10.015349    2.103308   -1.577655
     21          6           0        8.524095    0.529879    0.276780
     22          6           0       -8.594928   -0.359036   -0.155861
     23          6           0        7.391014    1.422579    0.293136
     24          6           0       -7.524316   -1.323432   -0.325923
     25          6           0        7.651287    2.919742    0.424275
     26          6           0       -8.051258   -2.695353   -0.776806
     27          6           0        6.160211    0.858941    0.173489
     28          6           0       -6.218837   -0.882081   -0.407762
     29          6           0        4.865918    1.495088    0.066103
     30          6           0       -5.016661   -1.721069   -0.516814
     31          6           0        3.707363    0.776270   -0.008334
     32          6           0       -3.795100   -1.195827   -0.441034
     33          6           0        2.416442    1.345646   -0.002658
     34          6           0       -2.537887   -1.830704   -0.543631
     35          6           0        2.177678    2.860217    0.150416
     36          6           0       -2.532319   -3.263357   -1.005084
     37          6           0        1.237395    0.581210   -0.126885
     38          6           0       -1.352266   -1.113543   -0.297555
     39          6           0        1.164269   -0.853235   -0.358390
     40          6           0        0.060512   -1.724696   -0.368647
     41          1           0       13.987986   -0.340566    0.555102
     42          1           0       14.153122   -0.060426   -1.238281
     43          1           0      -12.307327    1.541635    2.191119
     44          1           0      -13.821691    0.705217    1.793402
     45          1           0       14.302772   -2.212787    0.016183
     46          1           0       12.846684   -2.513666   -1.219268
     47          1           0      -14.180011    2.702449    0.613485
     48          1           0      -13.808313    1.444197   -0.348730
     49          1           0       12.851629   -2.068730    1.777314
     50          1           0       11.940324   -3.169513    0.923246
     51          1           0      -11.774592    3.413519    0.302615
     52          1           0      -12.492741    3.324265   -1.146066
     53          1           0       11.190240   -0.624850   -2.049216
     54          1           0       12.410094    0.534587   -2.679730
     55          1           0       10.914000    0.887332   -2.094675
     56          1           0       12.869594    2.268979    0.675895
     57          1           0       11.631748    2.678509   -0.557641
     58          1           0       13.343001    2.202430   -0.923991
     59          1           0      -13.321157   -0.849985   -0.687558
     60          1           0      -13.786106   -1.538839    0.811412
     61          1           0      -12.242011   -2.103042    0.154861
     62          1           0      -10.615464    0.027801    2.802832
     63          1           0      -10.817863   -1.641836    2.009503
     64          1           0      -11.969466   -0.989154    3.031505
     65          1           0        9.890741    1.849596    0.632731
     66          1           0      -10.277943   -1.610111   -0.455172
     67          1           0        9.451864   -0.769126    2.519429
     68          1           0       10.503235   -1.832168    3.173474
     69          1           0        9.476415   -2.528234    1.900524
     70          1           0       -9.529302    1.427608   -2.070703
     71          1           0       -9.502861    2.840146   -1.235362
     72          1           0      -10.647813    2.753075   -2.360383
     73          1           0        8.203546   -0.477282   -0.213293
     74          1           0       -8.193052    0.667308   -0.001710
     75          1           0        8.106107    3.260145    1.302079
     76          1           0        6.472432    3.459711    0.830731
     77          1           0        7.994457    3.459358   -0.494752
     78          1           0       -8.645898   -2.726919   -1.672017
     79          1           0       -8.490659   -3.215856   -0.054673
     80          1           0       -7.171969   -3.166664   -1.211706
     81          1           0        6.047446   -0.276331   -0.029303
     82          1           0       -6.038907    0.278628   -0.109647
     83          1           0        4.693303    2.523496    0.204623
     84          1           0       -4.981943   -2.826556   -0.640324
     85          1           0        3.916076   -0.269663   -0.296048
     86          1           0       -3.585520   -0.119146   -0.343103
     87          1           0        3.020665    3.155721    0.939735
     88          1           0        1.152167    3.090859    0.534306
     89          1           0        2.386776    3.332563   -0.969089
     90          1           0       -3.028242   -3.324196   -1.977201
     91          1           0       -3.148510   -3.957121   -0.322112
     92          1           0       -1.472654   -3.653436   -1.019097
     93          1           0        0.289987    1.132364   -0.102352
     94          1           0       -1.413489   -0.071497   -0.135622
     95          1           0        2.260547   -1.469539   -0.348556
     96          1           0        0.376874   -2.909185   -0.244383
 ---------------------------------------------------------------------

 SCF Done:  E(RB3LYP) =  -1557.55632810     A.U. after   15 cycles

 Excitation energies and oscillator strengths:

 Excited State   1:      Singlet-A      2.2087 eV  561.35 nm  f=2.7533  <S**2>=0.000
     148 ->149         0.70519
 This state for optimization and/or second-order correction.
 Total Energy, E(TD-HF/TD-DFT) =  -1557.47516001
 Copying the excited state density for this state as the 1-particle RhoCI density.

 The electronic state is 1-A.
 Alpha  occ. eigenvalues --  -10.21552 -10.21193 -10.20818 -10.20727 -10.20581
 Alpha  occ. eigenvalues --  -10.20356 -10.20320 -10.19991 -10.19862 -10.19684
 Alpha  occ. eigenvalues --  -10.19671 -10.19659 -10.19653 -10.19650 -10.19572
 Alpha  occ. eigenvalues --  -10.19124 -10.19085 -10.19022 -10.18787 -10.18769
 Alpha  occ. eigenvalues --  -10.18726 -10.18618 -10.18568 -10.18404 -10.18287
 Alpha  occ. eigenvalues --  -10.18277 -10.18118 -10.17909 -10.17852 -10.17799
 Alpha  occ. eigenvalues --  -10.17736 -10.17724 -10.17716 -10.17648 -10.17413
 Alpha  occ. eigenvalues --  -10.16708 -10.15796 -10.15721 -10.15250 -10.14174
 Alpha  occ. eigenvalues --   -0.85788  -0.84892  -0.83415  -0.82966  -0.81762
 Alpha  occ. eigenvalues --   -0.81230  -0.79393  -0.79063  -0.78471  -0.77470
 Alpha  occ. eigenvalues --   -0.76725  -0.75382  -0.74008  -0.72450  -0.72120
 Alpha  occ. eigenvalues --   -0.69756  -0.69041  -0.68742  -0.68349  -0.68219
 Alpha  occ. eigenvalues --   -0.67831  -0.67408  -0.67183  -0.66679  -0.65801
 Alpha  occ. eigenvalues --   -0.62892  -0.62163  -0.60163  -0.59030  -0.57066
 Alpha  occ. eigenvalues --   -0.56776  -0.55275  -0.54809  -0.53771  -0.52533
 Alpha  occ. eigenvalues --   -0.52024  -0.51199  -0.50120  -0.49920  -0.49639
 Alpha  occ. eigenvalues --   -0.48307  -0.47981  -0.46940  -0.46675  -0.46377
 Alpha  occ. eigenvalues --   -0.45806  -0.45367  -0.45164  -0.44785  -0.44214
 Alpha  occ. eigenvalues --   -0.43756  -0.43388  -0.43120  -0.43055  -0.42447
 Alpha  occ. eigenvalues --   -0.42339  -0.41742  -0.41557  -0.41198  -0.41032
 Alpha  occ. eigenvalues --   -0.40932  -0.40604  -0.40361  -0.40074  -0.39828
 Alpha  occ. eigenvalues --   -0.38931  -0.38465  -0.38393  -0.38361  -0.38170
 Alpha  occ. eigenvalues --   -0.37887  -0.37617  -0.37455  -0.36588  -0.36169
 Alpha  occ. eigenvalues --   -0.36014  -0.35711  -0.35649  -0.35538  -0.34986
 Alpha  occ. eigenvalues --   -0.34822  -0.34653  -0.34316  -0.34049  -0.33978
 Alpha  occ. eigenvalues --   -0.33411  -0.33306  -0.32992  -0.32841  -0.32146
 Alpha  occ. eigenvalues --   -0.31869  -0.31635  -0.31543  -0.31366  -0.31113
 Alpha  occ. eigenvalues --   -0.30589  -0.30045  -0.29908  -0.29088  -0.28634
 Alpha  occ. eigenvalues --   -0.28178  -0.27107  -0.25806  -0.24110  -0.22631
 Alpha  occ. eigenvalues --   -0.20975  -0.18888  -0.16613
 Alpha virt. eigenvalues --   -0.08116  -0.05088  -0.01725   0.00578   0.02593
 Alpha virt. eigenvalues --    0.04213   0.05211   0.05635   0.06359   0.06609
 Alpha virt. eigenvalues --    0.07589   0.07999   0.08359   0.08688   0.09069

 Mulliken charges:
               1
     1  C   -0.019506
     2  C    0.025542
     3  C   -0.144090
     4  C   -0.156044
     5  C   -0.187597
     6  C   -0.182168
     7  C    0.045863
     8  C    0.048299
     9  C   -0.234565
    10  C   -0.227479
    11  C    0.144730
    12  C    0.050239
    13  C   -0.269097
    14  C   -0.294410
    15  C   -0.308660
    16  C   -0.318564
    17  C   -0.159764
    18  C   -0.140321
    19  C   -0.371530
    20  C   -0.335376
    21  C   -0.079136
    22  C   -0.079685
    23  C    0.130581
    24  C    0.107832
    25  C   -0.367148
    26  C   -0.376101
    27  C   -0.133730
    28  C   -0.143478
    29  C   -0.068011
    30  C   -0.093712
    31  C   -0.087412
    32  C   -0.082842
    33  C    0.092391
    34  C    0.135917
    35  C   -0.351786
    36  C   -0.381730
    37  C   -0.114553
    38  C   -0.138416
    39  C   -0.076815
    40  C   -0.114900
    41  H    0.090217
    42  H    0.063050
    43  H    0.085453
    44  H    0.083843
    45  H    0.065723
    46  H    0.086320
    47  H    0.087278
    48  H    0.110485
    49  H    0.118161
    50  H    0.083737
    51  H    0.114272
    52  H    0.067052
    53  H    0.109601
    54  H    0.097341
    55  H    0.112402
    56  H    0.101968
    57  H    0.061157
    58  H    0.112255
    59  H    0.112746
    60  H    0.095454
    61  H    0.090974
    62  H    0.107211
    63  H    0.076996
    64  H    0.100243
    65  H    0.078323
    66  H    0.082545
    67  H    0.126521
    68  H    0.098467
    69  H    0.074041
    70  H    0.124579
    71  H    0.128489
    72  H    0.065958
    73  H    0.067400
    74  H    0.065488
    75  H    0.142387
    76  H    0.042499
    77  H    0.133498
    78  H    0.124622
    79  H    0.131601
    80  H    0.101324
    81  H    0.073618
    82  H    0.075463
    83  H    0.074251
    84  H    0.085777
    85  H    0.080444
    86  H    0.061985
    87  H    0.102391
    88  H    0.117750
    89  H    0.109586
    90  H    0.128333
    91  H    0.105577
    92  H    0.104019
    93  H    0.077806
    94  H    0.086536
    95  H    0.057435
    96  H    0.094576
 Sum of Mulliken charges =  -0.00000

 Dipole moment (field-independent basis, Debye):
    X=              0.5291    Y=              0.5603    Z=              0.0782  Tot=              0.7746
 Quadrupole moment (field-independent basis, Debye-Ang):
   XX=           -213.0121   YY=           -235.3030   ZZ=           -254.5162
   XY=              4.5398   XZ=              2.8685   YZ=              1.9271

 Normal termination of Gaussian 16 at Sat Jul 27 16:12:47 2019.
