 Gaussian 16, Revision A.03,
 Gaussian 16:  ES64L-G16RevA.03 25-Dec-2016

 ---------------------------------
 # td=(NStates=1) B3LYP/6-31G(d,p)
 ---------------------------------

 --
 TD
 --
 Symbolic Z-matrix:
 Charge =  0 Multiplicity = 1

                         Standard orientation:
 ---------------------------------------------------------------------
 Center     Atomic      Atomic             Coordinates (Angstroms)
 Number     Number       Type             X           Y           Z
 ---------------------------------------------------------------------
      1          6           0      -12.135039   -0.655469   -0.617737
      2          6           0       12.006138   -0.138022    0.916685
      3          6           0      -13.438333    0.258678   -0.614296
      4          6           0       12.902406   -1.215650    1.330004
      5          6           0      -13.090968    1.884454   -0.587027
      6          6           0       13.365868   -2.121950    0.172567
      7          6           0      -10.994692   -0.079012    0.303573
      8          6           0       10.930703   -0.489983   -0.054713
      9          6           0      -12.204777    2.117890    0.648263
     10          6           0       12.131779   -2.647303   -0.512296
     11          6           0      -11.133879    1.200517    0.927279
     12          6           0       11.041807   -1.636768   -0.635635
     13          6           0      -11.628567   -0.714743   -2.040215
     14          6           0      -12.668037   -2.053638   -0.163501
     15          6           0       12.943027    0.979759    0.238447
     16          6           0       11.538670    0.568549    2.260071
     17          6           0       -9.829366   -1.026047    0.467022
     18          6           0        9.864199    0.523893   -0.140746
     19          6           0      -10.103622    1.734749    1.961436
     20          6           0        9.951749   -2.072239   -1.652738
     21          6           0       -8.596194   -0.467485    0.431791
     22          6           0        8.504827    0.402873   -0.149696
     23          6           0       -7.275273   -1.302402    0.473936
     24          6           0        7.568519    1.360823   -0.330939
     25          6           0       -7.477504   -2.773193    0.627998
     26          6           0        7.974358    2.725465   -0.869537
     27          6           0       -6.128796   -0.749550    0.414909
     28          6           0        6.203919    0.964019   -0.306665
     29          6           0       -4.786430   -1.483992    0.272716
     30          6           0        4.999486    1.743934   -0.422166
     31          6           0       -3.667150   -0.653722    0.234834
     32          6           0        3.761936    1.195866   -0.408933
     33          6           0       -2.359189   -1.238780    0.004852
     34          6           0        2.513833    1.904812   -0.467104
     35          6           0       -2.154408   -2.793866    0.076150
     36          6           0        2.507971    3.419369   -0.706548
     37          6           0       -1.180905   -0.404821   -0.126671
     38          6           0        1.359172    1.266511   -0.277538
     39          6           0       -1.095560    1.020995   -0.241823
     40          6           0       -0.031540    1.851657   -0.315731
     41          1           0      -13.811262    0.033414    0.127639
     42          1           0      -14.183184    0.183363   -1.360285
     43          1           0       12.243055   -1.792456    2.047574
     44          1           0       13.812858   -0.711363    1.989518
     45          1           0      -14.159985    2.336570   -0.312337
     46          1           0      -12.551655    2.177970   -1.455647
     47          1           0       13.717536   -2.951981    0.868171
     48          1           0       14.190266   -1.667844   -0.424137
     49          1           0      -12.787351    2.279997    1.601263
     50          1           0      -11.791738    3.133823    0.569657
     51          1           0       11.651908   -3.598294   -0.125356
     52          1           0       12.360600   -2.954991   -1.627637
     53          1           0      -11.337098    0.189967   -2.629970
     54          1           0      -12.374499   -1.341029   -2.513925
     55          1           0      -10.823680   -1.419540   -2.111876
     56          1           0      -12.961361   -2.050946    0.881547
     57          1           0      -12.004304   -2.826947   -0.506717
     58          1           0      -13.527481   -2.167254   -0.660827
     59          1           0       13.532251    0.621957   -0.579622
     60          1           0       13.626848    1.337638    0.893641
     61          1           0       12.126735    1.659513   -0.234996
     62          1           0       10.780194   -0.056791    2.757649
     63          1           0       11.113255    1.539921    1.997643
     64          1           0       12.550104    0.765573    2.743961
     65          1           0      -10.008684   -2.098309    0.620486
     66          1           0        9.999822    1.607206   -0.511083
     67          1           0       -9.477391    0.958771    2.442760
     68          1           0      -10.627975    2.158426    2.802824
     69          1           0       -9.463673    2.370099    1.525002
     70          1           0        9.019964   -1.368566   -1.807265
     71          1           0        9.336886   -2.834780   -1.488276
     72          1           0       10.339898   -2.383126   -2.781577
     73          1           0       -8.416718    0.545170    0.258373
     74          1           0        8.006809   -0.657523    0.103515
     75          1           0       -7.673309   -2.805763    1.757875
     76          1           0       -6.637516   -3.422469    0.534683
     77          1           0       -8.312102   -3.263407    0.121052
     78          1           0        8.318598    2.653215   -2.002459
     79          1           0        8.650872    3.295760   -0.267437
     80          1           0        7.218240    3.618603   -0.807699
     81          1           0       -6.118816    0.282267    0.195480
     82          1           0        5.981188   -0.068151   -0.276395
     83          1           0       -4.775634   -2.578018    0.427014
     84          1           0        5.035467    2.957670   -0.257834
     85          1           0       -3.862015    0.409901    0.171047
     86          1           0        3.577978    0.051852   -0.348584
     87          1           0       -2.859186   -3.265650    1.080581
     88          1           0       -1.245842   -2.862513    0.340635
     89          1           0       -2.496903   -3.200464   -0.790434
     90          1           0        3.322223    3.618454   -1.549887
     91          1           0        2.915683    3.873291    0.212092
     92          1           0        1.536341    3.870195   -0.946543
     93          1           0       -0.467658   -1.225685   -0.607947
     94          1           0        1.351038    0.153268   -0.160933
     95          1           0       -1.868826    1.637014   -0.137645
     96          1           0       -0.231588    2.815925   -0.508030
 ---------------------------------------------------------------------

 SCF Done:  E(RB3LYP) =  -1557.51286390     A.U. after   15 cycles

 Excitation energies and oscillator strengths:

 Excited State   1:      Singlet-A      2.3309 eV  531.93 nm  f=2.7151  <S**2>=0.000
     148 ->149         0.70268
 This state for optimization and/or second-order correction.
 Total Energy, E(TD-HF/TD-DFT) =  -1557.42720666
 Copying the excited state density for this state as the 1-particle RhoCI density.

 The electronic state is 1-A.
 Alpha  occ. eigenvalues --  -10.21112 -10.20173 -10.20169 -10.19883 -10.19808
 Alpha  occ. eigenvalues --  -10.19803 -10.19621 -10.19450 -10.19439 -10.19325
 Alpha  occ. eigenvalues --  -10.19175 -10.19141 -10.19140 -10.19103 -10.19101
 Alpha  occ. eigenvalues --  -10.19085 -10.19067 -10.19065 -10.18896 -10.18814
 Alpha  occ. eigenvalues --  -10.18725 -10.18564 -10.18553 -10.18538 -10.18474
 Alpha  occ. eigenvalues --  -10.18377 -10.18217 -10.18215 -10.18150 -10.17956
 Alpha  occ. eigenvalues --  -10.17945 -10.17764 -10.17565 -10.17384 -10.16929
 Alpha  occ. eigenvalues --  -10.16562 -10.16530 -10.16281 -10.15855 -10.15165
 Alpha  occ. eigenvalues --   -0.85772  -0.83861  -0.83351  -0.82799  -0.82332
 Alpha  occ. eigenvalues --   -0.81190  -0.78960  -0.78862  -0.77850  -0.77094
 Alpha  occ. eigenvalues --   -0.76708  -0.75121  -0.73842  -0.72277  -0.71118
 Alpha  occ. eigenvalues --   -0.69424  -0.69133  -0.68937  -0.68314  -0.68251
 Alpha  occ. eigenvalues --   -0.67881  -0.67094  -0.66946  -0.66650  -0.66108
 Alpha  occ. eigenvalues --   -0.63058  -0.61691  -0.60079  -0.59289  -0.57335
 Alpha  occ. eigenvalues --   -0.56607  -0.55921  -0.55382  -0.54166  -0.53092
 Alpha  occ. eigenvalues --   -0.51978  -0.51367  -0.50587  -0.49450  -0.48828
 Alpha  occ. eigenvalues --   -0.48002  -0.47417  -0.47207  -0.46902  -0.46016
 Alpha  occ. eigenvalues --   -0.45651  -0.44956  -0.44725  -0.44419  -0.44006
 Alpha  occ. eigenvalues --   -0.43615  -0.43295  -0.42793  -0.42596  -0.42224
 Alpha  occ. eigenvalues --   -0.42065  -0.41828  -0.41390  -0.41245  -0.40965
 Alpha  occ. eigenvalues --   -0.40861  -0.40737  -0.40532  -0.39886  -0.39393
 Alpha  occ. eigenvalues --   -0.39178  -0.38929  -0.38610  -0.38472  -0.37887
 Alpha  occ. eigenvalues --   -0.37697  -0.37087  -0.37017  -0.36882  -0.36809
 Alpha  occ. eigenvalues --   -0.36187  -0.35854  -0.35781  -0.35552  -0.35250
 Alpha  occ. eigenvalues --   -0.34732  -0.34642  -0.34286  -0.33992  -0.33726
 Alpha  occ. eigenvalues --   -0.33548  -0.33067  -0.32901  -0.32729  -0.32440
 Alpha  occ. eigenvalues --   -0.32274  -0.32058  -0.31716  -0.31054  -0.30986
 Alpha  occ. eigenvalues --   -0.30124  -0.29494  -0.29255  -0.28595  -0.27955
 Alpha  occ. eigenvalues --   -0.27804  -0.27467  -0.25906  -0.23985  -0.22950
 Alpha  occ. eigenvalues --   -0.20652  -0.18961  -0.16808
 Alpha virt. eigenvalues --   -0.07858  -0.05136  -0.01638   0.00803   0.03146
 Alpha virt. eigenvalues --    0.04171   0.05431   0.06708   0.06743   0.07230
 Alpha virt. eigenvalues --    0.07554   0.08125   0.08507   0.09177   0.09249

 Mulliken charges:
               1
     1  C   -0.029038
     2  C   -0.037442
     3  C   -0.141367
     4  C   -0.158556
     5  C   -0.206232
     6  C   -0.187915
     7  C    0.041074
     8  C    0.129025
     9  C   -0.226913
    10  C   -0.225026
    11  C    0.063484
    12  C    0.064017
    13  C   -0.287844
    14  C   -0.326516
    15  C   -0.299174
    16  C   -0.283578
    17  C   -0.122990
    18  C   -0.156574
    19  C   -0.369861
    20  C   -0.367967
    21  C   -0.083686
    22  C   -0.078404
    23  C    0.139680
    24  C    0.134457
    25  C   -0.382410
    26  C   -0.385744
    27  C   -0.157379
    28  C   -0.129793
    29  C   -0.088432
    30  C   -0.088421
    31  C   -0.081017
    32  C   -0.102241
    33  C    0.033322
    34  C    0.150084
    35  C   -0.325217
    36  C   -0.373704
    37  C   -0.116650
    38  C   -0.140571
    39  C   -0.066231
    40  C   -0.093688
    41  H    0.085860
    42  H    0.085126
    43  H    0.079794
    44  H    0.055680
    45  H    0.079026
    46  H    0.110646
    47  H    0.096436
    48  H    0.108272
    49  H    0.096292
    50  H    0.098251
    51  H    0.112056
    52  H    0.094645
    53  H    0.101242
    54  H    0.088338
    55  H    0.094268
    56  H    0.109956
    57  H    0.097271
    58  H    0.118592
    59  H    0.093221
    60  H    0.099751
    61  H    0.087422
    62  H    0.100654
    63  H    0.100529
    64  H    0.086648
    65  H    0.097597
    66  H    0.087578
    67  H    0.114672
    68  H    0.101628
    69  H    0.126177
    70  H    0.094781
    71  H    0.124619
    72  H    0.066319
    73  H    0.083381
    74  H    0.058574
    75  H    0.118479
    76  H    0.107243
    77  H    0.115975
    78  H    0.121483
    79  H    0.124509
    80  H    0.091965
    81  H    0.069237
    82  H    0.078999
    83  H    0.090870
    84  H    0.073330
    85  H    0.088849
    86  H    0.074229
    87  H    0.069570
    88  H    0.125663
    89  H    0.141072
    90  H    0.102938
    91  H    0.124816
    92  H    0.111877
    93  H    0.073357
    94  H    0.078304
    95  H    0.072348
    96  H    0.075019
 Sum of Mulliken charges =  -0.00000

 Dipole moment (field-independent basis, Debye):
    X=             -2.7267    Y=             -0.4461    Z=             -0.2099  Tot=              2.7709
 Quadrupole moment (field-independent basis, Debye-Ang):
   XX=           -230.9166   YY=           -231.5768   ZZ=           -256.8070
   XY=              1.4104   XZ=             -3.3068   YZ=             -0.4687

 Normal termination of Gaussian 16 at Sat Jul 27 11:09:55 2019.
