 Gaussian 16, Revision A.03,
 Gaussian 16:  ES64L-G16RevA.03 25-Dec-2016

 ---------------------------------
 # td=(NStates=1) B3LYP/6-31G(d,p)
 ---------------------------------

 --
 TD
 --
 Symbolic Z-matrix:
 Charge =  0 Multiplicity = 1

                         Standard orientation:
 ---------------------------------------------------------------------
 Center     Atomic      Atomic             Coordinates (Angstroms)
 Number     Number       Type             X           Y           Z
 ---------------------------------------------------------------------
      1          6           0       12.203067    0.505877   -0.645533
      2          6           0      -12.093818   -0.057483    0.874901
      3          6           0       13.430654   -0.340966   -0.452514
      4          6           0      -13.002864    1.131752    1.375399
      5          6           0       13.198455   -1.797900   -0.445046
      6          6           0      -13.475840    2.072939    0.251183
      7          6           0       10.974031   -0.051393    0.247693
      8          6           0      -11.075650    0.483591    0.010109
      9          6           0       12.283012   -2.139030    0.756239
     10          6           0      -12.145708    2.659345   -0.337395
     11          6           0       11.040287   -1.205229    0.897715
     12          6           0      -11.061776    1.599247   -0.700768
     13          6           0       11.608139    0.462918   -2.094260
     14          6           0       12.577102    2.090726   -0.316391
     15          6           0      -12.926967   -1.078194    0.147808
     16          6           0      -11.499162   -0.750086    2.156825
     17          6           0        9.819173    0.929495    0.388239
     18          6           0       -9.923159   -0.540352   -0.267698
     19          6           0       10.122401   -1.727324    1.972126
     20          6           0      -10.137935    2.195552   -1.692370
     21          6           0        8.648572    0.495705    0.349513
     22          6           0       -8.566282   -0.422802   -0.304450
     23          6           0        7.371011    1.351426    0.399293
     24          6           0       -7.501986   -1.318063   -0.438027
     25          6           0        7.624084    2.818971    0.667556
     26          6           0       -7.973983   -2.836954   -0.731961
     27          6           0        6.187199    0.774775    0.232580
     28          6           0       -6.211071   -0.952033   -0.389904
     29          6           0        4.943366    1.374224    0.238776
     30          6           0       -5.077404   -1.803499   -0.452311
     31          6           0        3.793527    0.730227    0.238262
     32          6           0       -3.801808   -1.158741   -0.372704
     33          6           0        2.401122    1.377353    0.105311
     34          6           0       -2.526101   -1.747936   -0.448659
     35          6           0        2.269434    2.826916    0.368321
     36          6           0       -2.466026   -3.258072   -0.639378
     37          6           0        1.304662    0.576010   -0.026346
     38          6           0       -1.399383   -1.089741   -0.339778
     39          6           0        1.182248   -0.829365   -0.253668
     40          6           0       -0.084174   -1.591829   -0.478972
     41          1           0       13.863073   -0.027190    0.534713
     42          1           0       14.217754   -0.137783   -1.422156
     43          1           0      -12.473102    1.591180    2.374817
     44          1           0      -13.874550    0.984714    1.910203
     45          1           0       14.049681   -2.525993   -0.378639
     46          1           0       12.768493   -2.160761   -1.425333
     47          1           0      -14.145426    2.888912    0.517120
     48          1           0      -14.023094    1.484918   -0.491254
     49          1           0       12.827956   -2.046126    1.619148
     50          1           0       11.914969   -3.366867    0.667261
     51          1           0      -11.580154    3.308524    0.478146
     52          1           0      -12.528989    3.389413   -1.189669
     53          1           0       11.471814   -0.672053   -2.205898
     54          1           0       12.394713    0.961105   -2.593688
     55          1           0       10.681992    1.278973   -2.442684
     56          1           0       12.650563    2.182277    0.780838
     57          1           0       11.945984    2.905602   -0.618132
     58          1           0       13.857994    2.199656   -0.859082
     59          1           0      -13.569440   -0.605094   -0.819215
     60          1           0      -13.779244   -1.318549    0.838195
     61          1           0      -12.508727   -2.081826   -0.090581
     62          1           0      -10.819878   -0.221378    2.802932
     63          1           0      -11.115179   -1.630141    1.889127
     64          1           0      -12.367056   -0.960888    2.681932
     65          1           0       10.168891    1.917550    0.335327
     66          1           0      -10.335420   -1.422448   -0.420729
     67          1           0        9.522577   -0.924813    2.540115
     68          1           0       10.728704   -2.472644    2.768439
     69          1           0        9.331100   -2.367614    1.579136
     70          1           0       -9.462509    1.385675   -2.308971
     71          1           0       -9.407659    2.961300   -1.251035
     72          1           0      -10.701429    2.765189   -2.571640
     73          1           0        8.557756   -0.579783    0.283579
     74          1           0       -8.084291    0.629775    0.093854
     75          1           0        8.323371    3.008475    1.497930
     76          1           0        6.681542    3.295980    0.891495
     77          1           0        7.966615    3.438673   -0.309343
     78          1           0       -8.307966   -2.920941   -1.836991
     79          1           0       -8.478980   -3.153790    0.010927
     80          1           0       -7.180895   -3.756122   -0.903173
     81          1           0        6.248612   -0.261376   -0.029918
     82          1           0       -6.027715    0.096622   -0.099532
     83          1           0        5.117811    2.289485    0.436320
     84          1           0       -5.270560   -3.088133   -0.495428
     85          1           0        4.033334   -0.339266    0.043156
     86          1           0       -3.691890   -0.081169   -0.102268
     87          1           0        2.730683    3.091051    1.330400
     88          1           0        1.152442    3.214078    0.581776
     89          1           0        2.675618    3.461195   -0.293215
     90          1           0       -3.045764   -3.859843   -1.425624
     91          1           0       -2.934541   -3.837576    0.319328
     92          1           0       -1.307662   -3.626610   -0.507794
     93          1           0        0.396581    1.157568   -0.384091
     94          1           0       -1.483596    0.081027   -0.436930
     95          1           0        2.054897   -1.361610   -0.531982
     96          1           0       -0.012509   -2.720879   -0.459519
 ---------------------------------------------------------------------

 SCF Done:  E(RB3LYP) =  -1557.45555313     A.U. after   16 cycles

 Excitation energies and oscillator strengths:

 Excited State   1:      Singlet-A      2.2445 eV  552.39 nm  f=2.9590  <S**2>=0.000
     148 ->149         0.70285
     148 <-149        -0.12128
 This state for optimization and/or second-order correction.
 Total Energy, E(TD-HF/TD-DFT) =  -1557.37306869
 Copying the excited state density for this state as the 1-particle RhoCI density.

 The electronic state is 1-A.
 Alpha  occ. eigenvalues --  -10.21417 -10.21274 -10.20991 -10.20697 -10.20469
 Alpha  occ. eigenvalues --  -10.20219 -10.20208 -10.19865 -10.19863 -10.19827
 Alpha  occ. eigenvalues --  -10.19822 -10.19704 -10.19510 -10.19440 -10.19415
 Alpha  occ. eigenvalues --  -10.19360 -10.19333 -10.19310 -10.19273 -10.19204
 Alpha  occ. eigenvalues --  -10.19150 -10.18949 -10.18886 -10.18794 -10.18744
 Alpha  occ. eigenvalues --  -10.18700 -10.18626 -10.18557 -10.18520 -10.18474
 Alpha  occ. eigenvalues --  -10.18322 -10.18267 -10.18243 -10.18117 -10.17934
 Alpha  occ. eigenvalues --  -10.17439 -10.17287 -10.16965 -10.16440 -10.15812
 Alpha  occ. eigenvalues --   -0.85488  -0.84806  -0.83925  -0.83603  -0.82108
 Alpha  occ. eigenvalues --   -0.81500  -0.79551  -0.78314  -0.77415  -0.77127
 Alpha  occ. eigenvalues --   -0.76172  -0.75382  -0.74150  -0.72772  -0.71537
 Alpha  occ. eigenvalues --   -0.69758  -0.68983  -0.68577  -0.67951  -0.67254
 Alpha  occ. eigenvalues --   -0.66916  -0.66589  -0.66130  -0.66038  -0.65594
 Alpha  occ. eigenvalues --   -0.63459  -0.61812  -0.59721  -0.59137  -0.57672
 Alpha  occ. eigenvalues --   -0.57414  -0.56650  -0.54975  -0.53958  -0.53192
 Alpha  occ. eigenvalues --   -0.52228  -0.51473  -0.50357  -0.48927  -0.48433
 Alpha  occ. eigenvalues --   -0.48310  -0.47106  -0.46788  -0.46425  -0.46019
 Alpha  occ. eigenvalues --   -0.45832  -0.44925  -0.44460  -0.44076  -0.43861
 Alpha  occ. eigenvalues --   -0.43279  -0.42856  -0.42701  -0.42563  -0.42214
 Alpha  occ. eigenvalues --   -0.42076  -0.41691  -0.41419  -0.41077  -0.40865
 Alpha  occ. eigenvalues --   -0.40616  -0.39730  -0.39646  -0.39274  -0.39057
 Alpha  occ. eigenvalues --   -0.38975  -0.38495  -0.38250  -0.37902  -0.37655
 Alpha  occ. eigenvalues --   -0.37494  -0.37409  -0.36760  -0.36727  -0.36099
 Alpha  occ. eigenvalues --   -0.36018  -0.35905  -0.35810  -0.35585  -0.35237
 Alpha  occ. eigenvalues --   -0.34859  -0.34704  -0.34366  -0.34102  -0.33362
 Alpha  occ. eigenvalues --   -0.33221  -0.33078  -0.32709  -0.32422  -0.32324
 Alpha  occ. eigenvalues --   -0.31630  -0.31583  -0.31511  -0.31026  -0.30738
 Alpha  occ. eigenvalues --   -0.30510  -0.30414  -0.29206  -0.28492  -0.28126
 Alpha  occ. eigenvalues --   -0.27411  -0.27182  -0.26787  -0.24083  -0.23023
 Alpha  occ. eigenvalues --   -0.21481  -0.19687  -0.16536
 Alpha virt. eigenvalues --   -0.08447  -0.04440  -0.01594   0.01573   0.02738
 Alpha virt. eigenvalues --    0.04147   0.04851   0.05325   0.06153   0.07043
 Alpha virt. eigenvalues --    0.07519   0.07908   0.08032   0.08122   0.08490

 Mulliken charges:
               1
     1  C    0.000405
     2  C   -0.034584
     3  C   -0.156524
     4  C   -0.171457
     5  C   -0.186408
     6  C   -0.194730
     7  C    0.028457
     8  C    0.106874
     9  C   -0.214579
    10  C   -0.202444
    11  C    0.074802
    12  C    0.088996
    13  C   -0.269103
    14  C   -0.305263
    15  C   -0.292993
    16  C   -0.298555
    17  C   -0.080162
    18  C   -0.146214
    19  C   -0.364772
    20  C   -0.352053
    21  C   -0.081729
    22  C   -0.090908
    23  C    0.097045
    24  C    0.123031
    25  C   -0.379280
    26  C   -0.357064
    27  C   -0.120035
    28  C   -0.116442
    29  C    0.002630
    30  C   -0.077233
    31  C   -0.126923
    32  C   -0.136132
    33  C    0.097457
    34  C    0.191851
    35  C   -0.374236
    36  C   -0.371569
    37  C   -0.114984
    38  C   -0.119284
    39  C   -0.100668
    40  C   -0.121821
    41  H    0.100989
    42  H    0.057105
    43  H    0.061538
    44  H    0.089967
    45  H    0.091600
    46  H    0.094366
    47  H    0.093415
    48  H    0.103178
    49  H    0.123159
    50  H    0.052923
    51  H    0.093117
    52  H    0.064881
    53  H    0.102752
    54  H    0.105978
    55  H    0.074763
    56  H    0.110324
    57  H    0.116596
    58  H    0.044651
    59  H    0.080664
    60  H    0.099898
    61  H    0.108567
    62  H    0.112085
    63  H    0.106540
    64  H    0.103883
    65  H    0.073040
    66  H    0.077498
    67  H    0.111886
    68  H    0.077217
    69  H    0.121627
    70  H    0.093895
    71  H    0.114179
    72  H    0.094788
    73  H    0.081308
    74  H    0.050568
    75  H    0.123702
    76  H    0.113077
    77  H    0.100741
    78  H    0.119992
    79  H    0.135622
    80  H    0.066753
    81  H    0.063957
    82  H    0.081092
    83  H    0.038699
    84  H    0.082755
    85  H    0.078460
    86  H    0.079423
    87  H    0.125341
    88  H    0.094696
    89  H    0.132863
    90  H    0.122395
    91  H    0.089628
    92  H    0.083006
    93  H    0.078757
    94  H    0.071425
    95  H    0.092329
    96  H    0.082944
 Sum of Mulliken charges =  -0.00000

 Dipole moment (field-independent basis, Debye):
    X=             -0.5237    Y=              0.3108    Z=              0.6823  Tot=              0.9145
 Quadrupole moment (field-independent basis, Debye-Ang):
   XX=           -212.4142   YY=           -233.7161   ZZ=           -256.3824
   XY=              7.4950   XZ=             -1.5132   YZ=              1.7752

 Normal termination of Gaussian 16 at Sat Jul 27 06:01:23 2019.
