 Gaussian 16, Revision A.03,
 Gaussian 16:  ES64L-G16RevA.03 25-Dec-2016

 ---------------------------------
 # td=(NStates=1) B3LYP/6-31G(d,p)
 ---------------------------------

 --
 TD
 --
 Symbolic Z-matrix:
 Charge =  0 Multiplicity = 1

                         Standard orientation:
 ---------------------------------------------------------------------
 Center     Atomic      Atomic             Coordinates (Angstroms)
 Number     Number       Type             X           Y           Z
 ---------------------------------------------------------------------
      1          6           0       12.191956    0.521287   -0.694640
      2          6           0      -12.238700   -0.050091    0.862182
      3          6           0       13.478967   -0.285087   -0.593371
      4          6           0      -12.912409    1.345147    1.304639
      5          6           0       13.241955   -1.789100   -0.598109
      6          6           0      -13.384413    2.018809    0.091906
      7          6           0       11.092971   -0.131564    0.235592
      8          6           0      -10.992540    0.355216   -0.121936
      9          6           0       12.334299   -2.304607    0.628417
     10          6           0      -12.209295    2.575861   -0.617143
     11          6           0       11.194531   -1.380588    0.896335
     12          6           0      -11.116781    1.492505   -0.757853
     13          6           0       11.706436    0.792646   -2.031704
     14          6           0       12.451838    2.005772    0.016434
     15          6           0      -13.095880   -1.116944    0.333807
     16          6           0      -11.503231   -0.730766    2.178331
     17          6           0        9.873058    0.723095    0.443032
     18          6           0       -9.971397   -0.635790   -0.164849
     19          6           0       10.144722   -1.901907    1.837894
     20          6           0      -10.093027    1.883420   -1.723811
     21          6           0        8.563855    0.419048    0.387201
     22          6           0       -8.563019   -0.407225   -0.135558
     23          6           0        7.442064    1.318730    0.395925
     24          6           0       -7.550733   -1.348032   -0.210821
     25          6           0        7.599802    2.780909    0.687861
     26          6           0       -7.967717   -2.811477   -0.447711
     27          6           0        6.211863    0.755303    0.215186
     28          6           0       -6.200191   -0.964596   -0.277484
     29          6           0        4.886060    1.364294    0.375001
     30          6           0       -5.002889   -1.665618   -0.332307
     31          6           0        3.738528    0.773877    0.140190
     32          6           0       -3.784798   -1.036471   -0.274543
     33          6           0        2.424806    1.340325    0.200107
     34          6           0       -2.570550   -1.648106   -0.579783
     35          6           0        2.330492    2.803812    0.514512
     36          6           0       -2.579013   -3.170268   -0.886918
     37          6           0        1.261954    0.659788   -0.074513
     38          6           0       -1.394584   -0.948501   -0.400859
     39          6           0        1.135437   -0.700488   -0.456449
     40          6           0       -0.035591   -1.428561   -0.517632
     41          1           0       13.820461    0.091958    0.473156
     42          1           0       14.310472   -0.091229   -1.449825
     43          1           0      -12.294600    1.897744    2.007957
     44          1           0      -13.762576    1.073287    1.957963
     45          1           0       14.133038   -2.337260   -0.389191
     46          1           0       12.683782   -2.325644   -1.416721
     47          1           0      -14.003260    2.901602    0.389086
     48          1           0      -13.920840    1.511030   -0.528595
     49          1           0       13.093856   -2.385901    1.532766
     50          1           0       11.959733   -3.258374    0.353281
     51          1           0      -11.652686    3.531971   -0.212615
     52          1           0      -12.563924    3.014262   -1.550685
     53          1           0       11.384073   -0.151086   -2.614705
     54          1           0       12.403215    1.601655   -2.628325
     55          1           0       10.559998    1.178285   -1.959929
     56          1           0       12.716833    2.088148    1.023367
     57          1           0       11.651510    2.660981   -0.238594
     58          1           0       13.129954    2.680335   -0.501670
     59          1           0      -13.649800   -0.736992   -0.381098
     60          1           0      -13.777513   -1.436660    1.084663
     61          1           0      -12.373242   -1.911102   -0.161236
     62          1           0      -10.726856   -0.030196    2.703295
     63          1           0      -10.984022   -1.872173    2.049620
     64          1           0      -12.215402   -0.722804    2.931735
     65          1           0       10.103673    1.774718    0.609611
     66          1           0      -10.334027   -1.793284   -0.326350
     67          1           0        9.332338   -1.305269    2.197069
     68          1           0       10.617480   -2.337447    2.716929
     69          1           0        9.487465   -2.501061    1.187632
     70          1           0       -9.449162    0.957022   -2.175332
     71          1           0       -9.286662    2.445570   -1.287416
     72          1           0      -10.383284    2.693291   -2.628315
     73          1           0        8.216116   -0.703513    0.324786
     74          1           0       -8.182794    0.591066   -0.057250
     75          1           0        8.545121    3.056847    1.450797
     76          1           0        6.690056    3.317586    0.995934
     77          1           0        7.829036    3.309565   -0.174028
     78          1           0       -8.220199   -2.990499   -1.665022
     79          1           0       -8.990759   -3.139689    0.125675
     80          1           0       -7.058349   -3.342671   -0.224245
     81          1           0        6.113813   -0.398201    0.098654
     82          1           0       -6.102067    0.123571   -0.112471
     83          1           0        4.974866    2.329364    0.728028
     84          1           0       -5.058203   -2.695605   -0.449708
     85          1           0        3.786765   -0.485305    0.151126
     86          1           0       -3.683697    0.103301   -0.031893
     87          1           0        2.919662    3.121741    1.516718
     88          1           0        1.389126    3.356385    0.510684
     89          1           0        2.986243    3.368090   -0.340001
     90          1           0       -3.101258   -3.128022   -2.101482
     91          1           0       -3.196285   -3.721232   -0.285211
     92          1           0       -1.376851   -3.442125   -0.894092
     93          1           0        0.254382    1.329416   -0.183263
     94          1           0       -1.632460    0.109039   -0.141169
     95          1           0        2.096976   -1.331895   -0.332045
     96          1           0       -0.042268   -2.486946   -0.757380
 ---------------------------------------------------------------------

 SCF Done:  E(RB3LYP) =  -1557.54265121     A.U. after   15 cycles

 Excitation energies and oscillator strengths:

 Excited State   1:      Singlet-A      2.0488 eV  605.15 nm  f=3.2502  <S**2>=0.000
     148 ->149         0.70269
     148 <-149        -0.12350
 This state for optimization and/or second-order correction.
 Total Energy, E(TD-HF/TD-DFT) =  -1557.46735801
 Copying the excited state density for this state as the 1-particle RhoCI density.

 The electronic state is 1-A.
 Alpha  occ. eigenvalues --  -10.21151 -10.20945 -10.20445 -10.20367 -10.20359
 Alpha  occ. eigenvalues --  -10.20315 -10.20232 -10.20205 -10.20007 -10.19829
 Alpha  occ. eigenvalues --  -10.19825 -10.19796 -10.19729 -10.19665 -10.19640
 Alpha  occ. eigenvalues --  -10.19550 -10.19449 -10.19445 -10.19344 -10.19332
 Alpha  occ. eigenvalues --  -10.19281 -10.19137 -10.19075 -10.18920 -10.18720
 Alpha  occ. eigenvalues --  -10.18705 -10.18541 -10.18530 -10.18455 -10.18444
 Alpha  occ. eigenvalues --  -10.18323 -10.18242 -10.18117 -10.18112 -10.17971
 Alpha  occ. eigenvalues --  -10.17915 -10.17300 -10.16623 -10.16617 -10.16464
 Alpha  occ. eigenvalues --   -0.85187  -0.84229  -0.83895  -0.83459  -0.82180
 Alpha  occ. eigenvalues --   -0.81675  -0.79175  -0.78465  -0.78229  -0.78101
 Alpha  occ. eigenvalues --   -0.76823  -0.75600  -0.74307  -0.72237  -0.71486
 Alpha  occ. eigenvalues --   -0.69384  -0.68628  -0.68279  -0.68276  -0.67504
 Alpha  occ. eigenvalues --   -0.67428  -0.67012  -0.66630  -0.66223  -0.65668
 Alpha  occ. eigenvalues --   -0.63141  -0.62136  -0.60101  -0.59170  -0.57722
 Alpha  occ. eigenvalues --   -0.56072  -0.55321  -0.54627  -0.53765  -0.52648
 Alpha  occ. eigenvalues --   -0.52263  -0.51552  -0.50514  -0.49734  -0.48543
 Alpha  occ. eigenvalues --   -0.48258  -0.47406  -0.47100  -0.46427  -0.46083
 Alpha  occ. eigenvalues --   -0.45666  -0.45484  -0.44963  -0.44872  -0.44014
 Alpha  occ. eigenvalues --   -0.43699  -0.43072  -0.42822  -0.42441  -0.42103
 Alpha  occ. eigenvalues --   -0.42022  -0.41673  -0.41098  -0.40993  -0.40784
 Alpha  occ. eigenvalues --   -0.40425  -0.39932  -0.39738  -0.39630  -0.39157
 Alpha  occ. eigenvalues --   -0.38700  -0.38427  -0.38115  -0.37982  -0.37881
 Alpha  occ. eigenvalues --   -0.37472  -0.37229  -0.37011  -0.36906  -0.36227
 Alpha  occ. eigenvalues --   -0.36219  -0.35974  -0.35874  -0.35599  -0.35418
 Alpha  occ. eigenvalues --   -0.35309  -0.34738  -0.34419  -0.34395  -0.34112
 Alpha  occ. eigenvalues --   -0.33521  -0.33130  -0.32806  -0.32578  -0.32394
 Alpha  occ. eigenvalues --   -0.31765  -0.31760  -0.31548  -0.31458  -0.30741
 Alpha  occ. eigenvalues --   -0.30425  -0.29546  -0.29050  -0.28881  -0.28657
 Alpha  occ. eigenvalues --   -0.28004  -0.27127  -0.26173  -0.24170  -0.22999
 Alpha  occ. eigenvalues --   -0.21182  -0.18837  -0.16168
 Alpha virt. eigenvalues --   -0.08809  -0.05396  -0.02043   0.00702   0.02577
 Alpha virt. eigenvalues --    0.04128   0.05044   0.05746   0.06598   0.07071
 Alpha virt. eigenvalues --    0.07344   0.07630   0.08028   0.08370   0.08589

 Mulliken charges:
               1
     1  C    0.043999
     2  C   -0.014665
     3  C   -0.154408
     4  C   -0.187139
     5  C   -0.188837
     6  C   -0.170599
     7  C    0.043083
     8  C    0.087231
     9  C   -0.239297
    10  C   -0.215382
    11  C    0.069326
    12  C    0.097498
    13  C   -0.293820
    14  C   -0.339857
    15  C   -0.273163
    16  C   -0.301608
    17  C   -0.137202
    18  C   -0.145396
    19  C   -0.365768
    20  C   -0.377799
    21  C   -0.091301
    22  C   -0.092182
    23  C    0.151751
    24  C    0.126139
    25  C   -0.385222
    26  C   -0.349139
    27  C   -0.144470
    28  C   -0.127235
    29  C   -0.059406
    30  C   -0.076759
    31  C   -0.104784
    32  C   -0.108716
    33  C    0.147334
    34  C    0.121051
    35  C   -0.368637
    36  C   -0.331308
    37  C   -0.129551
    38  C   -0.103637
    39  C   -0.084104
    40  C   -0.101248
    41  H    0.088221
    42  H    0.076103
    43  H    0.106099
    44  H    0.076193
    45  H    0.098880
    46  H    0.098401
    47  H    0.080471
    48  H    0.117077
    49  H    0.084375
    50  H    0.109302
    51  H    0.092111
    52  H    0.100174
    53  H    0.097469
    54  H    0.085214
    55  H    0.087897
    56  H    0.112973
    57  H    0.104949
    58  H    0.088596
    59  H    0.106428
    60  H    0.106467
    61  H    0.088787
    62  H    0.081592
    63  H    0.071290
    64  H    0.099555
    65  H    0.082429
    66  H    0.074306
    67  H    0.123656
    68  H    0.108755
    69  H    0.117269
    70  H    0.099703
    71  H    0.121689
    72  H    0.065922
    73  H    0.063161
    74  H    0.076015
    75  H    0.093399
    76  H    0.115387
    77  H    0.141657
    78  H    0.092545
    79  H    0.099612
    80  H    0.109398
    81  H    0.063733
    82  H    0.066697
    83  H    0.073290
    84  H    0.078482
    85  H    0.060452
    86  H    0.073109
    87  H    0.097765
    88  H    0.116384
    89  H    0.094605
    90  H    0.080961
    91  H    0.138622
    92  H    0.088756
    93  H    0.075117
    94  H    0.069167
    95  H    0.077768
    96  H    0.076791
 Sum of Mulliken charges =  -0.00000

 Dipole moment (field-independent basis, Debye):
    X=             -0.0812    Y=              0.8446    Z=              0.5307  Tot=              1.0008
 Quadrupole moment (field-independent basis, Debye-Ang):
   XX=           -214.0545   YY=           -234.2045   ZZ=           -258.3883
   XY=             -5.2699   XZ=              2.6532   YZ=              1.9163

 Normal termination of Gaussian 16 at Wed Jul 31 02:48:50 2019.
