 Gaussian 16, Revision A.03,
 Gaussian 16:  ES64L-G16RevA.03 25-Dec-2016

 ---------------------------------
 # td=(NStates=1) B3LYP/6-31G(d,p)
 ---------------------------------

 --
 TD
 --
 Symbolic Z-matrix:
 Charge =  0 Multiplicity = 1

                         Standard orientation:
 ---------------------------------------------------------------------
 Center     Atomic      Atomic             Coordinates (Angstroms)
 Number     Number       Type             X           Y           Z
 ---------------------------------------------------------------------
      1          6           0       12.199926    0.558820   -0.535622
      2          6           0      -12.201045   -0.090487    0.797191
      3          6           0       13.565565   -0.319164   -0.493944
      4          6           0      -13.047539    1.160063    1.228957
      5          6           0       13.156466   -1.797098   -0.577175
      6          6           0      -13.393255    1.995852    0.083445
      7          6           0       11.065286   -0.051113    0.290099
      8          6           0      -11.021464    0.387773   -0.003409
      9          6           0       12.313500   -2.283637    0.586562
     10          6           0      -12.151637    2.706507   -0.477668
     11          6           0       11.128871   -1.248114    0.865127
     12          6           0      -11.002629    1.636174   -0.597539
     13          6           0       11.742876    0.838936   -2.023949
     14          6           0       12.663559    2.019686    0.024430
     15          6           0      -13.026478   -1.080183   -0.039005
     16          6           0      -11.666249   -0.834931    2.086852
     17          6           0        9.915655    0.903639    0.458747
     18          6           0       -9.921724   -0.572361   -0.268433
     19          6           0       10.067363   -1.856769    1.785101
     20          6           0       -9.842499    2.181506   -1.424806
     21          6           0        8.572085    0.450762    0.235452
     22          6           0       -8.535867   -0.367733   -0.046523
     23          6           0        7.438140    1.269221    0.428885
     24          6           0       -7.513970   -1.331900   -0.286458
     25          6           0        7.634674    2.774760    0.676903
     26          6           0       -7.931541   -2.630630   -0.790924
     27          6           0        6.142089    0.791243    0.154338
     28          6           0       -6.224671   -0.885810   -0.114604
     29          6           0        4.828039    1.334675    0.126136
     30          6           0       -5.025664   -1.651024   -0.401002
     31          6           0        3.634513    0.631696    0.062582
     32          6           0       -3.794220   -1.122295   -0.203341
     33          6           0        2.391405    1.275773    0.072887
     34          6           0       -2.524778   -1.750096   -0.380482
     35          6           0        2.235445    2.674941    0.401824
     36          6           0       -2.611249   -3.195986   -0.775957
     37          6           0        1.146795    0.519361    0.006994
     38          6           0       -1.331180   -1.195958   -0.185502
     39          6           0        1.058288   -0.818246   -0.267666
     40          6           0        0.006409   -1.583133   -0.294915
     41          1           0       14.087635   -0.135032    0.332304
     42          1           0       13.939470    0.141050   -1.564546
     43          1           0      -12.348143    1.781763    1.934858
     44          1           0      -13.795047    0.788202    1.841396
     45          1           0       14.182862   -2.248678   -0.571829
     46          1           0       12.660306   -1.982221   -1.440459
     47          1           0      -14.270700    2.838160    0.368113
     48          1           0      -13.894637    1.493276   -0.855719
     49          1           0       12.940525   -2.420474    1.499810
     50          1           0       11.690503   -3.244429    0.288457
     51          1           0      -11.737851    3.236416    0.312482
     52          1           0      -12.294722    3.387055   -1.424301
     53          1           0       11.618591   -0.168136   -2.579221
     54          1           0       12.404935    1.505200   -2.671566
     55          1           0       10.688710    1.340781   -2.132053
     56          1           0       12.910009    1.779765    1.157060
     57          1           0       11.723275    2.808053    0.212408
     58          1           0       13.346466    2.214741   -0.737790
     59          1           0      -13.230393   -0.578391   -1.153800
     60          1           0      -13.923057   -1.451776    0.450351
     61          1           0      -12.344182   -1.937576   -0.362439
     62          1           0      -11.149695   -0.093341    2.846581
     63          1           0      -10.988829   -1.584425    1.631745
     64          1           0      -12.714730   -1.209665    2.536391
     65          1           0       10.189240    1.782790    0.774618
     66          1           0      -10.219643   -1.572146   -0.386577
     67          1           0        9.380739   -1.045705    1.909281
     68          1           0       10.430864   -2.445566    2.600025
     69          1           0        9.753222   -2.788781    1.357729
     70          1           0       -9.037079    1.454068   -1.671919
     71          1           0       -9.354742    3.031647   -1.020378
     72          1           0      -10.260872    2.658918   -2.358551
     73          1           0        8.220685   -0.476213   -0.084234
     74          1           0       -8.208743    0.632979    0.136715
     75          1           0        8.405857    3.046522    1.519706
     76          1           0        6.664296    3.344938    0.935029
     77          1           0        8.358786    3.303511   -0.158569
     78          1           0       -8.496429   -2.587476   -1.664037
     79          1           0       -8.675569   -3.202866   -0.070163
     80          1           0       -7.063924   -3.526825   -0.811314
     81          1           0        6.183501   -0.265402   -0.094866
     82          1           0       -6.169509    0.061024    0.304752
     83          1           0        4.827922    2.402359    0.216049
     84          1           0       -5.018157   -2.637422   -0.616133
     85          1           0        3.616761   -0.382707   -0.289608
     86          1           0       -3.722350   -0.060648    0.104117
     87          1           0        2.717409    3.159078    1.402392
     88          1           0        1.164639    3.103972    0.206827
     89          1           0        2.870694    3.388972   -0.396884
     90          1           0       -3.264124   -3.271386   -1.714559
     91          1           0       -3.146772   -3.751103    0.014441
     92          1           0       -1.751472   -3.594459   -1.074713
     93          1           0        0.517370    1.294534    0.361893
     94          1           0       -1.482124   -0.074926    0.223288
     95          1           0        1.919542   -1.318511   -0.268080
     96          1           0        0.312951   -2.591815   -0.406056
 ---------------------------------------------------------------------

 SCF Done:  E(RB3LYP) =  -1557.57336684     A.U. after   17 cycles

 Excitation energies and oscillator strengths:

 Excited State   1:      Singlet-A      2.0153 eV  615.22 nm  f=3.0203  <S**2>=0.000
     147 ->149         0.12488
     148 ->149         0.70151
     148 <-149        -0.11681
 This state for optimization and/or second-order correction.
 Total Energy, E(TD-HF/TD-DFT) =  -1557.49930696
 Copying the excited state density for this state as the 1-particle RhoCI density.

 The electronic state is 1-A.
 Alpha  occ. eigenvalues --  -10.20967 -10.20525 -10.20423 -10.20309 -10.19891
 Alpha  occ. eigenvalues --  -10.19745 -10.19741 -10.19720 -10.19683 -10.19637
 Alpha  occ. eigenvalues --  -10.19498 -10.19387 -10.19241 -10.19227 -10.19122
 Alpha  occ. eigenvalues --  -10.19083 -10.19021 -10.18979 -10.18964 -10.18899
 Alpha  occ. eigenvalues --  -10.18890 -10.18877 -10.18828 -10.18773 -10.18740
 Alpha  occ. eigenvalues --  -10.18549 -10.18505 -10.18458 -10.18417 -10.18395
 Alpha  occ. eigenvalues --  -10.18390 -10.18155 -10.18054 -10.17963 -10.17935
 Alpha  occ. eigenvalues --  -10.17426 -10.17237 -10.17160 -10.17117 -10.16655
 Alpha  occ. eigenvalues --   -0.85025  -0.84663  -0.84076  -0.83613  -0.82635
 Alpha  occ. eigenvalues --   -0.81743  -0.80142  -0.77786  -0.77527  -0.77223
 Alpha  occ. eigenvalues --   -0.76980  -0.75645  -0.74849  -0.71527  -0.71330
 Alpha  occ. eigenvalues --   -0.70189  -0.68995  -0.68147  -0.67724  -0.67581
 Alpha  occ. eigenvalues --   -0.67192  -0.66637  -0.66417  -0.66357  -0.65961
 Alpha  occ. eigenvalues --   -0.63931  -0.62576  -0.59629  -0.59010  -0.57551
 Alpha  occ. eigenvalues --   -0.57120  -0.55717  -0.55544  -0.55087  -0.53726
 Alpha  occ. eigenvalues --   -0.52838  -0.52626  -0.50805  -0.50257  -0.49538
 Alpha  occ. eigenvalues --   -0.48555  -0.48088  -0.47738  -0.47195  -0.46393
 Alpha  occ. eigenvalues --   -0.45881  -0.45467  -0.44825  -0.44237  -0.43768
 Alpha  occ. eigenvalues --   -0.43398  -0.43084  -0.42931  -0.42718  -0.42161
 Alpha  occ. eigenvalues --   -0.41894  -0.41817  -0.41442  -0.40936  -0.40835
 Alpha  occ. eigenvalues --   -0.40444  -0.40107  -0.39800  -0.39690  -0.39493
 Alpha  occ. eigenvalues --   -0.39033  -0.38744  -0.38494  -0.38188  -0.37988
 Alpha  occ. eigenvalues --   -0.37869  -0.37451  -0.36940  -0.36836  -0.36518
 Alpha  occ. eigenvalues --   -0.36339  -0.36285  -0.36037  -0.35610  -0.35564
 Alpha  occ. eigenvalues --   -0.35001  -0.34906  -0.34792  -0.34656  -0.33978
 Alpha  occ. eigenvalues --   -0.33867  -0.33775  -0.33217  -0.33056  -0.32885
 Alpha  occ. eigenvalues --   -0.32414  -0.31858  -0.31313  -0.31107  -0.30856
 Alpha  occ. eigenvalues --   -0.30794  -0.30202  -0.30035  -0.28819  -0.27897
 Alpha  occ. eigenvalues --   -0.27507  -0.26244  -0.25990  -0.24175  -0.22967
 Alpha  occ. eigenvalues --   -0.21261  -0.18651  -0.16270
 Alpha virt. eigenvalues --   -0.08939  -0.05626  -0.02164   0.00844   0.02892
 Alpha virt. eigenvalues --    0.04031   0.05588   0.06117   0.06764   0.06915
 Alpha virt. eigenvalues --    0.07356   0.08015   0.08335   0.08507   0.09098

 Mulliken charges:
               1
     1  C   -0.034097
     2  C   -0.034107
     3  C   -0.160907
     4  C   -0.157921
     5  C   -0.180868
     6  C   -0.158434
     7  C    0.077283
     8  C    0.091317
     9  C   -0.218615
    10  C   -0.211764
    11  C    0.045500
    12  C    0.045730
    13  C   -0.310568
    14  C   -0.281750
    15  C   -0.285008
    16  C   -0.272343
    17  C   -0.124856
    18  C   -0.162037
    19  C   -0.354544
    20  C   -0.368575
    21  C   -0.103669
    22  C   -0.113067
    23  C    0.160466
    24  C    0.175826
    25  C   -0.375541
    26  C   -0.388558
    27  C   -0.144173
    28  C   -0.130711
    29  C   -0.076288
    30  C   -0.062362
    31  C   -0.098230
    32  C   -0.110366
    33  C    0.113105
    34  C    0.149063
    35  C   -0.389420
    36  C   -0.378139
    37  C   -0.076894
    38  C   -0.134131
    39  C   -0.076158
    40  C   -0.076417
    41  H    0.103842
    42  H    0.075215
    43  H    0.080905
    44  H    0.091658
    45  H    0.083364
    46  H    0.109791
    47  H    0.048433
    48  H    0.089705
    49  H    0.103383
    50  H    0.088137
    51  H    0.127152
    52  H    0.090936
    53  H    0.089718
    54  H    0.091870
    55  H    0.101042
    56  H    0.092245
    57  H    0.067881
    58  H    0.114621
    59  H    0.082834
    60  H    0.105414
    61  H    0.093777
    62  H    0.095089
    63  H    0.105008
    64  H    0.075643
    65  H    0.082716
    66  H    0.077686
    67  H    0.122781
    68  H    0.106540
    69  H    0.104224
    70  H    0.115380
    71  H    0.116514
    72  H    0.093574
    73  H    0.089638
    74  H    0.082121
    75  H    0.099659
    76  H    0.103608
    77  H    0.099738
    78  H    0.140239
    79  H    0.103265
    80  H    0.082867
    81  H    0.060831
    82  H    0.078390
    83  H    0.076534
    84  H    0.074791
    85  H    0.086994
    86  H    0.063914
    87  H    0.111539
    88  H    0.105898
    89  H    0.086127
    90  H    0.102927
    91  H    0.120974
    92  H    0.110921
    93  H    0.079151
    94  H    0.057141
    95  H    0.075710
    96  H    0.072175
 Sum of Mulliken charges =  -0.00000

 Dipole moment (field-independent basis, Debye):
    X=             -0.0018    Y=             -0.4126    Z=              0.1063  Tot=              0.4261
 Quadrupole moment (field-independent basis, Debye-Ang):
   XX=           -227.2870   YY=           -235.8023   ZZ=           -256.0841
   XY=             -4.6959   XZ=              1.3637   YZ=              2.4763

 Normal termination of Gaussian 16 at Wed Jul 31 08:46:48 2019.
