 Gaussian 16, Revision A.03,
 Gaussian 16:  ES64L-G16RevA.03 25-Dec-2016

 ---------------------------------
 # td=(NStates=1) B3LYP/6-31G(d,p)
 ---------------------------------

 --
 TD
 --
 Symbolic Z-matrix:
 Charge =  0 Multiplicity = 1

                         Standard orientation:
 ---------------------------------------------------------------------
 Center     Atomic      Atomic             Coordinates (Angstroms)
 Number     Number       Type             X           Y           Z
 ---------------------------------------------------------------------
      1          6           0      -12.046766   -0.650817   -0.699331
      2          6           0       12.107146   -0.072170    0.811696
      3          6           0      -13.382680    0.175708   -0.786730
      4          6           0       13.041568   -1.295806    1.196970
      5          6           0      -13.149077    1.706746   -0.803341
      6          6           0       13.433716   -2.126850   -0.057758
      7          6           0      -11.010120   -0.012163    0.157272
      8          6           0       10.939545   -0.470980   -0.165122
      9          6           0      -12.276783    2.059176    0.418366
     10          6           0       12.064632   -2.678643   -0.694875
     11          6           0      -11.079404    1.259737    0.728678
     12          6           0       10.973280   -1.646346   -0.794181
     13          6           0      -11.559695   -0.765168   -2.164454
     14          6           0      -12.495512   -2.076514   -0.313948
     15          6           0       12.906103    1.043840    0.119843
     16          6           0       11.480044    0.533373    2.168722
     17          6           0       -9.824740   -0.835000    0.372649
     18          6           0        9.880419    0.523277   -0.270147
     19          6           0      -10.061216    1.807117    1.694175
     20          6           0        9.840111   -2.097607   -1.815057
     21          6           0       -8.571616   -0.451574    0.279826
     22          6           0        8.566238    0.375870   -0.384982
     23          6           0       -7.351649   -1.276103    0.498082
     24          6           0        7.560741    1.386387   -0.455701
     25          6           0       -7.515175   -2.753132    0.974443
     26          6           0        7.941955    2.760517   -0.545241
     27          6           0       -6.176846   -0.779333    0.249573
     28          6           0        6.281886    0.973355   -0.258868
     29          6           0       -4.865952   -1.357607    0.322945
     30          6           0        4.967345    1.751380   -0.366397
     31          6           0       -3.669837   -0.752817    0.410804
     32          6           0        3.837663    1.153154   -0.269879
     33          6           0       -2.327720   -1.188197    0.505056
     34          6           0        2.450184    1.853960   -0.327811
     35          6           0       -2.251527   -2.707413    0.706198
     36          6           0        2.500308    3.447617   -0.450578
     37          6           0       -1.261537   -0.369151    0.396049
     38          6           0        1.348963    1.155638   -0.202345
     39          6           0       -1.154838    0.950917    0.124878
     40          6           0       -0.016767    1.733080   -0.196829
     41          1           0      -13.979621   -0.185068    0.053497
     42          1           0      -13.984457    0.065594   -1.655839
     43          1           0       12.500810   -1.931270    1.984651
     44          1           0       13.847250   -0.695804    1.539025
     45          1           0      -14.051067    2.297648   -0.809430
     46          1           0      -12.558784    1.972619   -1.768165
     47          1           0       14.089343   -2.990997    0.154521
     48          1           0       13.779453   -1.489277   -0.964462
     49          1           0      -13.062016    2.087637    1.216216
     50          1           0      -12.123438    3.223252    0.277366
     51          1           0       11.864887   -3.507920   -0.136477
     52          1           0       12.226830   -2.997490   -1.753843
     53          1           0      -11.300521    0.299278   -2.488995
     54          1           0      -12.311328   -1.181518   -2.684710
     55          1           0      -10.715880   -1.325224   -2.188870
     56          1           0      -13.061300   -2.116727    0.598122
     57          1           0      -11.725637   -2.834492   -0.518317
     58          1           0      -13.442736   -2.335819   -0.837305
     59          1           0       13.099633    0.705525   -1.028924
     60          1           0       13.810754    1.514426    0.520225
     61          1           0       12.528425    1.887305   -0.179961
     62          1           0       10.626438   -0.035501    2.468713
     63          1           0       11.101529    1.572604    2.036301
     64          1           0       12.150703    0.821074    3.116517
     65          1           0      -10.134097   -1.775766    0.629145
     66          1           0       10.174605    1.521687   -0.587768
     67          1           0       -9.567241    0.897783    2.090111
     68          1           0      -10.488386    2.279792    2.528224
     69          1           0       -9.418879    2.506429    1.258935
     70          1           0        9.196876   -1.335198   -2.044615
     71          1           0        9.226911   -2.887748   -1.403518
     72          1           0       10.176628   -2.734462   -2.597036
     73          1           0       -8.226767    0.723119    0.294596
     74          1           0        8.156454   -0.746749   -0.445954
     75          1           0       -8.020332   -2.764884    2.150796
     76          1           0       -6.474635   -3.278678    1.070649
     77          1           0       -8.200717   -3.404067    0.444504
     78          1           0        8.675118    2.968781   -1.470660
     79          1           0        8.515891    3.162653    0.364452
     80          1           0        7.042737    3.570361   -0.509867
     81          1           0       -6.234583    0.397921   -0.218370
     82          1           0        5.917816   -0.122749   -0.220763
     83          1           0       -4.923339   -2.616709    0.509729
     84          1           0        5.162923    2.715762   -0.694868
     85          1           0       -3.846947    0.398740    0.298220
     86          1           0        3.800765    0.124917   -0.099423
     87          1           0       -2.807675   -3.059129    1.638291
     88          1           0       -1.179877   -2.857614    0.622973
     89          1           0       -2.560702   -3.327649   -0.075940
     90          1           0        3.085718    3.588218   -1.408548
     91          1           0        3.003254    3.910450    0.439755
     92          1           0        1.564130    4.124420   -0.386570
     93          1           0       -0.372439   -0.876141    0.440266
     94          1           0        1.384465   -0.006899   -0.027001
     95          1           0       -2.085145    1.521477    0.204206
     96          1           0       -0.286164    2.837328   -0.419699
 ---------------------------------------------------------------------

 SCF Done:  E(RB3LYP) =  -1557.59007478     A.U. after   15 cycles

 Excitation energies and oscillator strengths:

 Excited State   1:      Singlet-A      2.5617 eV  483.99 nm  f=2.7178  <S**2>=0.000
     148 ->149         0.69682
 This state for optimization and/or second-order correction.
 Total Energy, E(TD-HF/TD-DFT) =  -1557.49593293
 Copying the excited state density for this state as the 1-particle RhoCI density.

 The electronic state is 1-A.
 Alpha  occ. eigenvalues --  -10.21026 -10.20871 -10.20723 -10.20703 -10.20611
 Alpha  occ. eigenvalues --  -10.20439 -10.20193 -10.19960 -10.19908 -10.19736
 Alpha  occ. eigenvalues --  -10.19709 -10.19643 -10.19627 -10.19486 -10.19466
 Alpha  occ. eigenvalues --  -10.19202 -10.19040 -10.18901 -10.18816 -10.18747
 Alpha  occ. eigenvalues --  -10.18718 -10.18643 -10.18315 -10.18268 -10.18179
 Alpha  occ. eigenvalues --  -10.18164 -10.18160 -10.18037 -10.18030 -10.17807
 Alpha  occ. eigenvalues --  -10.17777 -10.17642 -10.17558 -10.17507 -10.17248
 Alpha  occ. eigenvalues --  -10.16983 -10.16729 -10.16498 -10.16450 -10.15205
 Alpha  occ. eigenvalues --   -0.85072  -0.84424  -0.83983  -0.83114  -0.82274
 Alpha  occ. eigenvalues --   -0.81575  -0.79041  -0.78575  -0.77752  -0.77313
 Alpha  occ. eigenvalues --   -0.76635  -0.75572  -0.73999  -0.72317  -0.72001
 Alpha  occ. eigenvalues --   -0.69719  -0.68753  -0.68527  -0.68326  -0.68249
 Alpha  occ. eigenvalues --   -0.67704  -0.67368  -0.66893  -0.66653  -0.66577
 Alpha  occ. eigenvalues --   -0.62987  -0.61765  -0.59960  -0.59121  -0.57536
 Alpha  occ. eigenvalues --   -0.56883  -0.56538  -0.55686  -0.54734  -0.53092
 Alpha  occ. eigenvalues --   -0.51991  -0.50425  -0.49916  -0.49713  -0.48887
 Alpha  occ. eigenvalues --   -0.48293  -0.47151  -0.46884  -0.46394  -0.46148
 Alpha  occ. eigenvalues --   -0.45670  -0.45089  -0.44896  -0.44593  -0.43538
 Alpha  occ. eigenvalues --   -0.43346  -0.43236  -0.42965  -0.42494  -0.42299
 Alpha  occ. eigenvalues --   -0.42169  -0.42133  -0.41620  -0.41554  -0.41103
 Alpha  occ. eigenvalues --   -0.40829  -0.40612  -0.40264  -0.39855  -0.39789
 Alpha  occ. eigenvalues --   -0.39658  -0.39367  -0.38544  -0.37995  -0.37609
 Alpha  occ. eigenvalues --   -0.37453  -0.37366  -0.37183  -0.36794  -0.36489
 Alpha  occ. eigenvalues --   -0.36337  -0.35679  -0.35400  -0.35180  -0.34937
 Alpha  occ. eigenvalues --   -0.34880  -0.34844  -0.34214  -0.34099  -0.33795
 Alpha  occ. eigenvalues --   -0.33535  -0.33314  -0.32681  -0.32647  -0.32331
 Alpha  occ. eigenvalues --   -0.32230  -0.31405  -0.31113  -0.30597  -0.30305
 Alpha  occ. eigenvalues --   -0.29938  -0.29779  -0.29416  -0.29252  -0.28493
 Alpha  occ. eigenvalues --   -0.28030  -0.27705  -0.26754  -0.24438  -0.23388
 Alpha  occ. eigenvalues --   -0.20991  -0.19710  -0.17531
 Alpha virt. eigenvalues --   -0.07605  -0.04282  -0.01872   0.01119   0.02804
 Alpha virt. eigenvalues --    0.04497   0.05424   0.06294   0.07164   0.07554
 Alpha virt. eigenvalues --    0.07930   0.08149   0.08457   0.08641   0.09235

 Mulliken charges:
               1
     1  C   -0.024178
     2  C    0.005757
     3  C   -0.177395
     4  C   -0.157666
     5  C   -0.192698
     6  C   -0.198756
     7  C    0.076125
     8  C    0.052614
     9  C   -0.227439
    10  C   -0.237483
    11  C    0.086039
    12  C    0.068874
    13  C   -0.272567
    14  C   -0.324755
    15  C   -0.303982
    16  C   -0.318828
    17  C   -0.146418
    18  C   -0.128876
    19  C   -0.372799
    20  C   -0.369474
    21  C   -0.091320
    22  C   -0.095113
    23  C    0.161027
    24  C    0.166320
    25  C   -0.355578
    26  C   -0.392482
    27  C   -0.125228
    28  C   -0.149875
    29  C   -0.083337
    30  C   -0.045395
    31  C   -0.102800
    32  C   -0.108398
    33  C    0.103341
    34  C    0.109828
    35  C   -0.370721
    36  C   -0.363755
    37  C   -0.078998
    38  C   -0.131460
    39  C   -0.082789
    40  C   -0.104350
    41  H    0.080035
    42  H    0.092370
    43  H    0.091346
    44  H    0.103422
    45  H    0.091506
    46  H    0.083198
    47  H    0.089784
    48  H    0.098480
    49  H    0.098496
    50  H    0.069857
    51  H    0.117593
    52  H    0.093101
    53  H    0.088014
    54  H    0.106109
    55  H    0.104534
    56  H    0.104264
    57  H    0.102302
    58  H    0.098465
    59  H    0.066367
    60  H    0.094821
    61  H    0.116870
    62  H    0.115329
    63  H    0.097343
    64  H    0.077009
    65  H    0.090955
    66  H    0.082045
    67  H    0.122120
    68  H    0.109759
    69  H    0.123253
    70  H    0.123995
    71  H    0.108943
    72  H    0.100890
    73  H    0.076859
    74  H    0.069199
    75  H    0.077012
    76  H    0.098997
    77  H    0.127061
    78  H    0.105200
    79  H    0.124794
    80  H    0.094359
    81  H    0.054759
    82  H    0.068773
    83  H    0.045720
    84  H    0.076494
    85  H    0.059996
    86  H    0.079099
    87  H    0.118834
    88  H    0.097255
    89  H    0.133438
    90  H    0.120381
    91  H    0.121189
    92  H    0.103858
    93  H    0.058846
    94  H    0.082711
    95  H    0.077466
    96  H    0.090117
 Sum of Mulliken charges =  -0.00000

 Dipole moment (field-independent basis, Debye):
    X=             -0.2567    Y=              0.0774    Z=             -0.0817  Tot=              0.2803
 Quadrupole moment (field-independent basis, Debye-Ang):
   XX=           -225.9683   YY=           -230.3689   ZZ=           -256.3977
   XY=              5.9496   XZ=             -4.4298   YZ=             -0.1497

 Normal termination of Gaussian 16 at Tue Jul 30 00:37:21 2019.
