 Gaussian 16, Revision A.03,
 Gaussian 16:  ES64L-G16RevA.03 25-Dec-2016

 ---------------------------------
 # td=(NStates=1) B3LYP/6-31G(d,p)
 ---------------------------------

 --
 TD
 --
 Symbolic Z-matrix:
 Charge =  0 Multiplicity = 1

                         Standard orientation:
 ---------------------------------------------------------------------
 Center     Atomic      Atomic             Coordinates (Angstroms)
 Number     Number       Type             X           Y           Z
 ---------------------------------------------------------------------
      1          6           0       12.166329    0.342783   -0.721669
      2          6           0      -12.216037   -0.202616    0.870191
      3          6           0       13.489430   -0.428114   -0.598459
      4          6           0      -13.136432    0.999840    1.220781
      5          6           0       13.287728   -1.877101   -0.543855
      6          6           0      -13.584325    1.738438   -0.058451
      7          6           0       11.084592   -0.032529    0.263378
      8          6           0      -11.074324    0.278666   -0.167067
      9          6           0       12.356569   -2.122391    0.693753
     10          6           0      -12.253851    2.436557   -0.523998
     11          6           0       11.182380   -1.182577    0.958731
     12          6           0      -11.008400    1.567422   -0.610539
     13          6           0       11.690809    0.208328   -2.141267
     14          6           0       12.574292    1.830960   -0.410523
     15          6           0      -13.082414   -1.229072    0.076062
     16          6           0      -11.634152   -0.849615    2.084214
     17          6           0        9.857705    0.771370    0.340582
     18          6           0       -9.935114   -0.533364   -0.166597
     19          6           0       10.249277   -1.557300    2.014230
     20          6           0      -10.032831    2.101464   -1.634264
     21          6           0        8.618704    0.350120    0.423834
     22          6           0       -8.573989   -0.333500    0.005340
     23          6           0        7.377481    1.265469    0.353045
     24          6           0       -7.536865   -1.315201   -0.282406
     25          6           0        7.725636    2.726615    0.646924
     26          6           0       -7.805386   -2.613895   -0.632326
     27          6           0        6.196180    0.729299    0.254865
     28          6           0       -6.219956   -0.787121   -0.082440
     29          6           0        4.930796    1.493335    0.268985
     30          6           0       -5.083488   -1.509260   -0.296487
     31          6           0        3.704976    0.901228    0.306438
     32          6           0       -3.796427   -0.955662   -0.236506
     33          6           0        2.396593    1.441504    0.331855
     34          6           0       -2.520582   -1.625053   -0.447701
     35          6           0        2.345807    3.013946    0.531283
     36          6           0       -2.544118   -3.068874   -0.916789
     37          6           0        1.257275    0.744356   -0.000897
     38          6           0       -1.408270   -0.945698   -0.336725
     39          6           0        1.044464   -0.534334   -0.291453
     40          6           0        0.024797   -1.417464   -0.357135
     41          1           0       13.982283   -0.171372    0.179838
     42          1           0       14.133897   -0.378835   -1.551215
     43          1           0      -12.683178    1.724085    1.761832
     44          1           0      -13.987554    0.695717    1.928891
     45          1           0       14.269362   -2.469758   -0.201591
     46          1           0       13.145194   -2.367751   -1.377956
     47          1           0      -14.382098    2.379827    0.201374
     48          1           0      -14.008494    1.166788   -0.949499
     49          1           0       12.976535   -2.180436    1.564160
     50          1           0       11.787032   -3.027780    0.585504
     51          1           0      -11.859108    3.176908    0.296588
     52          1           0      -12.553012    2.990192   -1.422250
     53          1           0       11.371472   -0.827669   -2.427777
     54          1           0       12.339137    0.829375   -2.724935
     55          1           0       10.762235    0.723769   -2.412549
     56          1           0       12.596598    1.976833    0.607281
     57          1           0       11.796189    2.630259   -0.827588
     58          1           0       13.645115    1.979062   -0.682149
     59          1           0      -13.374359   -0.742827   -0.849373
     60          1           0      -13.982005   -1.654296    0.540912
     61          1           0      -12.412939   -2.216031   -0.217865
     62          1           0      -11.189676   -0.182181    2.849192
     63          1           0      -11.014895   -1.803379    2.016111
     64          1           0      -12.555389   -1.021885    2.721281
     65          1           0        9.895508    1.850811    0.331954
     66          1           0      -10.235482   -1.599296   -0.654990
     67          1           0        9.507397   -0.913306    2.274579
     68          1           0       10.955517   -1.770714    2.927122
     69          1           0        9.729344   -2.447361    1.718118
     70          1           0       -9.482280    1.383769   -2.151185
     71          1           0       -9.394461    3.110480   -1.405716
     72          1           0      -10.640503    2.487327   -2.519149
     73          1           0        8.390595   -0.882805    0.341170
     74          1           0       -8.292189    0.685063    0.430987
     75          1           0        8.357324    2.984365    1.484701
     76          1           0        6.839086    3.316688    0.907109
     77          1           0        7.976347    3.239962   -0.262585
     78          1           0       -8.327435   -2.823631   -1.605426
     79          1           0       -8.488993   -3.238875    0.196070
     80          1           0       -6.893913   -3.181654   -0.675750
     81          1           0        6.220773   -0.446541    0.069793
     82          1           0       -5.986650    0.219526    0.083563
     83          1           0        5.136808    2.720336    0.594773
     84          1           0       -5.308133   -2.635749   -0.509241
     85          1           0        3.550513   -0.321902    0.005524
     86          1           0       -3.665086    0.194001   -0.043620
     87          1           0        2.736445    3.480476    1.555324
     88          1           0        1.342275    3.266319    0.463738
     89          1           0        3.067310    3.624954   -0.353592
     90          1           0       -3.338892   -3.068404   -1.652293
     91          1           0       -2.737467   -3.761561   -0.005328
     92          1           0       -1.474985   -3.351506   -1.328240
     93          1           0        0.400364    1.141433    0.076831
     94          1           0       -1.526570    0.154254   -0.118170
     95          1           0        1.996034   -1.166090   -0.321970
     96          1           0        0.199906   -2.404723   -0.583930
 ---------------------------------------------------------------------

 SCF Done:  E(RB3LYP) =  -1557.53815594     A.U. after   15 cycles

 Excitation energies and oscillator strengths:

 Excited State   1:      Singlet-A      2.1726 eV  570.68 nm  f=2.7633  <S**2>=0.000
     148 ->149         0.70301
     148 <-149        -0.10166
 This state for optimization and/or second-order correction.
 Total Energy, E(TD-HF/TD-DFT) =  -1557.45831526
 Copying the excited state density for this state as the 1-particle RhoCI density.

 The electronic state is 1-A.
 Alpha  occ. eigenvalues --  -10.21268 -10.20752 -10.20638 -10.20344 -10.20021
 Alpha  occ. eigenvalues --  -10.19981 -10.19963 -10.19904 -10.19572 -10.19440
 Alpha  occ. eigenvalues --  -10.19380 -10.19222 -10.19166 -10.19159 -10.19089
 Alpha  occ. eigenvalues --  -10.19070 -10.19042 -10.18987 -10.18911 -10.18756
 Alpha  occ. eigenvalues --  -10.18623 -10.18399 -10.18395 -10.18351 -10.18285
 Alpha  occ. eigenvalues --  -10.18175 -10.18080 -10.17938 -10.17903 -10.17698
 Alpha  occ. eigenvalues --  -10.17587 -10.17561 -10.17497 -10.17402 -10.17314
 Alpha  occ. eigenvalues --  -10.17228 -10.17034 -10.16657 -10.16377 -10.16294
 Alpha  occ. eigenvalues --   -0.85534  -0.84805  -0.84079  -0.83548  -0.82409
 Alpha  occ. eigenvalues --   -0.81761  -0.79375  -0.78569  -0.78245  -0.77688
 Alpha  occ. eigenvalues --   -0.77268  -0.75766  -0.74438  -0.72480  -0.72127
 Alpha  occ. eigenvalues --   -0.70044  -0.68778  -0.68468  -0.68424  -0.68229
 Alpha  occ. eigenvalues --   -0.67673  -0.67317  -0.66744  -0.66478  -0.65837
 Alpha  occ. eigenvalues --   -0.62943  -0.62185  -0.60733  -0.59212  -0.56886
 Alpha  occ. eigenvalues --   -0.56135  -0.55930  -0.55434  -0.53660  -0.52926
 Alpha  occ. eigenvalues --   -0.52402  -0.50751  -0.50265  -0.49628  -0.49374
 Alpha  occ. eigenvalues --   -0.48170  -0.48001  -0.46955  -0.46498  -0.45886
 Alpha  occ. eigenvalues --   -0.45607  -0.45324  -0.45235  -0.44766  -0.43964
 Alpha  occ. eigenvalues --   -0.43394  -0.43205  -0.42932  -0.42620  -0.42419
 Alpha  occ. eigenvalues --   -0.42082  -0.41635  -0.41405  -0.41257  -0.40888
 Alpha  occ. eigenvalues --   -0.40647  -0.40327  -0.39675  -0.39460  -0.39147
 Alpha  occ. eigenvalues --   -0.38992  -0.38845  -0.38748  -0.38385  -0.37972
 Alpha  occ. eigenvalues --   -0.37690  -0.37589  -0.37470  -0.36970  -0.36588
 Alpha  occ. eigenvalues --   -0.36334  -0.36127  -0.36006  -0.35393  -0.35106
 Alpha  occ. eigenvalues --   -0.34804  -0.34622  -0.33959  -0.33845  -0.33675
 Alpha  occ. eigenvalues --   -0.33209  -0.32808  -0.32696  -0.32341  -0.32098
 Alpha  occ. eigenvalues --   -0.31937  -0.31908  -0.31553  -0.31375  -0.31181
 Alpha  occ. eigenvalues --   -0.29897  -0.29670  -0.29144  -0.29011  -0.28573
 Alpha  occ. eigenvalues --   -0.28490  -0.27753  -0.26401  -0.24487  -0.22716
 Alpha  occ. eigenvalues --   -0.21154  -0.19074  -0.16417
 Alpha virt. eigenvalues --   -0.08321  -0.05056  -0.01200   0.00643   0.02747
 Alpha virt. eigenvalues --    0.04650   0.05351   0.06155   0.07067   0.07630
 Alpha virt. eigenvalues --    0.07901   0.08266   0.08533   0.08670   0.09042

 Mulliken charges:
               1
     1  C    0.000354
     2  C    0.025626
     3  C   -0.143664
     4  C   -0.175868
     5  C   -0.192350
     6  C   -0.188386
     7  C    0.086394
     8  C    0.051757
     9  C   -0.225070
    10  C   -0.225062
    11  C    0.040349
    12  C    0.067460
    13  C   -0.301429
    14  C   -0.325273
    15  C   -0.283427
    16  C   -0.302961
    17  C   -0.109609
    18  C   -0.129986
    19  C   -0.350888
    20  C   -0.355649
    21  C   -0.106072
    22  C   -0.094511
    23  C    0.128413
    24  C    0.141724
    25  C   -0.391484
    26  C   -0.389536
    27  C   -0.112892
    28  C   -0.086355
    29  C   -0.105807
    30  C   -0.083317
    31  C   -0.093722
    32  C   -0.148218
    33  C    0.114513
    34  C    0.157229
    35  C   -0.344956
    36  C   -0.361185
    37  C   -0.069630
    38  C   -0.148023
    39  C   -0.064800
    40  C   -0.095176
    41  H    0.096748
    42  H    0.079362
    43  H    0.108893
    44  H    0.070492
    45  H    0.058833
    46  H    0.109935
    47  H    0.097798
    48  H    0.092948
    49  H    0.106667
    50  H    0.099684
    51  H    0.091713
    52  H    0.095663
    53  H    0.099716
    54  H    0.101903
    55  H    0.096402
    56  H    0.116540
    57  H    0.082530
    58  H    0.097151
    59  H    0.106991
    60  H    0.098745
    61  H    0.066672
    62  H    0.098106
    63  H    0.106861
    64  H    0.085844
    65  H    0.080682
    66  H    0.057424
    67  H    0.131819
    68  H    0.083307
    69  H    0.109942
    70  H    0.130335
    71  H    0.090220
    72  H    0.097087
    73  H    0.053161
    74  H    0.079324
    75  H    0.131425
    76  H    0.097735
    77  H    0.132572
    78  H    0.126661
    79  H    0.094539
    80  H    0.109970
    81  H    0.077623
    82  H    0.077660
    83  H    0.072818
    84  H    0.073358
    85  H    0.056248
    86  H    0.071310
    87  H    0.101987
    88  H    0.115959
    89  H    0.083538
    90  H    0.126443
    91  H    0.113012
    92  H    0.096133
    93  H    0.051793
    94  H    0.067519
    95  H    0.049841
    96  H    0.083842
 Sum of Mulliken charges =  -0.00000

 Dipole moment (field-independent basis, Debye):
    X=             -0.3740    Y=              0.4983    Z=             -0.0946  Tot=              0.6302
 Quadrupole moment (field-independent basis, Debye-Ang):
   XX=           -212.4853   YY=           -235.4517   ZZ=           -253.5308
   XY=             -3.2019   XZ=              4.5173   YZ=              4.1887

 Normal termination of Gaussian 16 at Sun Jul 28 18:46:19 2019.
