 Gaussian 16, Revision A.03,
 Gaussian 16:  ES64L-G16RevA.03 25-Dec-2016

 ---------------------------------
 # td=(NStates=1) B3LYP/6-31G(d,p)
 ---------------------------------

 --
 TD
 --
 Symbolic Z-matrix:
 Charge =  0 Multiplicity = 1

                         Standard orientation:
 ---------------------------------------------------------------------
 Center     Atomic      Atomic             Coordinates (Angstroms)
 Number     Number       Type             X           Y           Z
 ---------------------------------------------------------------------
      1          6           0       12.114294    0.419237   -0.729398
      2          6           0      -12.261756   -0.052535    0.828938
      3          6           0       13.539631   -0.226670   -0.604275
      4          6           0      -13.157841    1.216705    1.260372
      5          6           0       13.241002   -1.829679   -0.459128
      6          6           0      -13.300924    2.082745    0.049494
      7          6           0       11.108658   -0.029161    0.298542
      8          6           0      -11.033339    0.388697   -0.051017
      9          6           0       12.558915   -2.061514    0.788403
     10          6           0      -12.065751    2.577253   -0.556714
     11          6           0       11.303182   -1.207617    0.997626
     12          6           0      -10.936338    1.558249   -0.708963
     13          6           0       11.610157    0.113106   -2.159411
     14          6           0       12.426636    1.999564   -0.647145
     15          6           0      -13.082434   -1.068723    0.131136
     16          6           0      -11.816441   -0.660480    2.102603
     17          6           0        9.910331    0.829505    0.347869
     18          6           0       -9.871849   -0.540570   -0.216276
     19          6           0       10.283782   -1.638583    2.050033
     20          6           0       -9.953938    1.902204   -1.670713
     21          6           0        8.584585    0.538359    0.340852
     22          6           0       -8.551752   -0.287671   -0.141537
     23          6           0        7.406400    1.365096    0.410726
     24          6           0       -7.615790   -1.299417   -0.451680
     25          6           0        7.635830    2.834586    0.603585
     26          6           0       -7.962864   -2.759057   -0.590656
     27          6           0        6.175569    0.837636    0.321522
     28          6           0       -6.233660   -0.964101   -0.340593
     29          6           0        4.874399    1.478401    0.370655
     30          6           0       -5.079099   -1.732737   -0.281773
     31          6           0        3.725083    0.819166    0.326296
     32          6           0       -3.821856   -1.143762   -0.281945
     33          6           0        2.329119    1.392945    0.269818
     34          6           0       -2.501360   -1.778082   -0.563991
     35          6           0        2.244296    2.915901    0.421131
     36          6           0       -2.582777   -3.343820   -0.847897
     37          6           0        1.315640    0.598661    0.199459
     38          6           0       -1.346975   -1.144502   -0.382980
     39          6           0        1.098080   -0.878675    0.002686
     40          6           0       -0.024653   -1.615119   -0.301198
     41          1           0       13.901875    0.075000    0.383413
     42          1           0       14.188504   -0.018392   -1.427889
     43          1           0      -12.819012    1.831000    2.054354
     44          1           0      -14.199086    0.964420    1.650637
     45          1           0       14.123090   -2.267726   -0.278636
     46          1           0       12.822010   -2.301218   -1.430435
     47          1           0      -13.858998    3.000580    0.271093
     48          1           0      -13.792704    1.514335   -0.756715
     49          1           0       12.941600   -1.778897    1.787222
     50          1           0       12.152526   -3.097428    0.644511
     51          1           0      -11.630533    3.382282    0.021939
     52          1           0      -12.291216    3.058686   -1.685689
     53          1           0       11.395156   -0.843483   -2.425030
     54          1           0       12.239428    0.642626   -2.929860
     55          1           0       10.794348    0.627997   -2.475014
     56          1           0       12.559872    2.196057    0.386354
     57          1           0       11.566143    2.634562   -0.879882
     58          1           0       13.185828    2.269570   -1.466096
     59          1           0      -13.636766   -0.543543   -0.682521
     60          1           0      -13.987105   -1.316366    1.007171
     61          1           0      -12.427479   -1.872295   -0.255448
     62          1           0      -11.182034    0.038995    2.880049
     63          1           0      -11.162602   -1.524562    1.910210
     64          1           0      -12.640668   -1.026857    2.698889
     65          1           0       10.094910    2.083868    0.134972
     66          1           0      -10.057750   -1.648357    0.188440
     67          1           0        9.501627   -0.907282    2.482536
     68          1           0       10.963532   -1.772278    3.008192
     69          1           0        9.707377   -2.461346    1.682691
     70          1           0       -9.338738    1.049010   -1.735910
     71          1           0       -9.260636    2.681529   -1.584953
     72          1           0      -10.442410    2.332987   -2.564691
     73          1           0        8.334299   -0.497111    0.392132
     74          1           0       -8.096914    0.763960   -0.082720
     75          1           0        8.032264    3.098800    1.659123
     76          1           0        6.852173    3.440058    0.265720
     77          1           0        8.592037    3.299754    0.015195
     78          1           0       -8.587557   -2.880182   -1.439141
     79          1           0       -8.589032   -3.213684    0.308519
     80          1           0       -7.076276   -3.361796   -0.934301
     81          1           0        6.088991   -0.126681    0.025644
     82          1           0       -6.087766    0.101075   -0.226162
     83          1           0        4.865681    2.288215    0.525165
     84          1           0       -5.128242   -2.696596   -0.791127
     85          1           0        3.574957   -0.347535    0.199443
     86          1           0       -3.881453   -0.081810    0.104117
     87          1           0        2.457395    3.204364    1.434407
     88          1           0        1.236209    3.301507    0.186504
     89          1           0        3.025146    3.429032   -0.224055
     90          1           0       -3.081398   -3.689863   -1.754027
     91          1           0       -2.967757   -3.755996    0.079519
     92          1           0       -1.578231   -3.832803   -0.814973
     93          1           0        0.341759    1.152151    0.219967
     94          1           0       -1.498054   -0.002602   -0.077505
     95          1           0        1.983597   -1.580080    0.103176
     96          1           0        0.072919   -2.648921   -0.595267
 ---------------------------------------------------------------------

 SCF Done:  E(RB3LYP) =  -1557.54458263     A.U. after   16 cycles

 Excitation energies and oscillator strengths:

 Excited State   1:      Singlet-A      2.2818 eV  543.36 nm  f=2.7155  <S**2>=0.000
     147 ->149        -0.16316
     148 ->149         0.68376
 This state for optimization and/or second-order correction.
 Total Energy, E(TD-HF/TD-DFT) =  -1557.46072823
 Copying the excited state density for this state as the 1-particle RhoCI density.

 The electronic state is 1-A.
 Alpha  occ. eigenvalues --  -10.20931 -10.20749 -10.20080 -10.20068 -10.19913
 Alpha  occ. eigenvalues --  -10.19822 -10.19717 -10.19573 -10.19481 -10.19451
 Alpha  occ. eigenvalues --  -10.19364 -10.19330 -10.19262 -10.19122 -10.19106
 Alpha  occ. eigenvalues --  -10.19092 -10.18969 -10.18938 -10.18912 -10.18881
 Alpha  occ. eigenvalues --  -10.18873 -10.18864 -10.18825 -10.18639 -10.18616
 Alpha  occ. eigenvalues --  -10.18509 -10.18396 -10.18367 -10.18173 -10.17921
 Alpha  occ. eigenvalues --  -10.17752 -10.17748 -10.17565 -10.17373 -10.17338
 Alpha  occ. eigenvalues --  -10.17182 -10.16940 -10.16264 -10.15710 -10.15005
 Alpha  occ. eigenvalues --   -0.85495  -0.84629  -0.83778  -0.83158  -0.82354
 Alpha  occ. eigenvalues --   -0.81565  -0.79957  -0.79001  -0.78438  -0.77809
 Alpha  occ. eigenvalues --   -0.77072  -0.75985  -0.74919  -0.72247  -0.71714
 Alpha  occ. eigenvalues --   -0.70000  -0.68927  -0.68534  -0.68171  -0.68134
 Alpha  occ. eigenvalues --   -0.67479  -0.67212  -0.67075  -0.66711  -0.66655
 Alpha  occ. eigenvalues --   -0.62958  -0.62139  -0.60505  -0.59181  -0.57037
 Alpha  occ. eigenvalues --   -0.56831  -0.55839  -0.55765  -0.54400  -0.53501
 Alpha  occ. eigenvalues --   -0.52578  -0.51862  -0.50151  -0.49777  -0.48795
 Alpha  occ. eigenvalues --   -0.48513  -0.47583  -0.47283  -0.46688  -0.46233
 Alpha  occ. eigenvalues --   -0.45853  -0.45755  -0.45241  -0.44448  -0.44160
 Alpha  occ. eigenvalues --   -0.44017  -0.42792  -0.42629  -0.42373  -0.42286
 Alpha  occ. eigenvalues --   -0.42009  -0.41898  -0.41556  -0.41485  -0.41127
 Alpha  occ. eigenvalues --   -0.40917  -0.40792  -0.40589  -0.40279  -0.39502
 Alpha  occ. eigenvalues --   -0.39411  -0.39244  -0.38769  -0.38323  -0.38110
 Alpha  occ. eigenvalues --   -0.38092  -0.37909  -0.37592  -0.36887  -0.36473
 Alpha  occ. eigenvalues --   -0.36186  -0.35940  -0.35714  -0.35531  -0.35243
 Alpha  occ. eigenvalues --   -0.34714  -0.34615  -0.34057  -0.33798  -0.33478
 Alpha  occ. eigenvalues --   -0.33301  -0.33135  -0.32667  -0.32598  -0.32302
 Alpha  occ. eigenvalues --   -0.32150  -0.32042  -0.31634  -0.31243  -0.30829
 Alpha  occ. eigenvalues --   -0.30572  -0.29930  -0.29860  -0.29503  -0.28615
 Alpha  occ. eigenvalues --   -0.27465  -0.27116  -0.26848  -0.24360  -0.23108
 Alpha  occ. eigenvalues --   -0.21443  -0.18566  -0.16793
 Alpha virt. eigenvalues --   -0.08123  -0.05156  -0.02164   0.01060   0.02720
 Alpha virt. eigenvalues --    0.04769   0.05952   0.06409   0.06870   0.07114
 Alpha virt. eigenvalues --    0.07858   0.08042   0.08303   0.09037   0.09168

 Mulliken charges:
               1
     1  C   -0.009389
     2  C   -0.011207
     3  C   -0.172988
     4  C   -0.168692
     5  C   -0.192223
     6  C   -0.185878
     7  C    0.089300
     8  C    0.085035
     9  C   -0.200354
    10  C   -0.206162
    11  C    0.001355
    12  C    0.086275
    13  C   -0.294039
    14  C   -0.314083
    15  C   -0.264635
    16  C   -0.274576
    17  C   -0.111138
    18  C   -0.176188
    19  C   -0.349772
    20  C   -0.375446
    21  C   -0.100548
    22  C   -0.101033
    23  C    0.156637
    24  C    0.134789
    25  C   -0.378900
    26  C   -0.376825
    27  C   -0.135859
    28  C   -0.124510
    29  C    0.039156
    30  C   -0.075028
    31  C   -0.111166
    32  C   -0.118132
    33  C    0.137970
    34  C    0.098431
    35  C   -0.377793
    36  C   -0.384857
    37  C   -0.141593
    38  C   -0.094461
    39  C   -0.085150
    40  C   -0.100261
    41  H    0.089496
    42  H    0.093231
    43  H    0.098942
    44  H    0.081116
    45  H    0.104528
    46  H    0.098398
    47  H    0.083208
    48  H    0.096198
    49  H    0.120755
    50  H    0.102896
    51  H    0.105499
    52  H    0.056277
    53  H    0.103529
    54  H    0.073225
    55  H    0.109376
    56  H    0.108455
    57  H    0.096063
    58  H    0.090078
    59  H    0.102503
    60  H    0.064025
    61  H    0.110728
    62  H    0.071539
    63  H    0.086268
    64  H    0.098354
    65  H    0.039930
    66  H    0.065772
    67  H    0.117475
    68  H    0.081667
    69  H    0.123130
    70  H    0.122048
    71  H    0.116298
    72  H    0.099737
    73  H    0.067210
    74  H    0.088310
    75  H    0.115767
    76  H    0.115820
    77  H    0.089782
    78  H    0.127675
    79  H    0.108315
    80  H    0.102606
    81  H    0.066873
    82  H    0.065428
    83  H   -0.014735
    84  H    0.082932
    85  H    0.062303
    86  H    0.077273
    87  H    0.133418
    88  H    0.108055
    89  H    0.112544
    90  H    0.126040
    91  H    0.134748
    92  H    0.100434
    93  H    0.067825
    94  H    0.066892
    95  H    0.079961
    96  H    0.087716
 Sum of Mulliken charges =  -0.00000

 Dipole moment (field-independent basis, Debye):
    X=              0.5898    Y=             -0.0961    Z=             -0.0073  Tot=              0.5976
 Quadrupole moment (field-independent basis, Debye-Ang):
   XX=           -229.9249   YY=           -233.6254   ZZ=           -253.5520
   XY=             -8.7353   XZ=             -1.1977   YZ=              3.0875

 Normal termination of Gaussian 16 at Sat Jul 27 22:49:14 2019.
