 Gaussian 16, Revision A.03,
 Gaussian 16:  ES64L-G16RevA.03 25-Dec-2016

 ---------------------------------
 # td=(NStates=1) B3LYP/6-31G(d,p)
 ---------------------------------

 --
 TD
 --
 Symbolic Z-matrix:
 Charge =  0 Multiplicity = 1

                         Standard orientation:
 ---------------------------------------------------------------------
 Center     Atomic      Atomic             Coordinates (Angstroms)
 Number     Number       Type             X           Y           Z
 ---------------------------------------------------------------------
      1          6           0      -12.070765   -0.483373   -0.647677
      2          6           0       12.031345    0.019745    1.072709
      3          6           0      -13.285281    0.374652   -0.528401
      4          6           0       12.816601   -1.266102    1.378463
      5          6           0      -12.945731    1.878811   -0.552579
      6          6           0       13.330557   -2.047822    0.159118
      7          6           0      -10.993941   -0.047252    0.361868
      8          6           0       10.960501   -0.311590   -0.062787
      9          6           0      -12.194250    2.246269    0.759545
     10          6           0       12.136919   -2.476562   -0.773527
     11          6           0      -11.113523    1.154310    0.989873
     12          6           0       11.032220   -1.415451   -0.836075
     13          6           0      -11.505070   -0.508866   -2.132088
     14          6           0      -12.541949   -1.854628   -0.416794
     15          6           0       13.002332    1.082072    0.428624
     16          6           0       11.474702    0.631692    2.323519
     17          6           0       -9.795045   -0.982866    0.456347
     18          6           0        9.813335    0.623357   -0.208731
     19          6           0      -10.041812    1.765760    1.898525
     20          6           0       10.000050   -1.817163   -1.984515
     21          6           0       -8.555050   -0.538563    0.364844
     22          6           0        8.472558    0.319874   -0.227085
     23          6           0       -7.358418   -1.320812    0.453617
     24          6           0        7.464073    1.360931   -0.411358
     25          6           0       -7.682319   -2.735963    0.801005
     26          6           0        7.811823    2.765491   -0.755377
     27          6           0       -6.138053   -0.846645    0.258380
     28          6           0        6.214989    0.844816   -0.224586
     29          6           0       -4.860558   -1.463688    0.333782
     30          6           0        4.985262    1.535090   -0.426960
     31          6           0       -3.687092   -0.789796    0.002776
     32          6           0        3.714155    0.988361   -0.434647
     33          6           0       -2.354326   -1.338134    0.117950
     34          6           0        2.473298    1.744067   -0.477659
     35          6           0       -2.201699   -2.853217    0.554150
     36          6           0        2.436110    3.296703   -0.622542
     37          6           0       -1.218932   -0.568727    0.003627
     38          6           0        1.334092    0.981776   -0.425263
     39          6           0       -1.119614    0.789330   -0.217859
     40          6           0       -0.077403    1.492523   -0.379176
     41          1           0      -13.845571    0.304116    0.374720
     42          1           0      -13.724703    0.060883   -1.390309
     43          1           0       12.329195   -1.998481    1.981337
     44          1           0       13.729698   -0.942518    1.914328
     45          1           0      -13.880034    2.355870   -0.761391
     46          1           0      -12.384770    2.016852   -1.406468
     47          1           0       14.187927   -2.846918    0.553452
     48          1           0       14.046177   -1.474829   -0.339760
     49          1           0      -12.830682    2.070652    1.504021
     50          1           0      -11.806893    3.156538    0.568618
     51          1           0       11.564034   -3.336584   -0.250082
     52          1           0       12.465093   -2.984963   -1.695504
     53          1           0      -10.972527    0.457829   -2.530980
     54          1           0      -12.108076   -0.756258   -3.064967
     55          1           0      -10.746069   -1.132646   -2.166982
     56          1           0      -13.032718   -1.757022    0.613054
     57          1           0      -11.796424   -2.685675   -0.403202
     58          1           0      -13.329239   -1.947906   -1.144537
     59          1           0       13.405533    0.681689   -0.494339
     60          1           0       13.815468    1.368116    0.927228
     61          1           0       12.374985    2.021046    0.294969
     62          1           0       10.681482    0.037096    2.778670
     63          1           0       10.862221    1.550801    2.279240
     64          1           0       12.246785    0.991550    3.235080
     65          1           0      -10.014771   -1.976964    0.735632
     66          1           0       10.050709    1.689081   -0.259330
     67          1           0       -9.333826    1.044963    2.227587
     68          1           0      -10.512098    2.110668    2.937762
     69          1           0       -9.629854    2.597595    1.424189
     70          1           0        9.183342   -1.000780   -1.946796
     71          1           0        9.654914   -2.755362   -1.687246
     72          1           0       10.468330   -1.957174   -2.827670
     73          1           0       -8.415040    0.519185    0.174009
     74          1           0        8.225789   -0.665868   -0.126230
     75          1           0       -7.902135   -2.867757    1.918044
     76          1           0       -6.705058   -3.393936    0.833971
     77          1           0       -8.411392   -3.241739    0.178121
     78          1           0        8.741708    2.921333   -1.376403
     79          1           0        7.964751    3.392817    0.341375
     80          1           0        6.747152    3.085337   -1.345066
     81          1           0       -5.924017    0.139859   -0.020123
     82          1           0        6.111323   -0.304827    0.168819
     83          1           0       -4.978612   -2.579742    0.600054
     84          1           0        5.197911    2.630829   -1.045055
     85          1           0       -3.930038    0.122756   -0.269573
     86          1           0        3.847413   -0.003280   -0.091572
     87          1           0       -2.700984   -2.865752    1.401860
     88          1           0       -1.173003   -3.089931    0.438661
     89          1           0       -2.827695   -3.514714   -0.088206
     90          1           0        2.926310    3.416468   -1.619655
     91          1           0        3.004025    3.580186    0.178828
     92          1           0        1.365585    3.617520   -0.583486
     93          1           0       -0.298514   -1.038575    0.072144
     94          1           0        1.534595   -0.210405   -0.595543
     95          1           0       -1.973706    1.386209   -0.479641
     96          1           0       -0.128541    2.632290   -0.483883
 ---------------------------------------------------------------------

 SCF Done:  E(RB3LYP) =  -1557.57741528     A.U. after   14 cycles

 Excitation energies and oscillator strengths:

 Excited State   1:      Singlet-A      2.3408 eV  529.67 nm  f=2.7476  <S**2>=0.000
     148 ->149         0.70634
 This state for optimization and/or second-order correction.
 Total Energy, E(TD-HF/TD-DFT) =  -1557.49139358
 Copying the excited state density for this state as the 1-particle RhoCI density.

 The electronic state is 1-A.
 Alpha  occ. eigenvalues --  -10.22074 -10.20627 -10.20341 -10.20322 -10.20125
 Alpha  occ. eigenvalues --  -10.20101 -10.19712 -10.19678 -10.19669 -10.19651
 Alpha  occ. eigenvalues --  -10.19473 -10.19268 -10.19041 -10.18905 -10.18842
 Alpha  occ. eigenvalues --  -10.18839 -10.18808 -10.18808 -10.18756 -10.18722
 Alpha  occ. eigenvalues --  -10.18508 -10.18448 -10.18331 -10.18254 -10.18008
 Alpha  occ. eigenvalues --  -10.17816 -10.17785 -10.17700 -10.17637 -10.17358
 Alpha  occ. eigenvalues --  -10.17316 -10.17206 -10.16986 -10.16792 -10.16747
 Alpha  occ. eigenvalues --  -10.16670 -10.16547 -10.16271 -10.15840 -10.15333
 Alpha  occ. eigenvalues --   -0.85327  -0.84252  -0.84064  -0.83365  -0.82835
 Alpha  occ. eigenvalues --   -0.81401  -0.79745  -0.78906  -0.78054  -0.77482
 Alpha  occ. eigenvalues --   -0.76699  -0.75160  -0.74429  -0.72144  -0.71845
 Alpha  occ. eigenvalues --   -0.70001  -0.68719  -0.68442  -0.68379  -0.68185
 Alpha  occ. eigenvalues --   -0.68039  -0.67613  -0.67310  -0.67074  -0.66618
 Alpha  occ. eigenvalues --   -0.63003  -0.61919  -0.59872  -0.59262  -0.57367
 Alpha  occ. eigenvalues --   -0.56801  -0.55743  -0.55268  -0.54433  -0.53364
 Alpha  occ. eigenvalues --   -0.52821  -0.51288  -0.50609  -0.50389  -0.49909
 Alpha  occ. eigenvalues --   -0.48392  -0.48143  -0.47341  -0.46617  -0.46196
 Alpha  occ. eigenvalues --   -0.45743  -0.45113  -0.44795  -0.44556  -0.44137
 Alpha  occ. eigenvalues --   -0.43839  -0.43465  -0.43186  -0.42836  -0.42457
 Alpha  occ. eigenvalues --   -0.42414  -0.42223  -0.42107  -0.41814  -0.41299
 Alpha  occ. eigenvalues --   -0.40918  -0.40739  -0.40339  -0.40197  -0.39919
 Alpha  occ. eigenvalues --   -0.39221  -0.38567  -0.38482  -0.38166  -0.38046
 Alpha  occ. eigenvalues --   -0.37878  -0.37271  -0.37178  -0.36988  -0.36976
 Alpha  occ. eigenvalues --   -0.36683  -0.36187  -0.35907  -0.35614  -0.35503
 Alpha  occ. eigenvalues --   -0.34770  -0.34579  -0.34254  -0.33935  -0.33770
 Alpha  occ. eigenvalues --   -0.33520  -0.33194  -0.33000  -0.32687  -0.32500
 Alpha  occ. eigenvalues --   -0.32318  -0.31800  -0.31563  -0.31074  -0.31010
 Alpha  occ. eigenvalues --   -0.30938  -0.30271  -0.30078  -0.29157  -0.28586
 Alpha  occ. eigenvalues --   -0.27690  -0.27302  -0.26092  -0.24425  -0.22900
 Alpha  occ. eigenvalues --   -0.21742  -0.19118  -0.16779
 Alpha virt. eigenvalues --   -0.07703  -0.05171  -0.00803   0.01120   0.02859
 Alpha virt. eigenvalues --    0.04374   0.04731   0.05944   0.06927   0.07868
 Alpha virt. eigenvalues --    0.07952   0.08285   0.08512   0.09261   0.09627

 Mulliken charges:
               1
     1  C   -0.020048
     2  C    0.015608
     3  C   -0.160617
     4  C   -0.167782
     5  C   -0.211321
     6  C   -0.192436
     7  C    0.073622
     8  C    0.057814
     9  C   -0.195196
    10  C   -0.220990
    11  C    0.007309
    12  C    0.033808
    13  C   -0.314141
    14  C   -0.274772
    15  C   -0.298608
    16  C   -0.304614
    17  C   -0.139419
    18  C   -0.155734
    19  C   -0.356689
    20  C   -0.346881
    21  C   -0.073671
    22  C   -0.078369
    23  C    0.141378
    24  C    0.129682
    25  C   -0.390382
    26  C   -0.343007
    27  C   -0.126886
    28  C   -0.111071
    29  C   -0.068648
    30  C   -0.095318
    31  C   -0.095705
    32  C   -0.114814
    33  C    0.067325
    34  C    0.072645
    35  C   -0.354375
    36  C   -0.345007
    37  C   -0.112579
    38  C   -0.112060
    39  C   -0.031229
    40  C   -0.122390
    41  H    0.087797
    42  H    0.085944
    43  H    0.100637
    44  H    0.082506
    45  H    0.080378
    46  H    0.102962
    47  H    0.054998
    48  H    0.109551
    49  H    0.122891
    50  H    0.111107
    51  H    0.099134
    52  H    0.103065
    53  H    0.076460
    54  H    0.090860
    55  H    0.119938
    56  H    0.083530
    57  H    0.088548
    58  H    0.098161
    59  H    0.102006
    60  H    0.107695
    61  H    0.088049
    62  H    0.103880
    63  H    0.099913
    64  H    0.071300
    65  H    0.094076
    66  H    0.076696
    67  H    0.119013
    68  H    0.076812
    69  H    0.121908
    70  H    0.109781
    71  H    0.113944
    72  H    0.121127
    73  H    0.080334
    74  H    0.084291
    75  H    0.118708
    76  H    0.081014
    77  H    0.128469
    78  H    0.125922
    79  H    0.101574
    80  H    0.090790
    81  H    0.063488
    82  H    0.067910
    83  H    0.062385
    84  H    0.040771
    85  H    0.071215
    86  H    0.084858
    87  H    0.141970
    88  H    0.112250
    89  H    0.109665
    90  H    0.129033
    91  H    0.141525
    92  H    0.108094
    93  H    0.069511
    94  H    0.071304
    95  H    0.074386
    96  H    0.071433
 Sum of Mulliken charges =  -0.00000

 Dipole moment (field-independent basis, Debye):
    X=              0.7382    Y=              0.0642    Z=             -0.2350  Tot=              0.7774
 Quadrupole moment (field-independent basis, Debye-Ang):
   XX=           -232.0077   YY=           -236.4356   ZZ=           -253.1997
   XY=             -2.7562   XZ=             -2.7100   YZ=             -1.1208

 Normal termination of Gaussian 16 at Sun Jul 28 16:24:58 2019.
