 Gaussian 16, Revision A.03,
 Gaussian 16:  ES64L-G16RevA.03 25-Dec-2016

 ---------------------------------
 # td=(NStates=1) B3LYP/6-31G(d,p)
 ---------------------------------

 --
 TD
 --
 Symbolic Z-matrix:
 Charge =  0 Multiplicity = 1

                         Standard orientation:
 ---------------------------------------------------------------------
 Center     Atomic      Atomic             Coordinates (Angstroms)
 Number     Number       Type             X           Y           Z
 ---------------------------------------------------------------------
      1          6           0       12.064464    0.554911   -0.838112
      2          6           0      -12.009712   -0.018593    0.947267
      3          6           0       13.375906   -0.338736   -0.576416
      4          6           0      -12.909848    1.154683    1.350958
      5          6           0       13.094808   -1.833035   -0.360224
      6          6           0      -13.322638    2.199995    0.333916
      7          6           0       10.997995    0.075511    0.215903
      8          6           0      -10.931964    0.407758   -0.200178
      9          6           0       12.282462   -2.003729    0.890943
     10          6           0      -12.091310    2.770844   -0.458802
     11          6           0       11.219959   -0.988224    1.011681
     12          6           0      -11.013160    1.722103   -0.706608
     13          6           0       11.559306    0.348735   -2.253854
     14          6           0       12.486445    2.074723   -0.589393
     15          6           0      -12.914257   -1.107690    0.246398
     16          6           0      -11.330259   -0.661371    2.081023
     17          6           0        9.851508    0.923460    0.260772
     18          6           0       -9.857852   -0.538101   -0.412956
     19          6           0       10.066684   -1.328733    2.104044
     20          6           0      -10.054370    2.234994   -1.793731
     21          6           0        8.535380    0.521177    0.186593
     22          6           0       -8.532089   -0.324608   -0.295551
     23          6           0        7.345044    1.324374    0.415943
     24          6           0       -7.425155   -1.344389   -0.558484
     25          6           0        7.473309    2.787191    0.699254
     26          6           0       -7.936742   -2.867692   -0.855175
     27          6           0        6.166022    0.699418    0.261590
     28          6           0       -6.197370   -0.931851   -0.374912
     29          6           0        4.827599    1.308498    0.359798
     30          6           0       -4.981527   -1.734877   -0.411351
     31          6           0        3.687473    0.577492    0.242157
     32          6           0       -3.765268   -1.235806   -0.259620
     33          6           0        2.383198    1.132211    0.293816
     34          6           0       -2.486011   -2.008288   -0.262233
     35          6           0        2.250413    2.678779    0.512845
     36          6           0       -2.497509   -3.447499   -0.670553
     37          6           0        1.118435    0.494452    0.059831
     38          6           0       -1.382949   -1.199557   -0.158583
     39          6           0        1.095486   -0.906378   -0.235063
     40          6           0        0.038392   -1.749858   -0.204876
     41          1           0       13.652570    0.165478    0.527649
     42          1           0       13.986549   -0.278261   -1.487169
     43          1           0      -12.217724    1.731973    2.115269
     44          1           0      -13.797716    0.871106    1.879893
     45          1           0       14.109033   -2.363621   -0.578695
     46          1           0       12.548155   -2.187230   -1.128331
     47          1           0      -13.847043    2.982680    0.812866
     48          1           0      -14.169941    1.859175   -0.512893
     49          1           0       13.137107   -1.895307    1.644531
     50          1           0       11.631317   -2.989675    0.791559
     51          1           0      -11.825939    3.491054    0.153445
     52          1           0      -12.289795    3.185746   -1.369932
     53          1           0       11.108746   -0.609689   -2.542562
     54          1           0       12.554533    0.544009   -2.969637
     55          1           0       10.794061    1.061125   -2.456569
     56          1           0       13.083030    2.292935    0.354743
     57          1           0       11.605474    2.760776   -0.724180
     58          1           0       13.243085    2.395977   -1.257681
     59          1           0      -13.219615   -0.784699   -0.760140
     60          1           0      -13.826485   -1.416896    0.832138
     61          1           0      -12.380544   -2.028423   -0.112025
     62          1           0      -10.516806    0.028241    2.427710
     63          1           0      -10.678913   -1.609822    1.611510
     64          1           0      -12.051139   -0.900445    2.900316
     65          1           0        9.938817    1.995112    0.356214
     66          1           0      -10.252445   -1.525331   -0.606714
     67          1           0        9.554153   -0.341935    2.432651
     68          1           0       10.794409   -1.697518    2.878862
     69          1           0        9.379362   -2.284897    1.887267
     70          1           0       -9.393040    1.462986   -2.093444
     71          1           0       -9.513601    3.105805   -1.474197
     72          1           0      -10.764327    2.703208   -2.619599
     73          1           0        8.424531   -0.491422   -0.031697
     74          1           0       -8.090815    0.817818   -0.053705
     75          1           0        8.170091    2.772954    1.469324
     76          1           0        6.407562    3.160940    1.069161
     77          1           0        7.884952    3.410191   -0.215660
     78          1           0       -8.766964   -2.867816   -1.548574
     79          1           0       -8.583204   -3.040086    0.036502
     80          1           0       -6.936190   -3.439355   -0.771144
     81          1           0        6.174753   -0.340434   -0.063534
     82          1           0       -5.912983    0.229647   -0.134746
     83          1           0        4.697172    2.540123    0.447961
     84          1           0       -4.969981   -2.834630   -0.382928
     85          1           0        3.712145   -0.479788   -0.040404
     86          1           0       -3.800500   -0.263102   -0.120904
     87          1           0        2.827727    3.107108    1.438844
     88          1           0        1.171916    2.993563    0.523639
     89          1           0        2.728653    3.472773   -0.055810
     90          1           0       -3.183530   -3.496785   -1.405495
     91          1           0       -3.038682   -3.853336    0.210641
     92          1           0       -1.620244   -4.031424   -0.628890
     93          1           0        0.088980    1.016982   -0.167972
     94          1           0       -1.473820   -0.176433    0.029826
     95          1           0        2.027590   -1.548750   -0.343011
     96          1           0        0.003718   -2.916142   -0.162608
 ---------------------------------------------------------------------

 SCF Done:  E(RB3LYP) =  -1557.57600070     A.U. after   14 cycles

 Excitation energies and oscillator strengths:

 Excited State   1:      Singlet-A      2.4377 eV  508.61 nm  f=2.5787  <S**2>=0.000
     148 ->149         0.69722
 This state for optimization and/or second-order correction.
 Total Energy, E(TD-HF/TD-DFT) =  -1557.48641582
 Copying the excited state density for this state as the 1-particle RhoCI density.

 The electronic state is 1-A.
 Alpha  occ. eigenvalues --  -10.21436 -10.20924 -10.20873 -10.20343 -10.20296
 Alpha  occ. eigenvalues --  -10.20281 -10.20280 -10.20149 -10.19918 -10.19843
 Alpha  occ. eigenvalues --  -10.19815 -10.19687 -10.19583 -10.19490 -10.19482
 Alpha  occ. eigenvalues --  -10.19444 -10.19437 -10.19122 -10.19104 -10.18998
 Alpha  occ. eigenvalues --  -10.18967 -10.18966 -10.18924 -10.18874 -10.18557
 Alpha  occ. eigenvalues --  -10.18442 -10.18278 -10.18217 -10.18210 -10.18192
 Alpha  occ. eigenvalues --  -10.18186 -10.18118 -10.18021 -10.17961 -10.17950
 Alpha  occ. eigenvalues --  -10.17456 -10.17403 -10.17381 -10.17159 -10.16500
 Alpha  occ. eigenvalues --   -0.84869  -0.83899  -0.83507  -0.83200  -0.81904
 Alpha  occ. eigenvalues --   -0.80966  -0.78813  -0.78328  -0.78069  -0.77471
 Alpha  occ. eigenvalues --   -0.76935  -0.75058  -0.73828  -0.72169  -0.71706
 Alpha  occ. eigenvalues --   -0.70493  -0.68779  -0.68644  -0.67800  -0.67590
 Alpha  occ. eigenvalues --   -0.67227  -0.67042  -0.66769  -0.65998  -0.65786
 Alpha  occ. eigenvalues --   -0.62611  -0.61229  -0.59557  -0.58876  -0.56898
 Alpha  occ. eigenvalues --   -0.56416  -0.54857  -0.54614  -0.53958  -0.53117
 Alpha  occ. eigenvalues --   -0.52182  -0.51665  -0.50599  -0.49446  -0.48975
 Alpha  occ. eigenvalues --   -0.48370  -0.47971  -0.47295  -0.46749  -0.46426
 Alpha  occ. eigenvalues --   -0.45757  -0.45234  -0.44994  -0.44633  -0.44029
 Alpha  occ. eigenvalues --   -0.43964  -0.43077  -0.42511  -0.42064  -0.42016
 Alpha  occ. eigenvalues --   -0.41558  -0.41302  -0.41193  -0.41138  -0.40976
 Alpha  occ. eigenvalues --   -0.40311  -0.39823  -0.39493  -0.39376  -0.39148
 Alpha  occ. eigenvalues --   -0.38823  -0.38676  -0.38454  -0.38244  -0.37913
 Alpha  occ. eigenvalues --   -0.37810  -0.37743  -0.37343  -0.37254  -0.36704
 Alpha  occ. eigenvalues --   -0.36383  -0.36209  -0.35980  -0.35317  -0.35305
 Alpha  occ. eigenvalues --   -0.34724  -0.34680  -0.34584  -0.34374  -0.34204
 Alpha  occ. eigenvalues --   -0.33812  -0.33533  -0.32831  -0.32764  -0.32346
 Alpha  occ. eigenvalues --   -0.31840  -0.31652  -0.31429  -0.31221  -0.30973
 Alpha  occ. eigenvalues --   -0.30192  -0.29596  -0.29306  -0.28941  -0.28346
 Alpha  occ. eigenvalues --   -0.27823  -0.27204  -0.25666  -0.24242  -0.22676
 Alpha  occ. eigenvalues --   -0.21127  -0.19424  -0.17108
 Alpha virt. eigenvalues --   -0.07656  -0.04456  -0.01655   0.00423   0.02755
 Alpha virt. eigenvalues --    0.03866   0.05564   0.06317   0.06452   0.06654
 Alpha virt. eigenvalues --    0.07195   0.07361   0.08055   0.08340   0.08674

 Mulliken charges:
               1
     1  C   -0.003271
     2  C    0.022784
     3  C   -0.171767
     4  C   -0.167280
     5  C   -0.180531
     6  C   -0.187260
     7  C    0.095885
     8  C    0.047453
     9  C   -0.224794
    10  C   -0.204321
    11  C    0.042501
    12  C    0.041559
    13  C   -0.284088
    14  C   -0.313181
    15  C   -0.306931
    16  C   -0.273578
    17  C   -0.167299
    18  C   -0.159197
    19  C   -0.346916
    20  C   -0.357630
    21  C   -0.076852
    22  C   -0.071942
    23  C    0.123396
    24  C    0.096184
    25  C   -0.361604
    26  C   -0.373719
    27  C   -0.123658
    28  C   -0.126447
    29  C   -0.088895
    30  C   -0.083704
    31  C   -0.085833
    32  C   -0.083626
    33  C    0.113797
    34  C    0.082076
    35  C   -0.383027
    36  C   -0.367993
    37  C   -0.139488
    38  C   -0.104683
    39  C   -0.081192
    40  C   -0.106863
    41  H    0.066407
    42  H    0.083295
    43  H    0.070547
    44  H    0.095902
    45  H    0.079029
    46  H    0.109149
    47  H    0.098574
    48  H    0.057345
    49  H    0.111291
    50  H    0.097904
    51  H    0.123013
    52  H    0.102728
    53  H    0.106981
    54  H    0.064400
    55  H    0.110635
    56  H    0.096813
    57  H    0.095707
    58  H    0.107402
    59  H    0.104174
    60  H    0.089081
    61  H    0.083482
    62  H    0.101688
    63  H    0.074478
    64  H    0.096947
    65  H    0.080356
    66  H    0.079649
    67  H    0.120494
    68  H    0.099582
    69  H    0.095149
    70  H    0.120848
    71  H    0.115446
    72  H    0.082017
    73  H    0.073022
    74  H    0.067237
    75  H    0.131602
    76  H    0.096070
    77  H    0.113018
    78  H    0.137831
    79  H    0.125857
    80  H    0.118708
    81  H    0.081627
    82  H    0.068970
    83  H    0.074839
    84  H    0.061349
    85  H    0.081907
    86  H    0.058470
    87  H    0.092080
    88  H    0.102005
    89  H    0.119938
    90  H    0.142304
    91  H    0.121550
    92  H    0.120135
    93  H    0.102858
    94  H    0.073414
    95  H    0.076508
    96  H    0.080121
 Sum of Mulliken charges =  -0.00000

 Dipole moment (field-independent basis, Debye):
    X=              0.7013    Y=              0.0125    Z=             -0.2580  Tot=              0.7474
 Quadrupole moment (field-independent basis, Debye-Ang):
   XX=           -229.9789   YY=           -231.8964   ZZ=           -259.3663
   XY=             -5.0317   XZ=             -7.0316   YZ=              2.8827

 Normal termination of Gaussian 16 at Wed Jul 31 16:28:21 2019.
