 Gaussian 16, Revision A.03,
 Gaussian 16:  ES64L-G16RevA.03 25-Dec-2016

 ---------------------------------
 # td=(NStates=1) B3LYP/6-31G(d,p)
 ---------------------------------

 --
 TD
 --
 Symbolic Z-matrix:
 Charge =  0 Multiplicity = 1

                         Standard orientation:
 ---------------------------------------------------------------------
 Center     Atomic      Atomic             Coordinates (Angstroms)
 Number     Number       Type             X           Y           Z
 ---------------------------------------------------------------------
      1          6           0       12.061661    0.486827   -0.731929
      2          6           0      -12.263732   -0.061695    0.693053
      3          6           0       13.377389   -0.398751   -0.711483
      4          6           0      -13.091204    1.026742    1.031377
      5          6           0       13.106992   -1.830223   -0.943835
      6          6           0      -13.460150    1.943821   -0.142248
      7          6           0       11.108058   -0.076623    0.171505
      8          6           0      -11.007890    0.331808   -0.170130
      9          6           0       12.242350   -2.314065    0.406571
     10          6           0      -12.133734    2.626096   -0.611407
     11          6           0       11.149754   -1.273867    0.729704
     12          6           0      -11.018951    1.623349   -0.701791
     13          6           0       11.588600    0.798883   -2.142190
     14          6           0       12.535026    1.830242   -0.118590
     15          6           0      -13.007493   -1.282582   -0.072343
     16          6           0      -11.712458   -0.617976    1.997656
     17          6           0        9.885643    0.791870    0.502571
     18          6           0       -9.852933   -0.579687   -0.163066
     19          6           0       10.072263   -1.753059    1.815279
     20          6           0       -9.857956    2.170349   -1.696022
     21          6           0        8.568076    0.472311    0.210645
     22          6           0       -8.525585   -0.248988   -0.165325
     23          6           0        7.499073    1.267355    0.433482
     24          6           0       -7.462307   -1.321081   -0.325828
     25          6           0        7.635130    2.668686    0.869372
     26          6           0       -7.773279   -2.749810   -0.516460
     27          6           0        6.165708    0.750407    0.271220
     28          6           0       -6.235366   -0.863593   -0.130417
     29          6           0        4.937785    1.340176    0.309556
     30          6           0       -4.995225   -1.654792   -0.203354
     31          6           0        3.753556    0.783649    0.177555
     32          6           0       -3.808943   -1.019555   -0.085882
     33          6           0        2.432048    1.390822    0.241968
     34          6           0       -2.491556   -1.800253   -0.233103
     35          6           0        2.289248    2.845255    0.644421
     36          6           0       -2.579367   -3.182288   -0.676250
     37          6           0        1.358169    0.636240    0.161862
     38          6           0       -1.357983   -0.937664   -0.044876
     39          6           0        1.232054   -0.765185   -0.112465
     40          6           0       -0.007786   -1.438848   -0.193656
     41          1           0       13.924460   -0.108316    0.214379
     42          1           0       14.047197   -0.022484   -1.564685
     43          1           0      -12.429072    1.594738    1.757359
     44          1           0      -13.981674    0.584791    1.567582
     45          1           0       14.069638   -2.374078   -0.900330
     46          1           0       12.536314   -2.292497   -1.852715
     47          1           0      -14.310880    2.661857    0.057534
     48          1           0      -14.044760    1.179718   -0.897952
     49          1           0       12.868510   -2.003585    1.200218
     50          1           0       11.733125   -3.383697    0.370645
     51          1           0      -11.777143    3.306877    0.097305
     52          1           0      -12.188386    3.086738   -1.518824
     53          1           0       11.529788   -0.188437   -2.791778
     54          1           0       12.475676    1.472455   -2.334939
     55          1           0       10.771294    1.466046   -1.967783
     56          1           0       12.779167    1.882122    1.034963
     57          1           0       11.797862    2.828336   -0.216031
     58          1           0       13.526287    2.193430   -0.562827
     59          1           0      -13.532721   -0.891341   -0.997293
     60          1           0      -13.785900   -1.608412    0.791081
     61          1           0      -12.265961   -2.035224   -0.311363
     62          1           0      -11.179734    0.346471    2.703451
     63          1           0      -10.829344   -1.330763    2.030421
     64          1           0      -12.594023   -1.153376    2.730184
     65          1           0        9.944291    1.919875    0.500611
     66          1           0      -10.075684   -1.783745   -0.252773
     67          1           0        9.696528   -0.917747    2.255423
     68          1           0       10.723489   -2.190069    2.573880
     69          1           0        9.197220   -2.335288    1.557035
     70          1           0       -9.431097    1.234838   -2.125270
     71          1           0       -9.165057    2.840349   -1.245331
     72          1           0      -10.571676    2.861305   -2.350663
     73          1           0        8.219231   -0.627400    0.304256
     74          1           0       -8.421066    0.842347   -0.245986
     75          1           0        8.050003    2.695205    1.906212
     76          1           0        6.686475    3.300541    0.899636
     77          1           0        8.507877    3.012626    0.318096
     78          1           0       -8.457689   -2.958764   -1.369676
     79          1           0       -8.328118   -3.159727    0.332605
     80          1           0       -6.847976   -3.604662   -0.633992
     81          1           0        6.105382   -0.334896    0.193062
     82          1           0       -6.254665    0.148801    0.154186
     83          1           0        4.819989    2.590736    0.569151
     84          1           0       -5.056478   -2.781773   -0.336400
     85          1           0        3.792547   -0.250773    0.096624
     86          1           0       -3.925907    0.053852    0.260051
     87          1           0        2.672522    3.254043    1.655547
     88          1           0        1.166541    3.322005    0.632442
     89          1           0        2.804978    3.566064   -0.084530
     90          1           0       -3.187049   -3.245304   -1.723076
     91          1           0       -3.251135   -3.617854    0.129994
     92          1           0       -1.837051   -3.744228   -0.825720
     93          1           0        0.452767    1.154894    0.153080
     94          1           0       -1.461440    0.004974    0.244655
     95          1           0        2.085758   -1.585494   -0.084478
     96          1           0        0.078662   -2.561908   -0.748134
 ---------------------------------------------------------------------

 SCF Done:  E(RB3LYP) =  -1557.50624046     A.U. after   16 cycles

 Excitation energies and oscillator strengths:

 Excited State   1:      Singlet-A      2.2216 eV  558.08 nm  f=2.8985  <S**2>=0.000
     148 ->149         0.70364
     148 <-149        -0.10096
 This state for optimization and/or second-order correction.
 Total Energy, E(TD-HF/TD-DFT) =  -1557.42459780
 Copying the excited state density for this state as the 1-particle RhoCI density.

 The electronic state is 1-A.
 Alpha  occ. eigenvalues --  -10.21789 -10.20637 -10.20279 -10.20277 -10.20169
 Alpha  occ. eigenvalues --  -10.20064 -10.19894 -10.19877 -10.19852 -10.19840
 Alpha  occ. eigenvalues --  -10.19832 -10.19668 -10.19649 -10.19567 -10.19555
 Alpha  occ. eigenvalues --  -10.19495 -10.19329 -10.19240 -10.19193 -10.19110
 Alpha  occ. eigenvalues --  -10.19109 -10.19088 -10.19076 -10.19062 -10.18933
 Alpha  occ. eigenvalues --  -10.18918 -10.18885 -10.18856 -10.18559 -10.18455
 Alpha  occ. eigenvalues --  -10.18139 -10.18016 -10.17982 -10.17947 -10.17878
 Alpha  occ. eigenvalues --  -10.17771 -10.17530 -10.17496 -10.17443 -10.16624
 Alpha  occ. eigenvalues --   -0.85634  -0.85395  -0.83960  -0.83268  -0.82676
 Alpha  occ. eigenvalues --   -0.81616  -0.78813  -0.78588  -0.77877  -0.77424
 Alpha  occ. eigenvalues --   -0.76329  -0.75565  -0.74156  -0.71381  -0.71359
 Alpha  occ. eigenvalues --   -0.70541  -0.68865  -0.68685  -0.68056  -0.67456
 Alpha  occ. eigenvalues --   -0.67234  -0.67048  -0.66152  -0.65887  -0.65718
 Alpha  occ. eigenvalues --   -0.62818  -0.61325  -0.59815  -0.58901  -0.56590
 Alpha  occ. eigenvalues --   -0.56364  -0.55795  -0.54208  -0.53677  -0.53047
 Alpha  occ. eigenvalues --   -0.52076  -0.51558  -0.50169  -0.49364  -0.48847
 Alpha  occ. eigenvalues --   -0.48387  -0.48080  -0.47565  -0.46738  -0.46030
 Alpha  occ. eigenvalues --   -0.45452  -0.44809  -0.44499  -0.44098  -0.43851
 Alpha  occ. eigenvalues --   -0.43557  -0.43021  -0.42848  -0.42489  -0.41943
 Alpha  occ. eigenvalues --   -0.41769  -0.41691  -0.41452  -0.41144  -0.40530
 Alpha  occ. eigenvalues --   -0.40332  -0.40015  -0.39691  -0.39484  -0.39409
 Alpha  occ. eigenvalues --   -0.38689  -0.38384  -0.38285  -0.38131  -0.37831
 Alpha  occ. eigenvalues --   -0.37742  -0.37259  -0.37182  -0.36597  -0.36439
 Alpha  occ. eigenvalues --   -0.36186  -0.36106  -0.35761  -0.35070  -0.35048
 Alpha  occ. eigenvalues --   -0.34695  -0.34482  -0.34446  -0.34016  -0.33858
 Alpha  occ. eigenvalues --   -0.33564  -0.33353  -0.33135  -0.32878  -0.32244
 Alpha  occ. eigenvalues --   -0.32029  -0.31913  -0.31737  -0.31513  -0.31012
 Alpha  occ. eigenvalues --   -0.30128  -0.30035  -0.29387  -0.29065  -0.28274
 Alpha  occ. eigenvalues --   -0.27827  -0.27452  -0.26416  -0.23887  -0.22772
 Alpha  occ. eigenvalues --   -0.20907  -0.18851  -0.16404
 Alpha virt. eigenvalues --   -0.08063  -0.05218  -0.02307   0.01304   0.03093
 Alpha virt. eigenvalues --    0.04409   0.05386   0.06033   0.06475   0.06539
 Alpha virt. eigenvalues --    0.06768   0.07174   0.07790   0.08187   0.08334

 Mulliken charges:
               1
     1  C   -0.031768
     2  C    0.018363
     3  C   -0.185631
     4  C   -0.158386
     5  C   -0.185562
     6  C   -0.182701
     7  C    0.165678
     8  C    0.091396
     9  C   -0.231809
    10  C   -0.205969
    11  C   -0.004166
    12  C   -0.006733
    13  C   -0.267081
    14  C   -0.314345
    15  C   -0.291247
    16  C   -0.267872
    17  C   -0.184832
    18  C   -0.134001
    19  C   -0.361070
    20  C   -0.362942
    21  C   -0.091356
    22  C   -0.118120
    23  C    0.160979
    24  C    0.134727
    25  C   -0.380522
    26  C   -0.386565
    27  C   -0.152280
    28  C   -0.119206
    29  C   -0.029801
    30  C   -0.075417
    31  C   -0.103241
    32  C   -0.110946
    33  C    0.147949
    34  C    0.090828
    35  C   -0.384588
    36  C   -0.343954
    37  C   -0.126202
    38  C   -0.079570
    39  C   -0.082865
    40  C   -0.115839
    41  H    0.106112
    42  H    0.079037
    43  H    0.087351
    44  H    0.079481
    45  H    0.096364
    46  H    0.097931
    47  H    0.086611
    48  H    0.069506
    49  H    0.125169
    50  H    0.091951
    51  H    0.129211
    52  H    0.106438
    53  H    0.096921
    54  H    0.097398
    55  H    0.114214
    56  H    0.093792
    57  H    0.070028
    58  H    0.093535
    59  H    0.102710
    60  H    0.077936
    61  H    0.111562
    62  H    0.050964
    63  H    0.109418
    64  H    0.058699
    65  H    0.062798
    66  H    0.060363
    67  H    0.131315
    68  H    0.096784
    69  H    0.114635
    70  H    0.134103
    71  H    0.124960
    72  H    0.079735
    73  H    0.070011
    74  H    0.097684
    75  H    0.121953
    76  H    0.109516
    77  H    0.114207
    78  H    0.119803
    79  H    0.132142
    80  H    0.084894
    81  H    0.066902
    82  H    0.075339
    83  H    0.039181
    84  H    0.078042
    85  H    0.070634
    86  H    0.088352
    87  H    0.119355
    88  H    0.083998
    89  H    0.110285
    90  H    0.109019
    91  H    0.122195
    92  H    0.116694
    93  H    0.078811
    94  H    0.078670
    95  H    0.085249
    96  H    0.056699
 Sum of Mulliken charges =  -0.00000

 Dipole moment (field-independent basis, Debye):
    X=             -0.1651    Y=             -0.3093    Z=              0.1598  Tot=              0.3853
 Quadrupole moment (field-independent basis, Debye-Ang):
   XX=           -225.5655   YY=           -233.0133   ZZ=           -259.0509
   XY=             -5.4039   XZ=              6.6749   YZ=              4.6115

 Normal termination of Gaussian 16 at Sun Jul 28 05:21:13 2019.
