 Gaussian 16, Revision A.03,
 Gaussian 16:  ES64L-G16RevA.03 25-Dec-2016

 ---------------------------------
 # td=(NStates=1) B3LYP/6-31G(d,p)
 ---------------------------------

 --
 TD
 --
 Symbolic Z-matrix:
 Charge =  0 Multiplicity = 1

                         Standard orientation:
 ---------------------------------------------------------------------
 Center     Atomic      Atomic             Coordinates (Angstroms)
 Number     Number       Type             X           Y           Z
 ---------------------------------------------------------------------
      1          6           0      -12.039204   -0.525961   -0.654637
      2          6           0       11.956555   -0.051514    1.144739
      3          6           0      -13.346141    0.358009   -0.450997
      4          6           0       12.783228   -1.236126    1.523124
      5          6           0      -13.080035    1.830034   -0.267557
      6          6           0       13.275273   -2.086188    0.380704
      7          6           0      -10.916560   -0.097918    0.488352
      8          6           0       10.836333   -0.543828    0.110679
      9          6           0      -12.373014    1.951637    1.045049
     10          6           0       12.018310   -2.643753   -0.359595
     11          6           0      -11.063013    1.063221    1.206649
     12          6           0       10.940902   -1.655121   -0.628546
     13          6           0      -11.513428   -0.352602   -2.136509
     14          6           0      -12.453053   -1.992801   -0.444631
     15          6           0       12.840634    0.971190    0.399178
     16          6           0       11.282694    0.592830    2.309509
     17          6           0       -9.717120   -0.859323    0.387956
     18          6           0        9.890476    0.530740   -0.172383
     19          6           0      -10.228469    1.448149    2.287047
     20          6           0       10.019153   -2.057998   -1.847084
     21          6           0       -8.483017   -0.462445    0.300081
     22          6           0        8.522801    0.337640   -0.297005
     23          6           0       -7.277982   -1.340133    0.468191
     24          6           0        7.525063    1.371096   -0.465353
     25          6           0       -7.518282   -2.797297    0.540118
     26          6           0        7.982086    2.823675   -0.799925
     27          6           0       -6.042807   -0.787436    0.233542
     28          6           0        6.205821    1.001233   -0.478103
     29          6           0       -4.838641   -1.494064    0.181606
     30          6           0        4.973795    1.812423   -0.502325
     31          6           0       -3.651890   -0.836776   -0.017742
     32          6           0        3.758662    1.256309   -0.565564
     33          6           0       -2.318508   -1.278355    0.000531
     34          6           0        2.526638    1.933081   -0.590213
     35          6           0       -2.125464   -2.844271    0.092571
     36          6           0        2.499675    3.398406   -0.846552
     37          6           0       -1.150335   -0.508647   -0.204675
     38          6           0        1.372842    1.235396   -0.494081
     39          6           0       -1.112162    0.931559   -0.299664
     40          6           0        0.015140    1.767721   -0.472672
     41          1           0      -13.799142   -0.235548    0.380907
     42          1           0      -13.960178    0.317341   -1.445096
     43          1           0       12.125776   -1.795445    2.247978
     44          1           0       13.509440   -0.956033    2.230234
     45          1           0      -14.013868    2.400716   -0.435984
     46          1           0      -12.401036    2.170018   -0.895074
     47          1           0       13.818002   -3.017359    0.889649
     48          1           0       14.013416   -1.469058   -0.323977
     49          1           0      -12.924684    1.859549    1.928416
     50          1           0      -12.036571    3.018997    1.007064
     51          1           0       11.583699   -3.369344    0.221947
     52          1           0       12.259168   -3.278934   -1.343329
     53          1           0      -11.426679    0.646350   -2.375942
     54          1           0      -12.300363   -0.650485   -2.888352
     55          1           0      -10.517082   -0.841844   -2.433089
     56          1           0      -12.673405   -2.317633    0.601395
     57          1           0      -11.540793   -2.550641   -0.742111
     58          1           0      -13.287191   -2.201487   -0.849960
     59          1           0       13.297305    0.422478   -0.341093
     60          1           0       13.892591    1.122384    0.962161
     61          1           0       12.518975    1.879040    0.092008
     62          1           0       10.536918    0.116477    2.853876
     63          1           0       10.663471    1.452031    1.925957
     64          1           0       12.136525    1.110804    2.916370
     65          1           0      -10.247187   -1.935494    0.223919
     66          1           0       10.057901    1.628999    0.032102
     67          1           0       -9.543811    0.691910    2.679237
     68          1           0      -10.799269    1.609187    3.199030
     69          1           0       -9.645237    2.397415    2.170035
     70          1           0        9.300215   -1.221152   -1.979020
     71          1           0        9.167534   -2.896419   -1.705198
     72          1           0       10.399763   -2.343203   -2.799443
     73          1           0       -8.463009    0.719881    0.338770
     74          1           0        8.181870   -0.686801   -0.197317
     75          1           0       -8.262126   -3.116889    1.192889
     76          1           0       -6.659279   -3.303198    0.836587
     77          1           0       -7.665642   -3.112096   -0.761206
     78          1           0        8.590972    2.886503   -1.400493
     79          1           0        8.325391    3.461594    0.158294
     80          1           0        7.040141    3.459139   -1.070665
     81          1           0       -5.732611    0.339868    0.152642
     82          1           0        5.849997    0.176197   -0.302902
     83          1           0       -4.744213   -2.535015    0.060117
     84          1           0        4.941829    2.903535   -0.732301
     85          1           0       -3.809203    0.380457   -0.070149
     86          1           0        3.707554    0.204202   -0.384074
     87          1           0       -2.519084   -3.334276    1.029468
     88          1           0       -1.118776   -3.066295    0.088639
     89          1           0       -2.661366   -3.356118   -0.727059
     90          1           0        3.353560    3.715849   -1.580263
     91          1           0        2.798902    3.958538    0.102486
     92          1           0        1.475590    3.910179   -1.254083
     93          1           0       -0.135323   -0.771747   -0.548427
     94          1           0        1.460422    0.130285   -0.329882
     95          1           0       -1.902555    1.518175   -0.365007
     96          1           0       -0.078974    2.783681   -0.863562
 ---------------------------------------------------------------------

 SCF Done:  E(RB3LYP) =  -1557.51177261     A.U. after   15 cycles

 Excitation energies and oscillator strengths:

 Excited State   1:      Singlet-A      2.0637 eV  600.80 nm  f=2.8999  <S**2>=0.000
     148 ->149         0.70636
     148 <-149        -0.10985
 This state for optimization and/or second-order correction.
 Total Energy, E(TD-HF/TD-DFT) =  -1557.43593460
 Copying the excited state density for this state as the 1-particle RhoCI density.

 The electronic state is 1-A.
 Alpha  occ. eigenvalues --  -10.21146 -10.20602 -10.20580 -10.20299 -10.20279
 Alpha  occ. eigenvalues --  -10.20199 -10.19865 -10.19730 -10.19716 -10.19492
 Alpha  occ. eigenvalues --  -10.19487 -10.19348 -10.19296 -10.19149 -10.19145
 Alpha  occ. eigenvalues --  -10.18998 -10.18704 -10.18686 -10.18531 -10.18496
 Alpha  occ. eigenvalues --  -10.18456 -10.18438 -10.18406 -10.18273 -10.18261
 Alpha  occ. eigenvalues --  -10.18205 -10.18203 -10.18149 -10.18112 -10.17974
 Alpha  occ. eigenvalues --  -10.17867 -10.17737 -10.17270 -10.17237 -10.17225
 Alpha  occ. eigenvalues --  -10.17044 -10.16946 -10.16645 -10.16434 -10.16136
 Alpha  occ. eigenvalues --   -0.85324  -0.84430  -0.84010  -0.83225  -0.81864
 Alpha  occ. eigenvalues --   -0.81262  -0.79272  -0.78591  -0.78419  -0.78020
 Alpha  occ. eigenvalues --   -0.77047  -0.75638  -0.74561  -0.73127  -0.71697
 Alpha  occ. eigenvalues --   -0.70107  -0.68929  -0.68830  -0.68669  -0.68188
 Alpha  occ. eigenvalues --   -0.67547  -0.67476  -0.67315  -0.66583  -0.66327
 Alpha  occ. eigenvalues --   -0.63042  -0.62106  -0.60332  -0.59528  -0.57608
 Alpha  occ. eigenvalues --   -0.57322  -0.56079  -0.55152  -0.54436  -0.53526
 Alpha  occ. eigenvalues --   -0.53014  -0.52604  -0.50443  -0.50113  -0.48823
 Alpha  occ. eigenvalues --   -0.48296  -0.48048  -0.47222  -0.46666  -0.46521
 Alpha  occ. eigenvalues --   -0.45771  -0.45407  -0.45015  -0.44435  -0.44131
 Alpha  occ. eigenvalues --   -0.43285  -0.43089  -0.42836  -0.42526  -0.41982
 Alpha  occ. eigenvalues --   -0.41858  -0.41682  -0.41556  -0.40853  -0.40824
 Alpha  occ. eigenvalues --   -0.40525  -0.40392  -0.40129  -0.39748  -0.39390
 Alpha  occ. eigenvalues --   -0.39185  -0.38914  -0.38684  -0.38669  -0.38231
 Alpha  occ. eigenvalues --   -0.37854  -0.37531  -0.37070  -0.36782  -0.36625
 Alpha  occ. eigenvalues --   -0.36410  -0.36179  -0.35842  -0.35538  -0.35188
 Alpha  occ. eigenvalues --   -0.35110  -0.34839  -0.34642  -0.34240  -0.33843
 Alpha  occ. eigenvalues --   -0.33697  -0.32918  -0.32778  -0.32610  -0.32546
 Alpha  occ. eigenvalues --   -0.32280  -0.31995  -0.31707  -0.31451  -0.31041
 Alpha  occ. eigenvalues --   -0.30925  -0.30434  -0.30187  -0.29212  -0.28086
 Alpha  occ. eigenvalues --   -0.27922  -0.27581  -0.26390  -0.24596  -0.22898
 Alpha  occ. eigenvalues --   -0.21106  -0.18778  -0.16292
 Alpha virt. eigenvalues --   -0.08613  -0.05192  -0.01921   0.00260   0.02475
 Alpha virt. eigenvalues --    0.04078   0.06229   0.06778   0.07643   0.07756
 Alpha virt. eigenvalues --    0.08022   0.08168   0.08371   0.08806   0.09016

 Mulliken charges:
               1
     1  C   -0.000730
     2  C    0.003924
     3  C   -0.175877
     4  C   -0.169929
     5  C   -0.167729
     6  C   -0.183694
     7  C    0.041528
     8  C    0.068809
     9  C   -0.227942
    10  C   -0.211738
    11  C    0.054531
    12  C    0.071880
    13  C   -0.307906
    14  C   -0.303966
    15  C   -0.290042
    16  C   -0.294226
    17  C   -0.068739
    18  C   -0.148572
    19  C   -0.380602
    20  C   -0.375322
    21  C   -0.112012
    22  C   -0.103972
    23  C    0.059397
    24  C    0.095389
    25  C   -0.330420
    26  C   -0.333799
    27  C   -0.092727
    28  C   -0.068917
    29  C   -0.045592
    30  C   -0.097952
    31  C   -0.119825
    32  C   -0.110323
    33  C    0.092672
    34  C    0.170120
    35  C   -0.376589
    36  C   -0.387181
    37  C   -0.124587
    38  C   -0.131895
    39  C   -0.056411
    40  C   -0.123406
    41  H    0.090893
    42  H    0.064403
    43  H    0.084562
    44  H    0.089356
    45  H    0.088116
    46  H    0.115807
    47  H    0.077975
    48  H    0.090248
    49  H    0.110462
    50  H    0.084220
    51  H    0.128065
    52  H    0.074673
    53  H    0.110938
    54  H    0.090904
    55  H    0.097575
    56  H    0.090881
    57  H    0.103805
    58  H    0.110582
    59  H    0.112113
    60  H    0.062312
    61  H    0.112864
    62  H    0.111514
    63  H    0.090432
    64  H    0.082718
    65  H    0.059362
    66  H    0.087272
    67  H    0.120391
    68  H    0.106601
    69  H    0.108326
    70  H    0.117503
    71  H    0.083086
    72  H    0.120489
    73  H    0.081086
    74  H    0.085750
    75  H    0.128263
    76  H    0.119537
    77  H    0.077386
    78  H    0.124236
    79  H    0.089779
    80  H    0.097660
    81  H    0.077160
    82  H    0.043683
    83  H    0.083460
    84  H    0.061715
    85  H    0.051489
    86  H    0.071013
    87  H    0.110362
    88  H    0.117165
    89  H    0.116645
    90  H    0.108203
    91  H    0.121486
    92  H    0.096948
    93  H    0.097869
    94  H    0.070476
    95  H    0.069676
    96  H    0.084885
 Sum of Mulliken charges =  -0.00000

 Dipole moment (field-independent basis, Debye):
    X=             -0.9360    Y=             -0.0867    Z=              0.0832  Tot=              0.9437
 Quadrupole moment (field-independent basis, Debye-Ang):
   XX=           -222.1164   YY=           -233.8872   ZZ=           -253.2830
   XY=             -2.1193   XZ=             -1.3355   YZ=             -2.7646

 Normal termination of Gaussian 16 at Wed Jul 31 14:02:36 2019.
