 Gaussian 16, Revision A.03,
 Gaussian 16:  ES64L-G16RevA.03 25-Dec-2016

 ---------------------------------
 # td=(NStates=1) B3LYP/6-31G(d,p)
 ---------------------------------

 --
 TD
 --
 Symbolic Z-matrix:
 Charge =  0 Multiplicity = 1

                         Standard orientation:
 ---------------------------------------------------------------------
 Center     Atomic      Atomic             Coordinates (Angstroms)
 Number     Number       Type             X           Y           Z
 ---------------------------------------------------------------------
      1          6           0       12.052438   -0.530265    0.773034
      2          6           0      -12.067247    0.070621   -0.811883
      3          6           0       13.396706    0.156769    0.717585
      4          6           0      -12.947713   -1.130375   -1.172067
      5          6           0       13.214727    1.724157    0.644705
      6          6           0      -13.217881   -2.083341   -0.080786
      7          6           0       10.932398   -0.034886   -0.212335
      8          6           0      -10.961094   -0.452387    0.148827
      9          6           0       12.360243    2.103925   -0.592110
     10          6           0      -11.973338   -2.668425    0.403759
     11          6           0       11.130626    1.196964   -0.821862
     12          6           0      -10.917199   -1.668466    0.733218
     13          6           0       11.561525   -0.503223    2.280510
     14          6           0       12.402916   -2.005120    0.445233
     15          6           0      -12.958032    1.183445   -0.148506
     16          6           0      -11.515277    0.576700   -2.131070
     17          6           0        9.731492   -0.823870   -0.370671
     18          6           0       -9.863236    0.621633    0.337505
     19          6           0       10.152650    1.877765   -1.778623
     20          6           0       -9.934917   -2.072090    1.779529
     21          6           0        8.465718   -0.431228   -0.339425
     22          6           0       -8.607861    0.373641    0.587059
     23          6           0        7.287455   -1.308436   -0.536659
     24          6           0       -7.491729    1.272529    0.670830
     25          6           0        7.598310   -2.773847   -0.804158
     26          6           0       -7.870354    2.703343    0.714261
     27          6           0        5.986526   -0.752485   -0.383417
     28          6           0       -6.104515    0.841072    0.466942
     29          6           0        4.746931   -1.426053   -0.473372
     30          6           0       -4.969594    1.676847    0.445108
     31          6           0        3.671911   -0.753891   -0.198762
     32          6           0       -3.767304    1.143348    0.178679
     33          6           0        2.333232   -1.279528   -0.331845
     34          6           0       -2.443582    1.780692    0.234702
     35          6           0        2.200720   -2.752258   -0.649515
     36          6           0       -2.520687    3.338594    0.483812
     37          6           0        1.149490   -0.518348   -0.280665
     38          6           0       -1.354257    1.114732    0.109987
     39          6           0        1.132929    0.872900   -0.053468
     40          6           0        0.036529    1.675451    0.050715
     41          1           0       14.133730   -0.318374   -0.060073
     42          1           0       14.117667   -0.086119    1.702610
     43          1           0      -12.558741   -1.922637   -1.969023
     44          1           0      -13.847738   -0.629209   -1.645793
     45          1           0       14.365762    2.037469    0.600944
     46          1           0       12.647973    1.949956    1.466518
     47          1           0      -14.045270   -2.884346   -0.352858
     48          1           0      -13.875198   -1.619322    0.642720
     49          1           0       13.018949    2.015092   -1.556357
     50          1           0       12.062302    3.119058   -0.558001
     51          1           0      -11.429801   -3.455089   -0.289025
     52          1           0      -12.061795   -3.324677    1.274649
     53          1           0       11.570464    0.570388    2.407162
     54          1           0       12.363386   -1.210446    2.869926
     55          1           0       10.662221   -1.132700    2.388872
     56          1           0       12.716835   -2.102846   -0.701311
     57          1           0       11.609264   -2.623262    0.682977
     58          1           0       13.231466   -2.408611    1.105987
     59          1           0      -13.329238    0.715326    0.773179
     60          1           0      -13.868391    1.474959   -0.752074
     61          1           0      -12.539935    2.195881    0.246616
     62          1           0      -10.777018   -0.279500   -2.414052
     63          1           0      -10.979889    1.552844   -1.932261
     64          1           0      -12.276312    0.841558   -2.855472
     65          1           0        9.859555   -1.893092   -0.407265
     66          1           0      -10.225368    1.452724    0.263647
     67          1           0        9.682351    0.889131   -2.298899
     68          1           0       10.753936    2.474929   -2.532487
     69          1           0        9.409018    2.598229   -1.255593
     70          1           0       -9.188102   -1.335289    2.153556
     71          1           0       -9.409362   -2.770550    1.175620
     72          1           0      -10.568871   -2.284470    2.675953
     73          1           0        8.081818    0.576929   -0.008207
     74          1           0       -8.294542   -0.733880    0.368267
     75          1           0        8.496672   -2.548532   -1.599988
     76          1           0        6.861362   -3.498132   -1.234664
     77          1           0        7.991182   -3.113978    0.205907
     78          1           0       -8.532751    3.074931    1.559795
     79          1           0       -8.396482    3.063080   -0.230449
     80          1           0       -6.964947    3.395972    0.971454
     81          1           0        5.952083    0.283072   -0.286001
     82          1           0       -5.944494   -0.212158    0.505183
     83          1           0        4.777485   -2.399462   -0.726918
     84          1           0       -5.238031    2.711759    0.534983
     85          1           0        3.711907    0.161460    0.266068
     86          1           0       -3.734296    0.101252   -0.041082
     87          1           0        2.740025   -2.970841   -1.557505
     88          1           0        1.165111   -3.071938   -0.688594
     89          1           0        3.030947   -3.373243    0.073647
     90          1           0       -2.927066    3.551849    1.478916
     91          1           0       -3.611172    3.749500   -0.155089
     92          1           0       -1.646405    4.173363    0.148224
     93          1           0        0.085501   -0.963967   -0.440604
     94          1           0       -1.580026    0.279717   -0.110180
     95          1           0        2.121214    1.511928    0.053531
     96          1           0        0.273121    2.624678   -0.145901
 ---------------------------------------------------------------------

 SCF Done:  E(RB3LYP) =  -1557.52616549     A.U. after   15 cycles

 Excitation energies and oscillator strengths:

 Excited State   1:      Singlet-A      2.2978 eV  539.59 nm  f=2.5774  <S**2>=0.000
     148 ->149         0.70639
 This state for optimization and/or second-order correction.
 Total Energy, E(TD-HF/TD-DFT) =  -1557.44172462
 Copying the excited state density for this state as the 1-particle RhoCI density.

 The electronic state is 1-A.
 Alpha  occ. eigenvalues --  -10.21161 -10.20715 -10.20371 -10.20359 -10.20309
 Alpha  occ. eigenvalues --  -10.19984 -10.19754 -10.19725 -10.19688 -10.19586
 Alpha  occ. eigenvalues --  -10.19480 -10.19384 -10.19345 -10.19267 -10.19239
 Alpha  occ. eigenvalues --  -10.19185 -10.19172 -10.18995 -10.18909 -10.18836
 Alpha  occ. eigenvalues --  -10.18662 -10.18618 -10.18547 -10.18522 -10.18493
 Alpha  occ. eigenvalues --  -10.18476 -10.18350 -10.18338 -10.18234 -10.18154
 Alpha  occ. eigenvalues --  -10.18120 -10.18048 -10.17924 -10.17763 -10.17691
 Alpha  occ. eigenvalues --  -10.17630 -10.17524 -10.17375 -10.16270 -10.16232
 Alpha  occ. eigenvalues --   -0.85568  -0.84551  -0.84151  -0.83704  -0.82050
 Alpha  occ. eigenvalues --   -0.81484  -0.79718  -0.79191  -0.78352  -0.77750
 Alpha  occ. eigenvalues --   -0.76758  -0.75864  -0.74686  -0.72556  -0.71786
 Alpha  occ. eigenvalues --   -0.69049  -0.68183  -0.67951  -0.67498  -0.67338
 Alpha  occ. eigenvalues --   -0.67076  -0.66960  -0.66724  -0.66344  -0.65787
 Alpha  occ. eigenvalues --   -0.62792  -0.62302  -0.59457  -0.58960  -0.57382
 Alpha  occ. eigenvalues --   -0.56977  -0.55784  -0.54994  -0.54628  -0.53785
 Alpha  occ. eigenvalues --   -0.52957  -0.52522  -0.50690  -0.49830  -0.49759
 Alpha  occ. eigenvalues --   -0.48851  -0.47952  -0.47482  -0.46736  -0.46203
 Alpha  occ. eigenvalues --   -0.45737  -0.45306  -0.44622  -0.44077  -0.43931
 Alpha  occ. eigenvalues --   -0.43602  -0.43259  -0.42808  -0.42546  -0.42414
 Alpha  occ. eigenvalues --   -0.42288  -0.41845  -0.41700  -0.41263  -0.41043
 Alpha  occ. eigenvalues --   -0.40937  -0.40315  -0.39945  -0.39437  -0.39212
 Alpha  occ. eigenvalues --   -0.39161  -0.38971  -0.38852  -0.38545  -0.38217
 Alpha  occ. eigenvalues --   -0.37922  -0.37529  -0.37475  -0.37055  -0.36505
 Alpha  occ. eigenvalues --   -0.35986  -0.35801  -0.35564  -0.35517  -0.35092
 Alpha  occ. eigenvalues --   -0.35077  -0.34891  -0.34336  -0.33819  -0.33734
 Alpha  occ. eigenvalues --   -0.33542  -0.32903  -0.32767  -0.32435  -0.32281
 Alpha  occ. eigenvalues --   -0.32220  -0.31770  -0.31291  -0.31243  -0.31051
 Alpha  occ. eigenvalues --   -0.30711  -0.29433  -0.29157  -0.28919  -0.28192
 Alpha  occ. eigenvalues --   -0.27997  -0.27372  -0.26972  -0.23899  -0.22902
 Alpha  occ. eigenvalues --   -0.21179  -0.18747  -0.16805
 Alpha virt. eigenvalues --   -0.07789  -0.05511  -0.01966   0.01074   0.02558
 Alpha virt. eigenvalues --    0.04329   0.06326   0.06486   0.07276   0.07301
 Alpha virt. eigenvalues --    0.07668   0.08193   0.08581   0.08757   0.09012

 Mulliken charges:
               1
     1  C   -0.018591
     2  C   -0.009090
     3  C   -0.159760
     4  C   -0.159505
     5  C   -0.190018
     6  C   -0.184175
     7  C    0.104708
     8  C    0.048513
     9  C   -0.210595
    10  C   -0.203313
    11  C    0.032753
    12  C    0.029190
    13  C   -0.274293
    14  C   -0.301791
    15  C   -0.315977
    16  C   -0.271903
    17  C   -0.177600
    18  C   -0.035709
    19  C   -0.350018
    20  C   -0.350075
    21  C   -0.054147
    22  C   -0.114032
    23  C    0.083364
    24  C    0.098689
    25  C   -0.366700
    26  C   -0.385223
    27  C   -0.139620
    28  C   -0.125952
    29  C   -0.027178
    30  C   -0.035220
    31  C   -0.084850
    32  C   -0.138474
    33  C    0.102971
    34  C    0.144747
    35  C   -0.368670
    36  C   -0.359105
    37  C   -0.129617
    38  C   -0.057478
    39  C   -0.080588
    40  C   -0.093976
    41  H    0.080713
    42  H    0.059231
    43  H    0.076995
    44  H    0.074519
    45  H    0.081252
    46  H    0.110968
    47  H    0.070067
    48  H    0.102437
    49  H    0.094102
    50  H    0.108617
    51  H    0.089829
    52  H    0.095047
    53  H    0.105557
    54  H    0.076627
    55  H    0.106437
    56  H    0.082735
    57  H    0.097746
    58  H    0.088119
    59  H    0.107906
    60  H    0.096304
    61  H    0.094267
    62  H    0.095836
    63  H    0.083504
    64  H    0.100381
    65  H    0.092492
    66  H    0.043393
    67  H    0.105604
    68  H    0.099781
    69  H    0.111147
    70  H    0.125835
    71  H    0.124441
    72  H    0.109777
    73  H    0.079951
    74  H    0.064957
    75  H    0.107164
    76  H    0.110868
    77  H    0.127549
    78  H    0.112632
    79  H    0.120977
    80  H    0.090137
    81  H    0.070745
    82  H    0.075033
    83  H    0.068596
    84  H    0.079251
    85  H    0.083036
    86  H    0.076107
    87  H    0.129973
    88  H    0.111556
    89  H    0.079419
    90  H    0.132018
    91  H    0.056958
    92  H    0.093495
    93  H    0.087290
    94  H    0.026259
    95  H    0.068444
    96  H    0.084229
 Sum of Mulliken charges =  -0.00000

 Dipole moment (field-independent basis, Debye):
    X=             -0.4165    Y=             -0.3812    Z=              0.0991  Tot=              0.5732
 Quadrupole moment (field-independent basis, Debye-Ang):
   XX=           -224.3501   YY=           -236.2086   ZZ=           -258.0196
   XY=              1.5416   XZ=             -4.0361   YZ=              1.5561

 Normal termination of Gaussian 16 at Tue Jul 30 22:41:06 2019.
