 Gaussian 16, Revision A.03,
 Gaussian 16:  ES64L-G16RevA.03 25-Dec-2016

 ---------------------------------
 # td=(NStates=1) B3LYP/6-31G(d,p)
 ---------------------------------

 --
 TD
 --
 Symbolic Z-matrix:
 Charge =  0 Multiplicity = 1

                         Standard orientation:
 ---------------------------------------------------------------------
 Center     Atomic      Atomic             Coordinates (Angstroms)
 Number     Number       Type             X           Y           Z
 ---------------------------------------------------------------------
      1          6           0       12.023139   -0.578246    0.833977
      2          6           0      -12.062974   -0.072015   -0.830973
      3          6           0       13.424257    0.273156    0.761269
      4          6           0      -13.038998   -1.337963   -1.087091
      5          6           0       13.133622    1.744094    0.980111
      6          6           0      -13.385386   -2.031981    0.106126
      7          6           0       11.026384   -0.000354   -0.159650
      8          6           0      -10.971290   -0.449888    0.209871
      9          6           0       12.343959    2.150487   -0.335476
     10          6           0      -12.133645   -2.696631    0.823258
     11          6           0       11.216392    1.217614   -0.827468
     12          6           0      -11.020052   -1.547089    0.940586
     13          6           0       11.418515   -0.574122    2.364318
     14          6           0       12.473274   -1.876665    0.356786
     15          6           0      -13.034237    1.130916   -0.458166
     16          6           0      -11.481315    0.370440   -2.215477
     17          6           0        9.781505   -0.898766   -0.299496
     18          6           0       -9.956867    0.626022    0.290472
     19          6           0       10.370898    1.530691   -1.980455
     20          6           0       -9.983629   -1.948589    1.890287
     21          6           0        8.499621   -0.479716   -0.464732
     22          6           0       -8.549406    0.456592    0.276070
     23          6           0        7.348131   -1.357211   -0.582458
     24          6           0       -7.524502    1.367867    0.379491
     25          6           0        7.714713   -2.770911   -0.673218
     26          6           0       -7.962336    2.807895    0.402837
     27          6           0        6.171303   -0.739094   -0.519458
     28          6           0       -6.244110    0.911109    0.474417
     29          6           0        4.844733   -1.369722   -0.657646
     30          6           0       -4.906158    1.687947    0.417105
     31          6           0        3.641523   -0.712136   -0.602408
     32          6           0       -3.738243    1.174409    0.395967
     33          6           0        2.354081   -1.265426   -0.624366
     34          6           0       -2.475601    1.857224    0.337678
     35          6           0        2.240907   -2.789113   -0.667906
     36          6           0       -2.427549    3.469776    0.620485
     37          6           0        1.184138   -0.522210   -0.363592
     38          6           0       -1.359765    1.085411    0.344011
     39          6           0        1.051181    0.836606   -0.127545
     40          6           0        0.021293    1.633257    0.276217
     41          1           0       13.979400    0.020241   -0.350762
     42          1           0       14.020848   -0.150416    1.588643
     43          1           0      -12.412408   -2.026773   -1.739849
     44          1           0      -13.826855   -0.668571   -1.562455
     45          1           0       14.060290    2.447407    1.019592
     46          1           0       12.432019    2.108141    1.937013
     47          1           0      -13.986831   -2.744100   -0.121467
     48          1           0      -13.736452   -1.339661    0.834679
     49          1           0       13.149908    2.345199   -1.210589
     50          1           0       11.831750    3.244762   -0.634474
     51          1           0      -11.642192   -3.587898    0.481618
     52          1           0      -12.506450   -2.728880    2.054048
     53          1           0       11.146987    0.407667    2.855572
     54          1           0       12.189041   -1.208481    3.029202
     55          1           0       10.562154   -1.349900    2.194416
     56          1           0       13.103351   -2.005190   -0.503740
     57          1           0       11.650342   -2.520573    0.397004
     58          1           0       13.208581   -2.410401    1.255431
     59          1           0      -13.775693    0.894392    0.443925
     60          1           0      -13.585147    1.663482   -1.197555
     61          1           0      -12.500436    1.966422    0.134336
     62          1           0      -10.755527   -0.294997   -2.791847
     63          1           0      -10.914689    1.300906   -1.985471
     64          1           0      -12.377712    0.406660   -2.773903
     65          1           0        9.888336   -1.914808   -0.495878
     66          1           0      -10.351617    1.636752    0.153319
     67          1           0        9.680033    0.815354   -2.295130
     68          1           0       11.054031    2.235894   -2.789946
     69          1           0        9.522215    2.343453   -1.761633
     70          1           0       -9.229523   -1.221763    2.278354
     71          1           0       -9.146377   -2.659998    1.104043
     72          1           0      -10.267651   -2.551577    2.851968
     73          1           0        8.383256    0.532537   -0.224421
     74          1           0       -8.131081   -0.554631    0.401672
     75          1           0        8.339115   -3.149354   -1.475911
     76          1           0        6.851188   -3.391035   -0.732370
     77          1           0        8.236844   -3.140390    0.161265
     78          1           0       -8.846368    2.818622    1.255055
     79          1           0       -8.369853    3.317812   -0.711647
     80          1           0       -7.135320    3.541468    0.468658
     81          1           0        6.096989    0.292777   -0.183829
     82          1           0       -6.083276   -0.152625    0.207192
     83          1           0        4.671451   -2.280908   -0.941473
     84          1           0       -5.137474    2.706053    0.610643
     85          1           0        3.443505    0.326643   -0.467628
     86          1           0       -3.490688    0.034376    0.370423
     87          1           0        3.033473   -3.147024   -1.545028
     88          1           0        1.164950   -3.275292   -1.012294
     89          1           0        2.777952   -3.237853    0.386010
     90          1           0       -3.033705    3.765410    1.487249
     91          1           0       -2.846297    3.738286   -0.287551
     92          1           0       -1.394154    3.666446    0.907643
     93          1           0        0.194209   -1.159547   -0.475959
     94          1           0       -1.436343    0.037105   -0.098135
     95          1           0        1.869488    1.608640   -0.655327
     96          1           0        0.213369    2.767732    0.134763
 ---------------------------------------------------------------------

 SCF Done:  E(RB3LYP) =  -1557.43876353     A.U. after   15 cycles

 Excitation energies and oscillator strengths:

 Excited State   1:      Singlet-A      2.2788 eV  544.07 nm  f=2.5652  <S**2>=0.000
     148 ->149         0.70156
 This state for optimization and/or second-order correction.
 Total Energy, E(TD-HF/TD-DFT) =  -1557.35501880
 Copying the excited state density for this state as the 1-particle RhoCI density.

 The electronic state is 1-A.
 Alpha  occ. eigenvalues --  -10.22378 -10.21207 -10.21166 -10.21044 -10.20605
 Alpha  occ. eigenvalues --  -10.20526 -10.20386 -10.20297 -10.20180 -10.20168
 Alpha  occ. eigenvalues --  -10.20153 -10.20080 -10.20077 -10.20076 -10.19964
 Alpha  occ. eigenvalues --  -10.19932 -10.19887 -10.19474 -10.19452 -10.19422
 Alpha  occ. eigenvalues --  -10.19358 -10.19351 -10.19071 -10.19011 -10.18968
 Alpha  occ. eigenvalues --  -10.18792 -10.18744 -10.18548 -10.18527 -10.18516
 Alpha  occ. eigenvalues --  -10.18217 -10.18166 -10.18092 -10.18089 -10.17855
 Alpha  occ. eigenvalues --  -10.17763 -10.17683 -10.17614 -10.17067 -10.16034
 Alpha  occ. eigenvalues --   -0.84583  -0.84485  -0.83802  -0.83293  -0.82738
 Alpha  occ. eigenvalues --   -0.81937  -0.79203  -0.78002  -0.77857  -0.77274
 Alpha  occ. eigenvalues --   -0.76645  -0.75406  -0.74033  -0.72325  -0.71431
 Alpha  occ. eigenvalues --   -0.70291  -0.69144  -0.67808  -0.67298  -0.67131
 Alpha  occ. eigenvalues --   -0.66846  -0.66619  -0.66231  -0.65693  -0.65250
 Alpha  occ. eigenvalues --   -0.63195  -0.61841  -0.59531  -0.58907  -0.57343
 Alpha  occ. eigenvalues --   -0.56355  -0.55320  -0.55060  -0.54014  -0.53447
 Alpha  occ. eigenvalues --   -0.52240  -0.51119  -0.50455  -0.49667  -0.48746
 Alpha  occ. eigenvalues --   -0.47858  -0.47582  -0.47042  -0.46833  -0.46416
 Alpha  occ. eigenvalues --   -0.45840  -0.45079  -0.44550  -0.44501  -0.43915
 Alpha  occ. eigenvalues --   -0.43650  -0.43322  -0.43137  -0.42730  -0.42176
 Alpha  occ. eigenvalues --   -0.42058  -0.41416  -0.41258  -0.40533  -0.40361
 Alpha  occ. eigenvalues --   -0.39987  -0.39881  -0.39687  -0.39585  -0.39151
 Alpha  occ. eigenvalues --   -0.39058  -0.38845  -0.38685  -0.38276  -0.38184
 Alpha  occ. eigenvalues --   -0.37744  -0.37506  -0.37004  -0.36215  -0.35971
 Alpha  occ. eigenvalues --   -0.35674  -0.35299  -0.35223  -0.34925  -0.34826
 Alpha  occ. eigenvalues --   -0.34640  -0.34457  -0.33975  -0.33592  -0.33427
 Alpha  occ. eigenvalues --   -0.33123  -0.33077  -0.32739  -0.32595  -0.32328
 Alpha  occ. eigenvalues --   -0.32188  -0.32068  -0.30992  -0.30722  -0.30628
 Alpha  occ. eigenvalues --   -0.30396  -0.30111  -0.30007  -0.29118  -0.28323
 Alpha  occ. eigenvalues --   -0.27498  -0.26544  -0.25910  -0.24476  -0.22785
 Alpha  occ. eigenvalues --   -0.20797  -0.19059  -0.17213
 Alpha virt. eigenvalues --   -0.08282  -0.05404  -0.02456  -0.00098   0.02137
 Alpha virt. eigenvalues --    0.02884   0.05129   0.05709   0.06045   0.06675
 Alpha virt. eigenvalues --    0.07066   0.07409   0.07625   0.07811   0.08004

 Mulliken charges:
               1
     1  C   -0.006059
     2  C   -0.042049
     3  C   -0.158243
     4  C   -0.166573
     5  C   -0.175382
     6  C   -0.142819
     7  C    0.048337
     8  C    0.111049
     9  C   -0.223783
    10  C   -0.226178
    11  C    0.132835
    12  C    0.062160
    13  C   -0.296308
    14  C   -0.280618
    15  C   -0.328027
    16  C   -0.280124
    17  C   -0.135631
    18  C   -0.167537
    19  C   -0.359125
    20  C   -0.336981
    21  C   -0.115981
    22  C   -0.098914
    23  C    0.165275
    24  C    0.180781
    25  C   -0.408906
    26  C   -0.356441
    27  C   -0.138317
    28  C   -0.172335
    29  C   -0.065415
    30  C   -0.105155
    31  C   -0.081119
    32  C   -0.059715
    33  C    0.110200
    34  C    0.080369
    35  C   -0.353507
    36  C   -0.357403
    37  C   -0.112949
    38  C   -0.137654
    39  C   -0.085823
    40  C   -0.115070
    41  H    0.072227
    42  H    0.093687
    43  H    0.083774
    44  H    0.084166
    45  H    0.091462
    46  H    0.084180
    47  H    0.096950
    48  H    0.103461
    49  H    0.080935
    50  H    0.072795
    51  H    0.119013
    52  H    0.066699
    53  H    0.116413
    54  H    0.082581
    55  H    0.100847
    56  H    0.121727
    57  H    0.100576
    58  H    0.044831
    59  H    0.083000
    60  H    0.120671
    61  H    0.090797
    62  H    0.090240
    63  H    0.099891
    64  H    0.099814
    65  H    0.083746
    66  H    0.091328
    67  H    0.136084
    68  H    0.074879
    69  H    0.084250
    70  H    0.123861
    71  H    0.052940
    72  H    0.095889
    73  H    0.080823
    74  H    0.070776
    75  H    0.128626
    76  H    0.109246
    77  H    0.138031
    78  H    0.105986
    79  H    0.080022
    80  H    0.108121
    81  H    0.090926
    82  H    0.077845
    83  H    0.056521
    84  H    0.079836
    85  H    0.064753
    86  H    0.070561
    87  H    0.087809
    88  H    0.096338
    89  H    0.106720
    90  H    0.120834
    91  H    0.139784
    92  H    0.117991
    93  H    0.075934
    94  H    0.086612
    95  H    0.070367
    96  H    0.090959
 Sum of Mulliken charges =  -0.00000

 Dipole moment (field-independent basis, Debye):
    X=              0.3035    Y=             -0.1770    Z=             -0.3396  Tot=              0.4886
 Quadrupole moment (field-independent basis, Debye-Ang):
   XX=           -232.4167   YY=           -236.2763   ZZ=           -256.6331
   XY=             -4.8459   XZ=              0.3133   YZ=              1.6304

 Normal termination of Gaussian 16 at Tue Jul 23 13:41:35 2019.
