 Gaussian 16, Revision A.03,
 Gaussian 16:  ES64L-G16RevA.03 25-Dec-2016

 ---------------------------------
 # td=(NStates=1) B3LYP/6-31G(d,p)
 ---------------------------------

 --
 TD
 --
 Symbolic Z-matrix:
 Charge =  0 Multiplicity = 1

                         Standard orientation:
 ---------------------------------------------------------------------
 Center     Atomic      Atomic             Coordinates (Angstroms)
 Number     Number       Type             X           Y           Z
 ---------------------------------------------------------------------
      1          6           0       12.197989    0.517855   -0.695431
      2          6           0      -12.135088   -0.097761    0.865446
      3          6           0       13.518896   -0.326924   -0.572490
      4          6           0      -13.029988    1.041836    1.292737
      5          6           0       13.197580   -1.812567   -0.538273
      6          6           0      -13.434479    1.989753    0.165963
      7          6           0       11.122900   -0.044560    0.309115
      8          6           0      -10.884887    0.508928    0.068385
      9          6           0       12.307385   -2.253732    0.702935
     10          6           0      -12.132384    2.708651   -0.475295
     11          6           0       11.189440   -1.224399    0.994362
     12          6           0      -11.041593    1.640190   -0.643997
     13          6           0       11.616604    0.519133   -2.136097
     14          6           0       12.630561    1.941751   -0.363063
     15          6           0      -13.018341   -1.123349    0.184019
     16          6           0      -11.537688   -0.742715    2.124328
     17          6           0        9.966578    0.790460    0.442979
     18          6           0       -9.883435   -0.454992   -0.317745
     19          6           0       10.227746   -1.564984    2.027592
     20          6           0      -10.098202    2.059557   -1.681671
     21          6           0        8.622293    0.480674    0.313488
     22          6           0       -8.529642   -0.315810   -0.240193
     23          6           0        7.428299    1.323420    0.453486
     24          6           0       -7.516990   -1.336549   -0.424618
     25          6           0        7.632980    2.896748    0.514090
     26          6           0       -7.959433   -2.714215   -0.622514
     27          6           0        6.142824    0.799479    0.283404
     28          6           0       -6.227261   -0.905873   -0.246439
     29          6           0        4.839671    1.324758    0.345529
     30          6           0       -5.031965   -1.665745   -0.467740
     31          6           0        3.667819    0.655985    0.067721
     32          6           0       -3.807623   -1.121311   -0.400588
     33          6           0        2.378696    1.301096    0.274924
     34          6           0       -2.609990   -1.792151   -0.525773
     35          6           0        2.327663    2.770588    0.608106
     36          6           0       -2.673083   -3.294899   -0.720395
     37          6           0        1.156672    0.635478    0.049308
     38          6           0       -1.348915   -1.104715   -0.531345
     39          6           0        1.047345   -0.778679   -0.167335
     40          6           0       -0.027775   -1.555726   -0.401319
     41          1           0       13.992833    0.112812    0.256361
     42          1           0       14.078446   -0.115583   -1.494171
     43          1           0      -12.447084    1.791632    1.849926
     44          1           0      -13.851176    0.731049    1.931505
     45          1           0       14.333246   -2.346581   -0.400153
     46          1           0       12.627149   -2.084718   -1.279930
     47          1           0      -14.290046    2.613335    0.666629
     48          1           0      -13.906444    1.438545   -0.478499
     49          1           0       12.894484   -2.436473    1.622838
     50          1           0       11.660660   -3.106437    0.601342
     51          1           0      -11.882380    3.535570    0.138661
     52          1           0      -12.443690    3.248672   -1.440412
     53          1           0       11.664075   -0.364627   -2.548072
     54          1           0       12.313532    1.177264   -2.857640
     55          1           0       10.607371    0.947415   -2.045547
     56          1           0       12.726301    2.114318    0.692663
     57          1           0       11.876789    2.778716   -0.472453
     58          1           0       13.535913    2.312028   -0.855752
     59          1           0      -13.392646   -0.719008   -0.951185
     60          1           0      -13.987779   -1.355881    0.737244
     61          1           0      -12.513952   -2.187207    0.156807
     62          1           0      -10.998425   -0.059736    2.550795
     63          1           0      -10.842000   -1.693101    2.049050
     64          1           0      -12.185879   -1.286617    2.864789
     65          1           0        9.990043    2.018361    0.345093
     66          1           0      -10.240430   -1.423247   -0.434488
     67          1           0        9.683154   -0.657341    2.337153
     68          1           0       10.677860   -2.235809    2.860018
     69          1           0        9.589208   -2.404886    1.589708
     70          1           0       -9.555893    1.107345   -2.078508
     71          1           0       -9.238750    2.622478   -1.320083
     72          1           0      -10.482319    2.948613   -2.501737
     73          1           0        8.161736   -0.674484    0.498816
     74          1           0       -8.159738    0.563898    0.088054
     75          1           0        8.351593    2.915695    1.435623
     76          1           0        6.627328    3.172371    0.816990
     77          1           0        7.790254    3.309035   -0.537463
     78          1           0       -8.313371   -2.833102   -1.736876
     79          1           0       -8.598214   -3.060044    0.276490
     80          1           0       -6.993740   -3.163520   -0.768331
     81          1           0        6.066135   -0.339170   -0.018298
     82          1           0       -6.236574    0.107629   -0.006364
     83          1           0        4.723842    2.410961    0.487403
     84          1           0       -5.085986   -2.865214   -0.697293
     85          1           0        3.819860   -0.506734   -0.041319
     86          1           0       -3.688610   -0.104241   -0.058344
     87          1           0        3.055003    2.822871    1.565069
     88          1           0        1.210097    3.158352    0.897409
     89          1           0        2.719866    3.404301   -0.032855
     90          1           0       -3.121037   -3.116994   -1.891735
     91          1           0       -3.350642   -3.704799    0.061883
     92          1           0       -1.615784   -3.650604   -0.741555
     93          1           0        0.269433    1.304817    0.158957
     94          1           0       -1.409151   -0.122317   -0.565959
     95          1           0        1.926717   -1.390611   -0.181220
     96          1           0        0.111754   -2.707091   -0.594610
 ---------------------------------------------------------------------

 SCF Done:  E(RB3LYP) =  -1557.53677202     A.U. after   16 cycles

 Excitation energies and oscillator strengths:

 Excited State   1:      Singlet-A      2.0247 eV  612.36 nm  f=3.1774  <S**2>=0.000
     148 ->149         0.70962
     148 <-149        -0.11579
 This state for optimization and/or second-order correction.
 Total Energy, E(TD-HF/TD-DFT) =  -1557.46236572
 Copying the excited state density for this state as the 1-particle RhoCI density.

 The electronic state is 1-A.
 Alpha  occ. eigenvalues --  -10.20876 -10.20843 -10.20271 -10.20143 -10.20134
 Alpha  occ. eigenvalues --  -10.20103 -10.20078 -10.20028 -10.19976 -10.19809
 Alpha  occ. eigenvalues --  -10.19808 -10.19719 -10.19716 -10.19684 -10.19620
 Alpha  occ. eigenvalues --  -10.19394 -10.19374 -10.19240 -10.19213 -10.19170
 Alpha  occ. eigenvalues --  -10.19153 -10.19088 -10.18948 -10.18800 -10.18675
 Alpha  occ. eigenvalues --  -10.18640 -10.18596 -10.18559 -10.18503 -10.18371
 Alpha  occ. eigenvalues --  -10.17853 -10.17645 -10.17493 -10.17430 -10.17313
 Alpha  occ. eigenvalues --  -10.17063 -10.16939 -10.16711 -10.16629 -10.16322
 Alpha  occ. eigenvalues --   -0.85113  -0.84834  -0.84097  -0.83190  -0.82437
 Alpha  occ. eigenvalues --   -0.81013  -0.79471  -0.79065  -0.78781  -0.77291
 Alpha  occ. eigenvalues --   -0.76934  -0.75242  -0.74315  -0.72368  -0.71849
 Alpha  occ. eigenvalues --   -0.70319  -0.68960  -0.68505  -0.67766  -0.67693
 Alpha  occ. eigenvalues --   -0.67484  -0.67391  -0.67221  -0.66349  -0.66205
 Alpha  occ. eigenvalues --   -0.62929  -0.62014  -0.60121  -0.59753  -0.57756
 Alpha  occ. eigenvalues --   -0.56510  -0.55462  -0.54897  -0.53608  -0.52262
 Alpha  occ. eigenvalues --   -0.52080  -0.51724  -0.50818  -0.49665  -0.48732
 Alpha  occ. eigenvalues --   -0.47983  -0.47680  -0.47310  -0.47009  -0.45838
 Alpha  occ. eigenvalues --   -0.45705  -0.45160  -0.44967  -0.44443  -0.44091
 Alpha  occ. eigenvalues --   -0.43895  -0.43525  -0.43198  -0.42865  -0.42767
 Alpha  occ. eigenvalues --   -0.42491  -0.42121  -0.41705  -0.41374  -0.40952
 Alpha  occ. eigenvalues --   -0.40882  -0.40406  -0.40248  -0.40197  -0.39288
 Alpha  occ. eigenvalues --   -0.38953  -0.38672  -0.38409  -0.38280  -0.37643
 Alpha  occ. eigenvalues --   -0.37475  -0.37064  -0.36790  -0.36481  -0.36167
 Alpha  occ. eigenvalues --   -0.35982  -0.35864  -0.35582  -0.35542  -0.35365
 Alpha  occ. eigenvalues --   -0.35201  -0.34650  -0.34293  -0.34173  -0.34052
 Alpha  occ. eigenvalues --   -0.33875  -0.33343  -0.33112  -0.32597  -0.32282
 Alpha  occ. eigenvalues --   -0.32154  -0.31985  -0.31475  -0.31195  -0.30662
 Alpha  occ. eigenvalues --   -0.30578  -0.30033  -0.29260  -0.29026  -0.28601
 Alpha  occ. eigenvalues --   -0.28171  -0.27582  -0.26413  -0.24473  -0.23004
 Alpha  occ. eigenvalues --   -0.21133  -0.18905  -0.16165
 Alpha virt. eigenvalues --   -0.08717  -0.05683  -0.01955   0.00218   0.02270
 Alpha virt. eigenvalues --    0.03862   0.06146   0.06490   0.06984   0.07260
 Alpha virt. eigenvalues --    0.07328   0.07446   0.08299   0.08340   0.08611

 Mulliken charges:
               1
     1  C   -0.004493
     2  C    0.018760
     3  C   -0.165482
     4  C   -0.179735
     5  C   -0.171182
     6  C   -0.185945
     7  C    0.085084
     8  C    0.041255
     9  C   -0.232447
    10  C   -0.237022
    11  C    0.075735
    12  C    0.110236
    13  C   -0.282106
    14  C   -0.319773
    15  C   -0.285448
    16  C   -0.289586
    17  C   -0.192142
    18  C   -0.153885
    19  C   -0.364795
    20  C   -0.369902
    21  C   -0.061808
    22  C   -0.073313
    23  C    0.053573
    24  C    0.118984
    25  C   -0.362850
    26  C   -0.372844
    27  C   -0.109187
    28  C   -0.105453
    29  C   -0.076266
    30  C   -0.116366
    31  C   -0.100403
    32  C   -0.073056
    33  C    0.098113
    34  C    0.071752
    35  C   -0.363917
    36  C   -0.346000
    37  C   -0.120870
    38  C   -0.095379
    39  C   -0.068861
    40  C   -0.103617
    41  H    0.104974
    42  H    0.091084
    43  H    0.087508
    44  H    0.086461
    45  H    0.061053
    46  H    0.116608
    47  H    0.066333
    48  H    0.110053
    49  H    0.105316
    50  H    0.106192
    51  H    0.122318
    52  H    0.094623
    53  H    0.107317
    54  H    0.067875
    55  H    0.111464
    56  H    0.102383
    57  H    0.086069
    58  H    0.102898
    59  H    0.072497
    60  H    0.102931
    61  H    0.084975
    62  H    0.115268
    63  H    0.068752
    64  H    0.084477
    65  H    0.072119
    66  H    0.084025
    67  H    0.131783
    68  H    0.094541
    69  H    0.107885
    70  H    0.110923
    71  H    0.122222
    72  H    0.071762
    73  H    0.051974
    74  H    0.066780
    75  H    0.120916
    76  H    0.114245
    77  H    0.134206
    78  H    0.112310
    79  H    0.127220
    80  H    0.107467
    81  H    0.059170
    82  H    0.075825
    83  H    0.074120
    84  H    0.085050
    85  H    0.083629
    86  H    0.077615
    87  H    0.100560
    88  H    0.090250
    89  H    0.144732
    90  H    0.108106
    91  H    0.126253
    92  H    0.107593
    93  H    0.081982
    94  H    0.059388
    95  H    0.080025
    96  H    0.066535
 Sum of Mulliken charges =  -0.00000

 Dipole moment (field-independent basis, Debye):
    X=              0.7273    Y=              0.0117    Z=              0.4883  Tot=              0.8761
 Quadrupole moment (field-independent basis, Debye-Ang):
   XX=           -232.6220   YY=           -236.1286   ZZ=           -256.5980
   XY=             -2.5494   XZ=             -2.3228   YZ=             -0.5715

 Normal termination of Gaussian 16 at Tue Jul 30 16:55:16 2019.
