 Gaussian 16, Revision A.03,
 Gaussian 16:  ES64L-G16RevA.03 25-Dec-2016

 ---------------------------------
 # td=(NStates=1) B3LYP/6-31G(d,p)
 ---------------------------------

 --
 TD
 --
 Symbolic Z-matrix:
 Charge =  0 Multiplicity = 1

                         Standard orientation:
 ---------------------------------------------------------------------
 Center     Atomic      Atomic             Coordinates (Angstroms)
 Number     Number       Type             X           Y           Z
 ---------------------------------------------------------------------
      1          6           0       12.155954    0.558919   -0.723117
      2          6           0      -12.106686   -0.046424    0.796948
      3          6           0       13.408093   -0.383317   -0.654846
      4          6           0      -13.061032    1.017783    1.182726
      5          6           0       13.128939   -1.770703   -0.679438
      6          6           0      -13.450934    2.025561    0.039217
      7          6           0       11.093734    0.062255    0.265073
      8          6           0      -11.012234    0.414071   -0.121780
      9          6           0       12.287635   -2.185731    0.536891
     10          6           0      -12.219455    2.568285   -0.497724
     11          6           0       11.093065   -1.209845    0.813810
     12          6           0      -11.024519    1.616608   -0.758565
     13          6           0       11.628025    0.479527   -2.163450
     14          6           0       12.643785    1.937259   -0.395914
     15          6           0      -12.993274   -1.192494    0.102734
     16          6           0      -11.503668   -0.762497    2.125075
     17          6           0        9.822025    0.859033    0.475773
     18          6           0       -9.923632   -0.596806   -0.472628
     19          6           0       10.131221   -1.699591    1.827420
     20          6           0      -10.055876    2.170604   -1.674717
     21          6           0        8.548571    0.489710    0.294996
     22          6           0       -8.595251   -0.416668   -0.266259
     23          6           0        7.427152    1.377838    0.473466
     24          6           0       -7.574778   -1.301628   -0.495447
     25          6           0        7.690374    2.839489    0.559945
     26          6           0       -7.843220   -2.730374   -0.874201
     27          6           0        6.124771    0.778168    0.276819
     28          6           0       -6.190156   -0.796464   -0.307401
     29          6           0        4.837275    1.293203    0.364125
     30          6           0       -4.988403   -1.605403   -0.410911
     31          6           0        3.632575    0.590410    0.381107
     32          6           0       -3.741006   -1.031058   -0.218472
     33          6           0        2.356836    1.296599    0.424694
     34          6           0       -2.502790   -1.726694   -0.244968
     35          6           0        2.285773    2.862037    0.650718
     36          6           0       -2.434626   -3.225038   -0.542216
     37          6           0        1.230414    0.607277    0.261334
     38          6           0       -1.389966   -0.985247    0.073916
     39          6           0        1.213732   -0.804514   -0.086950
     40          6           0        0.005423   -1.518978   -0.178008
     41          1           0       14.043437   -0.138502    0.187086
     42          1           0       14.021078    0.136131   -1.376069
     43          1           0      -12.513889    1.598178    1.974976
     44          1           0      -13.919283    0.721452    1.641515
     45          1           0       14.227390   -2.323236   -0.588111
     46          1           0       12.564023   -2.107338   -1.588333
     47          1           0      -14.240856    2.784348    0.275650
     48          1           0      -13.961049    1.468519   -0.874138
     49          1           0       12.954626   -2.426913    1.532697
     50          1           0       11.739938   -3.158429    0.149054
     51          1           0      -11.771261    3.323036    0.316395
     52          1           0      -12.497636    3.203620   -1.490479
     53          1           0       11.401079   -0.700203   -2.319244
     54          1           0       12.416631    0.796530   -2.755585
     55          1           0       10.615717    1.098999   -2.346900
     56          1           0       12.614142    1.895851    0.718729
     57          1           0       11.976391    2.864838   -0.664337
     58          1           0       13.700564    2.226372   -0.970788
     59          1           0      -13.231980   -0.888584   -0.857787
     60          1           0      -14.066231   -1.227941    0.873201
     61          1           0      -12.632165   -2.024055    0.109147
     62          1           0      -10.728204   -0.231855    2.684116
     63          1           0      -10.784592   -1.587471    1.544799
     64          1           0      -12.350882   -1.069755    2.661303
     65          1           0       10.156510    1.911821    0.422003
     66          1           0      -10.248335   -1.649883   -0.698092
     67          1           0        9.440514   -0.841151    2.281440
     68          1           0       10.636382   -2.250219    2.553152
     69          1           0        9.815278   -2.530772    1.256207
     70          1           0       -9.375288    1.314866   -1.758600
     71          1           0       -9.528649    2.987330   -1.133559
     72          1           0      -10.408637    2.560194   -2.616278
     73          1           0        8.286526   -0.520784    0.064122
     74          1           0       -8.333484    0.650325    0.291774
     75          1           0        8.260599    2.818989    1.417674
     76          1           0        6.754909    3.317978    0.506724
     77          1           0        8.390055    3.227997   -0.127178
     78          1           0       -8.270571   -2.843936   -1.859847
     79          1           0       -8.553300   -3.208130   -0.085816
     80          1           0       -7.029907   -3.388574   -0.919291
     81          1           0        5.924578   -0.361813    0.287735
     82          1           0       -6.202574    0.261659   -0.062178
     83          1           0        4.841650    2.348463    0.290691
     84          1           0       -5.157617   -2.690910   -0.543668
     85          1           0        3.664362   -0.559272    0.285721
     86          1           0       -3.729722   -0.022177    0.050307
     87          1           0        2.739435    3.235938    1.668892
     88          1           0        1.087099    3.135231    0.373724
     89          1           0        3.024090    3.303585   -0.282015
     90          1           0       -2.690047   -3.443112   -1.703273
     91          1           0       -3.278415   -3.760311    0.158851
     92          1           0       -1.429276   -3.650433   -0.208336
     93          1           0        0.230364    1.083957    0.350318
     94          1           0       -1.728745   -0.029198    0.694221
     95          1           0        2.026147   -1.305621   -0.148809
     96          1           0        0.305892   -2.466606   -0.602145
 ---------------------------------------------------------------------

 SCF Done:  E(RB3LYP) =  -1557.52236870     A.U. after   16 cycles

 Excitation energies and oscillator strengths:

 Excited State   1:      Singlet-A      2.0622 eV  601.24 nm  f=2.8697  <S**2>=0.000
     148 ->149         0.70654
     148 <-149        -0.10153
 This state for optimization and/or second-order correction.
 Total Energy, E(TD-HF/TD-DFT) =  -1557.44658590
 Copying the excited state density for this state as the 1-particle RhoCI density.

 The electronic state is 1-A.
 Alpha  occ. eigenvalues --  -10.22493 -10.21158 -10.20717 -10.20672 -10.20594
 Alpha  occ. eigenvalues --  -10.20324 -10.19941 -10.19910 -10.19865 -10.19848
 Alpha  occ. eigenvalues --  -10.19807 -10.19787 -10.19658 -10.19610 -10.19502
 Alpha  occ. eigenvalues --  -10.19362 -10.19308 -10.19216 -10.19183 -10.19121
 Alpha  occ. eigenvalues --  -10.19088 -10.18729 -10.18594 -10.18579 -10.18531
 Alpha  occ. eigenvalues --  -10.18447 -10.18392 -10.18368 -10.18259 -10.18219
 Alpha  occ. eigenvalues --  -10.18084 -10.18083 -10.18041 -10.17711 -10.17439
 Alpha  occ. eigenvalues --  -10.17001 -10.16892 -10.16729 -10.16711 -10.16703
 Alpha  occ. eigenvalues --   -0.85341  -0.84946  -0.83308  -0.82906  -0.82162
 Alpha  occ. eigenvalues --   -0.81617  -0.79081  -0.78484  -0.78300  -0.77322
 Alpha  occ. eigenvalues --   -0.76732  -0.75616  -0.74163  -0.72890  -0.72012
 Alpha  occ. eigenvalues --   -0.69059  -0.68782  -0.68090  -0.68006  -0.67605
 Alpha  occ. eigenvalues --   -0.67428  -0.67300  -0.66488  -0.66185  -0.65651
 Alpha  occ. eigenvalues --   -0.62617  -0.62052  -0.58794  -0.58275  -0.56517
 Alpha  occ. eigenvalues --   -0.56173  -0.55638  -0.55051  -0.54163  -0.52753
 Alpha  occ. eigenvalues --   -0.52457  -0.51623  -0.50639  -0.49456  -0.48485
 Alpha  occ. eigenvalues --   -0.48155  -0.47471  -0.46808  -0.46488  -0.45926
 Alpha  occ. eigenvalues --   -0.45718  -0.45358  -0.44535  -0.44369  -0.43806
 Alpha  occ. eigenvalues --   -0.43558  -0.43069  -0.42840  -0.42452  -0.42210
 Alpha  occ. eigenvalues --   -0.41867  -0.41638  -0.41604  -0.41489  -0.41090
 Alpha  occ. eigenvalues --   -0.40677  -0.40577  -0.40464  -0.39917  -0.39686
 Alpha  occ. eigenvalues --   -0.39493  -0.39394  -0.38971  -0.38817  -0.38130
 Alpha  occ. eigenvalues --   -0.37757  -0.37274  -0.37200  -0.36776  -0.36571
 Alpha  occ. eigenvalues --   -0.36167  -0.35642  -0.35303  -0.35037  -0.34938
 Alpha  occ. eigenvalues --   -0.34751  -0.34654  -0.34134  -0.33924  -0.33444
 Alpha  occ. eigenvalues --   -0.33359  -0.33212  -0.32826  -0.32717  -0.32635
 Alpha  occ. eigenvalues --   -0.32476  -0.32064  -0.31765  -0.31615  -0.31060
 Alpha  occ. eigenvalues --   -0.30486  -0.29797  -0.29214  -0.28822  -0.28338
 Alpha  occ. eigenvalues --   -0.28205  -0.27185  -0.26134  -0.23496  -0.22370
 Alpha  occ. eigenvalues --   -0.21103  -0.18193  -0.16090
 Alpha virt. eigenvalues --   -0.08310  -0.05923  -0.01701   0.01047   0.02342
 Alpha virt. eigenvalues --    0.03366   0.05531   0.06039   0.06384   0.06639
 Alpha virt. eigenvalues --    0.07082   0.07585   0.08172   0.08362   0.08750

 Mulliken charges:
               1
     1  C   -0.009896
     2  C   -0.027981
     3  C   -0.138638
     4  C   -0.164919
     5  C   -0.179576
     6  C   -0.177816
     7  C    0.048627
     8  C    0.085837
     9  C   -0.213856
    10  C   -0.187020
    11  C    0.045679
    12  C    0.070252
    13  C   -0.261961
    14  C   -0.303336
    15  C   -0.252627
    16  C   -0.290450
    17  C   -0.172371
    18  C   -0.193967
    19  C   -0.342078
    20  C   -0.359954
    21  C   -0.040672
    22  C   -0.080049
    23  C    0.065974
    24  C    0.123555
    25  C   -0.356221
    26  C   -0.382715
    27  C   -0.130820
    28  C   -0.125574
    29  C   -0.075395
    30  C   -0.089700
    31  C   -0.115128
    32  C   -0.103779
    33  C    0.124996
    34  C    0.150843
    35  C   -0.339864
    36  C   -0.353871
    37  C   -0.124752
    38  C   -0.143981
    39  C   -0.054438
    40  C   -0.121958
    41  H    0.093239
    42  H    0.082334
    43  H    0.080935
    44  H    0.091158
    45  H    0.067850
    46  H    0.100391
    47  H    0.090521
    48  H    0.073947
    49  H    0.086728
    50  H    0.083955
    51  H    0.078313
    52  H    0.064281
    53  H    0.073303
    54  H    0.105814
    55  H    0.089190
    56  H    0.111206
    57  H    0.085688
    58  H    0.075027
    59  H    0.111998
    60  H    0.038486
    61  H    0.105031
    62  H    0.107216
    63  H    0.072040
    64  H    0.107946
    65  H    0.066807
    66  H    0.085160
    67  H    0.120310
    68  H    0.113588
    69  H    0.116413
    70  H    0.117044
    71  H    0.110705
    72  H    0.113883
    73  H    0.089065
    74  H    0.072036
    75  H    0.138057
    76  H    0.111020
    77  H    0.129062
    78  H    0.127905
    79  H    0.106332
    80  H    0.115483
    81  H    0.057480
    82  H    0.078262
    83  H    0.063913
    84  H    0.084588
    85  H    0.085716
    86  H    0.077026
    87  H    0.122272
    88  H    0.089984
    89  H    0.090423
    90  H    0.106832
    91  H    0.098995
    92  H    0.116074
    93  H    0.075465
    94  H    0.094828
    95  H    0.060631
    96  H    0.087651
 Sum of Mulliken charges =  -0.00000

 Dipole moment (field-independent basis, Debye):
    X=              0.9398    Y=             -0.5207    Z=              0.0812  Tot=              1.0775
 Quadrupole moment (field-independent basis, Debye-Ang):
   XX=           -227.5918   YY=           -237.0018   ZZ=           -256.0523
   XY=              0.4477   XZ=              0.9057   YZ=              2.6354

 Normal termination of Gaussian 16 at Tue Jul 30 18:42:47 2019.
