 Gaussian 16, Revision A.03,
 Gaussian 16:  ES64L-G16RevA.03 25-Dec-2016

 ---------------------------------
 # td=(NStates=1) B3LYP/6-31G(d,p)
 ---------------------------------

 --
 TD
 --
 Symbolic Z-matrix:
 Charge =  0 Multiplicity = 1

                         Standard orientation:
 ---------------------------------------------------------------------
 Center     Atomic      Atomic             Coordinates (Angstroms)
 Number     Number       Type             X           Y           Z
 ---------------------------------------------------------------------
      1          6           0       12.145083    0.512066   -0.648564
      2          6           0      -12.083009   -0.039217    1.043906
      3          6           0       13.447040   -0.317387   -0.474275
      4          6           0      -13.036815    1.085846    1.423217
      5          6           0       13.211427   -1.801226   -0.422435
      6          6           0      -13.503035    2.002493    0.180278
      7          6           0       11.017927    0.025762    0.271813
      8          6           0      -10.936088    0.470049   -0.010010
      9          6           0       12.408113   -1.958467    0.821562
     10          6           0      -12.278139    2.561809   -0.487878
     11          6           0       11.138799   -1.022913    1.084665
     12          6           0      -11.169392    1.591571   -0.673014
     13          6           0       11.619035    0.420056   -2.064759
     14          6           0       12.498973    2.000226   -0.289371
     15          6           0      -12.941525   -1.190622    0.306949
     16          6           0      -11.435910   -0.579178    2.274413
     17          6           0        9.848913    0.898454    0.389786
     18          6           0       -9.919020   -0.574483   -0.329321
     19          6           0       10.177173   -1.585908    2.131568
     20          6           0      -10.217645    1.976547   -1.741832
     21          6           0        8.541784    0.442583    0.222363
     22          6           0       -8.695612   -0.248470   -0.150091
     23          6           0        7.370785    1.312704    0.257830
     24          6           0       -7.540481   -1.243676   -0.443996
     25          6           0        7.528093    2.724534    0.621515
     26          6           0       -7.842369   -2.645962   -0.773349
     27          6           0        6.191725    0.680062    0.150424
     28          6           0       -6.196746   -0.773963   -0.303264
     29          6           0        4.906663    1.229564    0.277599
     30          6           0       -5.006615   -1.627971   -0.443842
     31          6           0        3.638915    0.681216    0.166564
     32          6           0       -3.759342   -1.188444   -0.460371
     33          6           0        2.327789    1.283231    0.082023
     34          6           0       -2.527242   -1.857686   -0.534652
     35          6           0        2.386427    2.813266    0.164682
     36          6           0       -2.362929   -3.355600   -0.855408
     37          6           0        1.255460    0.544204   -0.025012
     38          6           0       -1.419016   -1.020064   -0.246360
     39          6           0        1.097198   -0.883362   -0.227161
     40          6           0       -0.002425   -1.584973   -0.335174
     41          1           0       13.982999   -0.166267    0.356663
     42          1           0       14.012002   -0.248823   -1.312486
     43          1           0      -12.490846    1.693579    2.131731
     44          1           0      -13.657694    0.591314    2.023151
     45          1           0       14.144187   -2.336990   -0.525251
     46          1           0       12.545265   -2.017905   -1.251313
     47          1           0      -14.028585    2.826132    0.539143
     48          1           0      -14.044143    1.204007   -0.314373
     49          1           0       13.053384   -2.137025    1.737136
     50          1           0       11.816801   -2.989457    0.929179
     51          1           0      -11.837056    3.442428    0.252590
     52          1           0      -12.566568    3.287618   -1.243118
     53          1           0       11.391928   -0.616685   -2.293586
     54          1           0       12.311576    0.683330   -2.830758
     55          1           0       10.767743    0.976850   -2.090057
     56          1           0       12.884058    2.229880    0.664422
     57          1           0       11.578994    2.700966   -0.355251
     58          1           0       13.304526    2.546791   -0.893680
     59          1           0      -13.470655   -0.937687   -0.607718
     60          1           0      -13.709011   -1.660257    1.013743
     61          1           0      -12.300256   -1.959309    0.009399
     62          1           0      -11.145129    0.353395    2.826704
     63          1           0      -10.627513   -1.368181    2.190720
     64          1           0      -12.337209   -1.057379    2.910614
     65          1           0       10.064280    1.920275    0.427142
     66          1           0      -10.226204   -1.602877   -0.633195
     67          1           0        9.536960   -0.759151    2.436620
     68          1           0       10.711051   -1.907718    3.124101
     69          1           0        9.651100   -2.341312    1.575458
     70          1           0       -9.608578    1.066582   -2.136991
     71          1           0       -9.416881    2.724983   -1.327635
     72          1           0      -10.465434    2.319661   -2.808311
     73          1           0        8.162555   -0.620014    0.001171
     74          1           0       -8.451648    0.766026    0.060478
     75          1           0        7.964724    2.810464    1.720004
     76          1           0        6.703884    3.415012    0.499768
     77          1           0        8.524760    3.178439   -0.009264
     78          1           0       -8.298015   -2.819370   -1.607415
     79          1           0       -8.454031   -3.045868   -0.008346
     80          1           0       -6.859476   -3.097202   -1.175107
     81          1           0        6.376931   -0.437508   -0.107599
     82          1           0       -5.969567    0.333541   -0.161685
     83          1           0        4.978880    2.205586    0.617392
     84          1           0       -4.985963   -2.694075   -0.298763
     85          1           0        3.590181   -0.362050   -0.036770
     86          1           0       -3.538022   -0.042046   -0.586169
     87          1           0        2.613793    3.223201    1.164733
     88          1           0        1.350187    3.143658    0.032010
     89          1           0        2.827523    3.279253   -0.747267
     90          1           0       -2.948123   -3.572732   -1.705635
     91          1           0       -2.815395   -4.075912   -0.123224
     92          1           0       -1.287046   -3.828128   -0.994226
     93          1           0        0.359089    1.253940    0.328410
     94          1           0       -1.364013    0.157972   -0.090499
     95          1           0        2.139781   -1.411460   -0.447351
     96          1           0        0.250124   -2.761521   -0.435555
 ---------------------------------------------------------------------

 SCF Done:  E(RB3LYP) =  -1557.59315546     A.U. after   15 cycles

 Excitation energies and oscillator strengths:

 Excited State   1:      Singlet-A      2.4432 eV  507.47 nm  f=2.7362  <S**2>=0.000
     148 ->149         0.70724
 This state for optimization and/or second-order correction.
 Total Energy, E(TD-HF/TD-DFT) =  -1557.50336932
 Copying the excited state density for this state as the 1-particle RhoCI density.

 The electronic state is 1-A.
 Alpha  occ. eigenvalues --  -10.21066 -10.20998 -10.20700 -10.20283 -10.20051
 Alpha  occ. eigenvalues --  -10.19968 -10.19852 -10.19796 -10.19631 -10.19430
 Alpha  occ. eigenvalues --  -10.19395 -10.19385 -10.19347 -10.19233 -10.19167
 Alpha  occ. eigenvalues --  -10.18987 -10.18685 -10.18583 -10.18580 -10.18461
 Alpha  occ. eigenvalues --  -10.18428 -10.18300 -10.18266 -10.18264 -10.18230
 Alpha  occ. eigenvalues --  -10.18222 -10.18165 -10.18153 -10.18138 -10.18042
 Alpha  occ. eigenvalues --  -10.17897 -10.17847 -10.17779 -10.17499 -10.17205
 Alpha  occ. eigenvalues --  -10.17128 -10.16839 -10.16126 -10.15479 -10.15111
 Alpha  occ. eigenvalues --   -0.85171  -0.84799  -0.83749  -0.82987  -0.82459
 Alpha  occ. eigenvalues --   -0.81332  -0.78931  -0.78640  -0.78174  -0.77498
 Alpha  occ. eigenvalues --   -0.77322  -0.75298  -0.74400  -0.73054  -0.71680
 Alpha  occ. eigenvalues --   -0.69550  -0.68895  -0.68668  -0.68315  -0.68057
 Alpha  occ. eigenvalues --   -0.67648  -0.67212  -0.66788  -0.66356  -0.66029
 Alpha  occ. eigenvalues --   -0.62973  -0.61595  -0.59984  -0.58710  -0.56901
 Alpha  occ. eigenvalues --   -0.56696  -0.55566  -0.54605  -0.53765  -0.52953
 Alpha  occ. eigenvalues --   -0.52205  -0.51655  -0.50551  -0.49908  -0.49469
 Alpha  occ. eigenvalues --   -0.48226  -0.47485  -0.47056  -0.46700  -0.46537
 Alpha  occ. eigenvalues --   -0.45517  -0.45353  -0.44723  -0.44566  -0.44479
 Alpha  occ. eigenvalues --   -0.44112  -0.43416  -0.42979  -0.42886  -0.42510
 Alpha  occ. eigenvalues --   -0.42198  -0.41760  -0.41269  -0.40935  -0.40722
 Alpha  occ. eigenvalues --   -0.40422  -0.40127  -0.39831  -0.39715  -0.38931
 Alpha  occ. eigenvalues --   -0.38835  -0.38777  -0.38535  -0.38288  -0.37891
 Alpha  occ. eigenvalues --   -0.37593  -0.37309  -0.36877  -0.36624  -0.36464
 Alpha  occ. eigenvalues --   -0.36350  -0.36159  -0.35952  -0.35698  -0.35335
 Alpha  occ. eigenvalues --   -0.35262  -0.34487  -0.34312  -0.34240  -0.33957
 Alpha  occ. eigenvalues --   -0.33672  -0.33524  -0.33112  -0.32674  -0.32487
 Alpha  occ. eigenvalues --   -0.32104  -0.31780  -0.31353  -0.31071  -0.30470
 Alpha  occ. eigenvalues --   -0.30115  -0.29617  -0.29405  -0.29199  -0.28450
 Alpha  occ. eigenvalues --   -0.28064  -0.27177  -0.26045  -0.24150  -0.22661
 Alpha  occ. eigenvalues --   -0.21748  -0.18911  -0.16928
 Alpha virt. eigenvalues --   -0.07333  -0.04850  -0.00810   0.01166   0.02413
 Alpha virt. eigenvalues --    0.04196   0.05753   0.06301   0.06902   0.07074
 Alpha virt. eigenvalues --    0.07797   0.08330   0.08605   0.08780   0.08963

 Mulliken charges:
               1
     1  C   -0.015766
     2  C   -0.004415
     3  C   -0.153767
     4  C   -0.178667
     5  C   -0.195678
     6  C   -0.178573
     7  C    0.083654
     8  C    0.015115
     9  C   -0.216499
    10  C   -0.217772
    11  C    0.047694
    12  C    0.129927
    13  C   -0.292947
    14  C   -0.316672
    15  C   -0.315028
    16  C   -0.288286
    17  C   -0.164305
    18  C   -0.127345
    19  C   -0.354990
    20  C   -0.383716
    21  C   -0.091010
    22  C   -0.051772
    23  C    0.180190
    24  C    0.073832
    25  C   -0.375412
    26  C   -0.372301
    27  C   -0.117373
    28  C   -0.126815
    29  C   -0.096552
    30  C   -0.099884
    31  C   -0.097981
    32  C   -0.095899
    33  C    0.108252
    34  C    0.125931
    35  C   -0.379288
    36  C   -0.379856
    37  C   -0.115454
    38  C   -0.138403
    39  C   -0.084603
    40  C   -0.086113
    41  H    0.099370
    42  H    0.087777
    43  H    0.079205
    44  H    0.089226
    45  H    0.093733
    46  H    0.097151
    47  H    0.097296
    48  H    0.110467
    49  H    0.087108
    50  H    0.060663
    51  H    0.072262
    52  H    0.113028
    53  H    0.099081
    54  H    0.098263
    55  H    0.114222
    56  H    0.113591
    57  H    0.078647
    58  H    0.088570
    59  H    0.103491
    60  H    0.085047
    61  H    0.101257
    62  H    0.101556
    63  H    0.103865
    64  H    0.067956
    65  H    0.084334
    66  H    0.090026
    67  H    0.123517
    68  H    0.099138
    69  H    0.130769
    70  H    0.104477
    71  H    0.095532
    72  H    0.096666
    73  H    0.077625
    74  H    0.088483
    75  H    0.115376
    76  H    0.119785
    77  H    0.078645
    78  H    0.136273
    79  H    0.125658
    80  H    0.101019
    81  H    0.058042
    82  H    0.082220
    83  H    0.069679
    84  H    0.083946
    85  H    0.058362
    86  H    0.064919
    87  H    0.124818
    88  H    0.096772
    89  H    0.128693
    90  H    0.130641
    91  H    0.117300
    92  H    0.107792
    93  H    0.062294
    94  H    0.097635
    95  H    0.081444
    96  H    0.073830
 Sum of Mulliken charges =  -0.00000

 Dipole moment (field-independent basis, Debye):
    X=             -0.4437    Y=             -0.0796    Z=             -0.4065  Tot=              0.6070
 Quadrupole moment (field-independent basis, Debye-Ang):
   XX=           -222.1696   YY=           -232.7883   ZZ=           -254.3458
   XY=              3.7617   XZ=              5.1962   YZ=              4.6585

 Normal termination of Gaussian 16 at Tue Jul 30 09:10:13 2019.
