 Gaussian 16, Revision A.03,
 Gaussian 16:  ES64L-G16RevA.03 25-Dec-2016

 ---------------------------------
 # td=(NStates=1) B3LYP/6-31G(d,p)
 ---------------------------------

 --
 TD
 --
 Symbolic Z-matrix:
 Charge =  0 Multiplicity = 1

                         Standard orientation:
 ---------------------------------------------------------------------
 Center     Atomic      Atomic             Coordinates (Angstroms)
 Number     Number       Type             X           Y           Z
 ---------------------------------------------------------------------
      1          6           0      -12.116964   -0.411378   -0.574447
      2          6           0       12.070030    0.015303    1.129878
      3          6           0      -13.361300    0.335250   -0.391725
      4          6           0       12.914277   -1.234061    1.451434
      5          6           0      -13.136381    1.908234   -0.318129
      6          6           0       13.361589   -2.006303    0.244485
      7          6           0      -11.071621   -0.075901    0.288707
      8          6           0       10.974723   -0.450801    0.039061
      9          6           0      -12.253764    2.064431    0.870565
     10          6           0       12.098083   -2.569918   -0.585772
     11          6           0      -11.156422    1.166676    1.126846
     12          6           0       10.966220   -1.597468   -0.724926
     13          6           0      -11.673135   -0.487024   -2.031495
     14          6           0      -12.451831   -1.903320   -0.334821
     15          6           0       12.974050    1.073433    0.588484
     16          6           0       11.297031    0.475302    2.409901
     17          6           0       -9.846392   -0.962608    0.284175
     18          6           0        9.891343    0.603221   -0.118344
     19          6           0      -10.000971    1.544772    2.049626
     20          6           0       10.055319   -1.852398   -1.822627
     21          6           0       -8.538370   -0.560116    0.420148
     22          6           0        8.577106    0.358129   -0.234552
     23          6           0       -7.443087   -1.379091    0.323141
     24          6           0        7.496885    1.275835   -0.482471
     25          6           0       -7.547743   -2.874318    0.551212
     26          6           0        7.864763    2.707584   -0.702431
     27          6           0       -6.114360   -0.911145    0.168868
     28          6           0        6.181851    0.835141   -0.462307
     29          6           0       -4.788583   -1.483337    0.223121
     30          6           0        4.970908    1.633833   -0.798119
     31          6           0       -3.687439   -0.568282    0.107587
     32          6           0        3.774467    0.987602   -0.544880
     33          6           0       -2.340058   -1.230908    0.113896
     34          6           0        2.525715    1.790282   -0.670211
     35          6           0       -2.092396   -2.652636    0.257993
     36          6           0        2.516670    3.259015   -0.893831
     37          6           0       -1.258057   -0.424381   -0.055721
     38          6           0        1.370333    1.118923   -0.405976
     39          6           0       -1.195665    1.052575   -0.255798
     40          6           0       -0.009576    1.693098   -0.326684
     41          1           0      -13.776011   -0.128685    0.515287
     42          1           0      -14.046669    0.219145   -1.278437
     43          1           0       12.299718   -1.965699    2.002810
     44          1           0       13.972542   -0.950772    2.025570
     45          1           0      -14.092918    2.147871   -0.011340
     46          1           0      -12.734623    2.214415   -1.272966
     47          1           0       14.043239   -2.923379    0.554482
     48          1           0       13.958507   -1.520162   -0.666168
     49          1           0      -12.836075    1.864894    1.697200
     50          1           0      -11.761658    2.984785    0.884696
     51          1           0       11.896138   -3.503082   -0.065185
     52          1           0       12.500419   -2.788001   -1.629285
     53          1           0      -11.381923    0.438808   -2.252691
     54          1           0      -12.305533   -0.764697   -2.847437
     55          1           0      -10.750551   -1.183547   -2.173910
     56          1           0      -12.736061   -1.971029    0.804503
     57          1           0      -11.821654   -2.655358   -0.760353
     58          1           0      -13.425982   -2.172152   -0.982011
     59          1           0       13.443873    0.952912   -0.376862
     60          1           0       13.364874    1.468693    1.396702
     61          1           0       12.455025    2.016327    0.369047
     62          1           0       10.512883   -0.020356    2.793019
     63          1           0       11.004845    1.517334    2.200771
     64          1           0       12.074353    0.606178    3.258112
     65          1           0       -9.949642   -1.956844    0.164545
     66          1           0       10.296720    1.584239   -0.258851
     67          1           0       -9.478075    0.542330    2.398959
     68          1           0      -10.630320    2.018420    3.000483
     69          1           0       -9.399131    2.316265    1.503425
     70          1           0        9.491942   -0.864327   -2.051345
     71          1           0        9.252027   -2.693913   -1.516160
     72          1           0       10.684979   -2.251243   -2.603769
     73          1           0       -8.425561    0.588490    0.683695
     74          1           0        8.172532   -0.598490   -0.350356
     75          1           0       -8.360901   -3.068048    1.358449
     76          1           0       -6.738228   -3.186459    0.836362
     77          1           0       -8.005489   -3.495554   -0.369776
     78          1           0        8.375104    2.934181   -1.599775
     79          1           0        8.437028    3.217085    0.228876
     80          1           0        6.809943    3.423210   -0.771060
     81          1           0       -6.190722    0.274801   -0.025692
     82          1           0        5.985166   -0.273793   -0.314333
     83          1           0       -4.510339   -2.495272    0.161505
     84          1           0        5.105666    2.766562   -1.042180
     85          1           0       -3.589710    0.563474    0.309353
     86          1           0        3.536525    0.005098   -0.017656
     87          1           0       -2.325460   -3.127870    1.302826
     88          1           0       -1.021647   -2.885338   -0.117470
     89          1           0       -2.542668   -3.353644   -0.472209
     90          1           0        2.837618    3.362004   -2.122317
     91          1           0        3.445480    3.651473   -0.394254
     92          1           0        1.601561    3.786017   -0.562550
     93          1           0       -0.318843   -0.876452    0.132656
     94          1           0        1.235934   -0.005101   -0.421601
     95          1           0       -2.024213    1.718215   -0.403518
     96          1           0       -0.397515    2.916574   -0.334989
 ---------------------------------------------------------------------

 SCF Done:  E(RB3LYP) =  -1557.49790010     A.U. after   16 cycles

 Excitation energies and oscillator strengths:

 Excited State   1:      Singlet-A      2.1970 eV  564.34 nm  f=2.1990  <S**2>=0.000
     148 ->149         0.69609
     148 ->150        -0.12102
 This state for optimization and/or second-order correction.
 Total Energy, E(TD-HF/TD-DFT) =  -1557.41716256
 Copying the excited state density for this state as the 1-particle RhoCI density.

 The electronic state is 1-A.
 Alpha  occ. eigenvalues --  -10.20723 -10.20602 -10.20527 -10.20474 -10.20363
 Alpha  occ. eigenvalues --  -10.20342 -10.20332 -10.20254 -10.20252 -10.19886
 Alpha  occ. eigenvalues --  -10.19740 -10.19711 -10.19658 -10.19641 -10.19626
 Alpha  occ. eigenvalues --  -10.19514 -10.19433 -10.19294 -10.19144 -10.18935
 Alpha  occ. eigenvalues --  -10.18931 -10.18724 -10.18562 -10.18395 -10.18288
 Alpha  occ. eigenvalues --  -10.18279 -10.18235 -10.18228 -10.18159 -10.17962
 Alpha  occ. eigenvalues --  -10.17827 -10.17679 -10.17553 -10.17535 -10.17519
 Alpha  occ. eigenvalues --  -10.17427 -10.17174 -10.16656 -10.16104 -10.15681
 Alpha  occ. eigenvalues --   -0.86477  -0.84332  -0.83214  -0.82660  -0.81956
 Alpha  occ. eigenvalues --   -0.81464  -0.80208  -0.79230  -0.78264  -0.76849
 Alpha  occ. eigenvalues --   -0.76230  -0.74774  -0.74192  -0.72028  -0.71880
 Alpha  occ. eigenvalues --   -0.69369  -0.68998  -0.68377  -0.68025  -0.67629
 Alpha  occ. eigenvalues --   -0.67324  -0.66974  -0.66725  -0.66395  -0.65936
 Alpha  occ. eigenvalues --   -0.62941  -0.61844  -0.60046  -0.58487  -0.56870
 Alpha  occ. eigenvalues --   -0.55908  -0.55078  -0.54810  -0.53353  -0.52579
 Alpha  occ. eigenvalues --   -0.52045  -0.51653  -0.50514  -0.49479  -0.49279
 Alpha  occ. eigenvalues --   -0.48316  -0.47708  -0.47071  -0.46476  -0.45946
 Alpha  occ. eigenvalues --   -0.45642  -0.45339  -0.44693  -0.44344  -0.44082
 Alpha  occ. eigenvalues --   -0.43694  -0.43092  -0.42929  -0.42735  -0.42492
 Alpha  occ. eigenvalues --   -0.42291  -0.41673  -0.41401  -0.41263  -0.40911
 Alpha  occ. eigenvalues --   -0.40844  -0.40461  -0.40209  -0.39896  -0.39859
 Alpha  occ. eigenvalues --   -0.39253  -0.39015  -0.38828  -0.38516  -0.38339
 Alpha  occ. eigenvalues --   -0.37701  -0.37554  -0.37418  -0.36757  -0.36572
 Alpha  occ. eigenvalues --   -0.36059  -0.35895  -0.35791  -0.35576  -0.35451
 Alpha  occ. eigenvalues --   -0.34932  -0.34802  -0.34216  -0.33734  -0.33584
 Alpha  occ. eigenvalues --   -0.33266  -0.32670  -0.32495  -0.32439  -0.31998
 Alpha  occ. eigenvalues --   -0.31456  -0.31405  -0.31165  -0.31119  -0.30833
 Alpha  occ. eigenvalues --   -0.30512  -0.30029  -0.29115  -0.28727  -0.28356
 Alpha  occ. eigenvalues --   -0.27639  -0.27192  -0.25771  -0.23509  -0.21933
 Alpha  occ. eigenvalues --   -0.20374  -0.18285  -0.16304
 Alpha virt. eigenvalues --   -0.07650  -0.05656  -0.01828   0.00210   0.02164
 Alpha virt. eigenvalues --    0.03763   0.04767   0.05373   0.05850   0.07274
 Alpha virt. eigenvalues --    0.07370   0.07677   0.07977   0.08425   0.08980

 Mulliken charges:
               1
     1  C   -0.015777
     2  C    0.013172
     3  C   -0.199650
     4  C   -0.145588
     5  C   -0.189353
     6  C   -0.180891
     7  C    0.101649
     8  C    0.033988
     9  C   -0.198147
    10  C   -0.238686
    11  C    0.022545
    12  C    0.096828
    13  C   -0.293046
    14  C   -0.287262
    15  C   -0.294604
    16  C   -0.312551
    17  C   -0.115034
    18  C   -0.154903
    19  C   -0.358655
    20  C   -0.353310
    21  C   -0.116494
    22  C   -0.077921
    23  C    0.114703
    24  C    0.131431
    25  C   -0.336577
    26  C   -0.361758
    27  C   -0.131626
    28  C   -0.134823
    29  C   -0.099976
    30  C   -0.102198
    31  C   -0.096461
    32  C   -0.096496
    33  C    0.137055
    34  C    0.136366
    35  C   -0.399608
    36  C   -0.353223
    37  C   -0.142454
    38  C   -0.153512
    39  C   -0.083696
    40  C   -0.087689
    41  H    0.089245
    42  H    0.082562
    43  H    0.097046
    44  H    0.060132
    45  H    0.111163
    46  H    0.108282
    47  H    0.072066
    48  H    0.077492
    49  H    0.118342
    50  H    0.099012
    51  H    0.107573
    52  H    0.084217
    53  H    0.099762
    54  H    0.099520
    55  H    0.086715
    56  H    0.077398
    57  H    0.108887
    58  H    0.066063
    59  H    0.120312
    60  H    0.111700
    61  H    0.083014
    62  H    0.126199
    63  H    0.098063
    64  H    0.081245
    65  H    0.076430
    66  H    0.088935
    67  H    0.134326
    68  H    0.072059
    69  H    0.128430
    70  H    0.114502
    71  H    0.090643
    72  H    0.105490
    73  H    0.075510
    74  H    0.078260
    75  H    0.095375
    76  H    0.112254
    77  H    0.090778
    78  H    0.134754
    79  H    0.103379
    80  H    0.055020
    81  H    0.058009
    82  H    0.079221
    83  H    0.097973
    84  H    0.097837
    85  H    0.100861
    86  H    0.102617
    87  H    0.112706
    88  H    0.099372
    89  H    0.121531
    90  H    0.093365
    91  H    0.111939
    92  H    0.125809
    93  H    0.076726
    94  H    0.087828
    95  H    0.089728
    96  H    0.046555
 Sum of Mulliken charges =  -0.00000

 Dipole moment (field-independent basis, Debye):
    X=              0.1095    Y=              0.6128    Z=             -0.0565  Tot=              0.6251
 Quadrupole moment (field-independent basis, Debye-Ang):
   XX=           -226.4660   YY=           -235.6566   ZZ=           -255.4250
   XY=             -2.4212   XZ=             -1.3458   YZ=             -0.8408

 Normal termination of Gaussian 16 at Thu Aug  1 10:24:56 2019.
