 Gaussian 16, Revision A.03,
 Gaussian 16:  ES64L-G16RevA.03 25-Dec-2016

 ---------------------------------
 # td=(NStates=1) B3LYP/6-31G(d,p)
 ---------------------------------

 --
 TD
 --
 Symbolic Z-matrix:
 Charge =  0 Multiplicity = 1

                         Standard orientation:
 ---------------------------------------------------------------------
 Center     Atomic      Atomic             Coordinates (Angstroms)
 Number     Number       Type             X           Y           Z
 ---------------------------------------------------------------------
      1          6           0       12.128830    0.371276   -0.731888
      2          6           0      -12.110599   -0.040468    0.911240
      3          6           0       13.423233   -0.449264   -0.582284
      4          6           0      -12.986956    1.129700    1.294972
      5          6           0       12.998523   -1.868953   -0.578627
      6          6           0      -13.404656    1.956377    0.153627
      7          6           0       10.993806   -0.051592    0.298460
      8          6           0      -10.909490    0.412931   -0.101612
      9          6           0       12.084250   -2.238427    0.639067
     10          6           0      -12.226523    2.404144   -0.797848
     11          6           0       11.053037   -1.244695    0.939383
     12          6           0      -11.103459    1.436273   -0.866965
     13          6           0       11.721695    0.389017   -2.256750
     14          6           0       12.416086    1.858403   -0.316680
     15          6           0      -13.042529   -1.241984    0.332272
     16          6           0      -11.484712   -0.665616    2.120729
     17          6           0        9.846592    0.862683    0.491598
     18          6           0       -9.915041   -0.606625   -0.307207
     19          6           0       10.050347   -1.645790    1.950054
     20          6           0       -9.984705    1.943421   -1.895541
     21          6           0        8.568500    0.520846    0.101253
     22          6           0       -8.593269   -0.285643   -0.154357
     23          6           0        7.433747    1.408856    0.397795
     24          6           0       -7.510928   -1.239148   -0.310510
     25          6           0        7.604120    2.885605    0.908148
     26          6           0       -7.835558   -2.622677   -0.501092
     27          6           0        6.178778    0.932403    0.065477
     28          6           0       -6.206464   -0.848303   -0.243379
     29          6           0        4.866848    1.476908    0.348453
     30          6           0       -4.972636   -1.614269   -0.438276
     31          6           0        3.766097    0.785972    0.126303
     32          6           0       -3.698116   -1.025273   -0.337561
     33          6           0        2.430656    1.332335    0.323628
     34          6           0       -2.402285   -1.688547   -0.408789
     35          6           0        2.160115    2.881519    0.615562
     36          6           0       -2.418513   -3.234241   -0.702971
     37          6           0        1.239804    0.707952    0.049843
     38          6           0       -1.260071   -0.984199   -0.169464
     39          6           0        1.167553   -0.781954   -0.218832
     40          6           0        0.003046   -1.492051   -0.311060
     41          1           0       13.948590   -0.339735    0.420495
     42          1           0       14.010257   -0.212579   -1.541622
     43          1           0      -12.591745    1.758373    2.165430
     44          1           0      -13.843129    0.640314    1.923804
     45          1           0       13.815493   -2.683867   -0.734738
     46          1           0       12.442244   -2.015532   -1.605844
     47          1           0      -13.919485    2.817386    0.753269
     48          1           0      -14.311504    1.564189   -0.376567
     49          1           0       12.867285   -2.346989    1.590625
     50          1           0       11.754697   -3.224751    0.752581
     51          1           0      -11.806547    3.417631   -0.553511
     52          1           0      -12.633077    2.500353   -2.021542
     53          1           0       11.418688   -0.707119   -2.393043
     54          1           0       12.582565    0.872921   -2.745219
     55          1           0       10.678893    1.064592   -2.165645
     56          1           0       12.969611    1.990329    0.604969
     57          1           0       11.593410    2.616470   -0.435046
     58          1           0       13.202030    2.244521   -0.978203
     59          1           0      -13.520217   -0.983928   -0.622642
     60          1           0      -13.863436   -1.520845    0.923139
     61          1           0      -12.351421   -2.232499    0.294589
     62          1           0      -10.934693   -0.063335    2.690033
     63          1           0      -10.914333   -1.459558    1.955907
     64          1           0      -12.327931   -0.962451    2.869009
     65          1           0       10.273203    1.873094    0.914261
     66          1           0      -10.074293   -1.689543   -0.247062
     67          1           0        9.367206   -0.922317    2.058149
     68          1           0       10.407719   -1.837467    3.141617
     69          1           0        9.648606   -2.694279    1.811358
     70          1           0       -9.468819    1.022297   -2.119465
     71          1           0       -9.121678    2.711068   -1.622711
     72          1           0      -10.462285    2.337569   -2.781464
     73          1           0        8.397573   -0.340916   -0.255987
     74          1           0       -8.212707    0.758816   -0.276504
     75          1           0        7.991032    2.825676    1.876194
     76          1           0        6.707383    3.643414    0.860514
     77          1           0        8.498323    3.371869    0.182568
     78          1           0       -8.624576   -2.832833   -1.326815
     79          1           0       -8.102971   -3.113291    0.524069
     80          1           0       -6.777455   -3.243201   -0.867965
     81          1           0        6.289108   -0.162379   -0.176276
     82          1           0       -5.989424    0.210916   -0.191930
     83          1           0        4.660725    2.567984    0.599975
     84          1           0       -4.868651   -2.527256   -0.781725
     85          1           0        4.152162   -0.168433   -0.318529
     86          1           0       -3.550082   -0.001737   -0.342154
     87          1           0        2.424509    3.068837    1.661059
     88          1           0        1.184354    3.044579    0.523381
     89          1           0        2.898014    3.756099    0.212453
     90          1           0       -3.043264   -3.275973   -1.482204
     91          1           0       -2.848929   -3.668649    0.095730
     92          1           0       -1.432309   -3.626981   -1.186916
     93          1           0        0.341609    1.135887    0.219241
     94          1           0       -1.337571    0.081464    0.006945
     95          1           0        2.036878   -1.462686   -0.154951
     96          1           0       -0.044552   -2.536932   -0.342118
 ---------------------------------------------------------------------

 SCF Done:  E(RB3LYP) =  -1557.54149192     A.U. after   15 cycles

 Excitation energies and oscillator strengths:

 Excited State   1:      Singlet-A      2.3344 eV  531.13 nm  f=2.9785  <S**2>=0.000
     148 ->149         0.70268
 This state for optimization and/or second-order correction.
 Total Energy, E(TD-HF/TD-DFT) =  -1557.45570596
 Copying the excited state density for this state as the 1-particle RhoCI density.

 The electronic state is 1-A.
 Alpha  occ. eigenvalues --  -10.21162 -10.20759 -10.20742 -10.20469 -10.20439
 Alpha  occ. eigenvalues --  -10.20386 -10.19958 -10.19930 -10.19906 -10.19475
 Alpha  occ. eigenvalues --  -10.19264 -10.19224 -10.19158 -10.19077 -10.19068
 Alpha  occ. eigenvalues --  -10.19000 -10.18981 -10.18951 -10.18846 -10.18845
 Alpha  occ. eigenvalues --  -10.18818 -10.18800 -10.18795 -10.18654 -10.18654
 Alpha  occ. eigenvalues --  -10.18644 -10.18621 -10.18570 -10.18547 -10.18542
 Alpha  occ. eigenvalues --  -10.18286 -10.18110 -10.17947 -10.17875 -10.17849
 Alpha  occ. eigenvalues --  -10.17727 -10.17579 -10.17305 -10.17206 -10.14793
 Alpha  occ. eigenvalues --   -0.85102  -0.84908  -0.83686  -0.83065  -0.82496
 Alpha  occ. eigenvalues --   -0.81275  -0.79268  -0.78753  -0.78317  -0.77424
 Alpha  occ. eigenvalues --   -0.76763  -0.75550  -0.74127  -0.72081  -0.71873
 Alpha  occ. eigenvalues --   -0.70373  -0.68352  -0.68281  -0.67855  -0.67802
 Alpha  occ. eigenvalues --   -0.67373  -0.67215  -0.66924  -0.66541  -0.66315
 Alpha  occ. eigenvalues --   -0.62861  -0.61866  -0.60060  -0.59031  -0.57606
 Alpha  occ. eigenvalues --   -0.56855  -0.55132  -0.54895  -0.54426  -0.53661
 Alpha  occ. eigenvalues --   -0.53188  -0.51909  -0.51518  -0.49747  -0.49034
 Alpha  occ. eigenvalues --   -0.47481  -0.47152  -0.47008  -0.46546  -0.46293
 Alpha  occ. eigenvalues --   -0.45630  -0.45179  -0.44790  -0.44669  -0.44277
 Alpha  occ. eigenvalues --   -0.44167  -0.43531  -0.43013  -0.42684  -0.41874
 Alpha  occ. eigenvalues --   -0.41728  -0.41705  -0.41406  -0.41180  -0.40848
 Alpha  occ. eigenvalues --   -0.40790  -0.40191  -0.39909  -0.39746  -0.39417
 Alpha  occ. eigenvalues --   -0.38973  -0.38694  -0.38346  -0.38262  -0.38104
 Alpha  occ. eigenvalues --   -0.37754  -0.37694  -0.37402  -0.37128  -0.36855
 Alpha  occ. eigenvalues --   -0.36108  -0.35658  -0.35408  -0.35134  -0.35076
 Alpha  occ. eigenvalues --   -0.34992  -0.34591  -0.34314  -0.33952  -0.33826
 Alpha  occ. eigenvalues --   -0.33502  -0.33341  -0.33278  -0.33006  -0.32884
 Alpha  occ. eigenvalues --   -0.32516  -0.32294  -0.31540  -0.31221  -0.30979
 Alpha  occ. eigenvalues --   -0.30716  -0.29757  -0.29475  -0.29075  -0.28761
 Alpha  occ. eigenvalues --   -0.28494  -0.27279  -0.26041  -0.24189  -0.22713
 Alpha  occ. eigenvalues --   -0.21524  -0.19384  -0.16769
 Alpha virt. eigenvalues --   -0.07845  -0.05197  -0.01617   0.00659   0.02113
 Alpha virt. eigenvalues --    0.03299   0.05213   0.06339   0.06409   0.06933
 Alpha virt. eigenvalues --    0.07436   0.07704   0.08132   0.08446   0.08701

 Mulliken charges:
               1
     1  C   -0.011097
     2  C   -0.005933
     3  C   -0.152824
     4  C   -0.169777
     5  C   -0.182827
     6  C   -0.192128
     7  C    0.034383
     8  C    0.103031
     9  C   -0.216865
    10  C   -0.198629
    11  C    0.130182
    12  C    0.057672
    13  C   -0.282493
    14  C   -0.324051
    15  C   -0.300595
    16  C   -0.285252
    17  C   -0.167903
    18  C   -0.176124
    19  C   -0.355663
    20  C   -0.361542
    21  C   -0.052907
    22  C   -0.081463
    23  C    0.114784
    24  C    0.161389
    25  C   -0.355256
    26  C   -0.383099
    27  C   -0.159605
    28  C   -0.129094
    29  C   -0.052933
    30  C   -0.069438
    31  C   -0.083824
    32  C   -0.115447
    33  C    0.086735
    34  C    0.066214
    35  C   -0.364161
    36  C   -0.374934
    37  C   -0.122696
    38  C   -0.081999
    39  C   -0.101414
    40  C   -0.090934
    41  H    0.093658
    42  H    0.084655
    43  H    0.086285
    44  H    0.076070
    45  H    0.073781
    46  H    0.071962
    47  H    0.079874
    48  H    0.102917
    49  H    0.064031
    50  H    0.110286
    51  H    0.115784
    52  H    0.064871
    53  H    0.108405
    54  H    0.112719
    55  H    0.086040
    56  H    0.105113
    57  H    0.100000
    58  H    0.083540
    59  H    0.098570
    60  H    0.111673
    61  H    0.074001
    62  H    0.106504
    63  H    0.102657
    64  H    0.066761
    65  H    0.100575
    66  H    0.097049
    67  H    0.125634
    68  H    0.063040
    69  H    0.101682
    70  H    0.123537
    71  H    0.094226
    72  H    0.100306
    73  H    0.077427
    74  H    0.084285
    75  H    0.136407
    76  H    0.109057
    77  H    0.085603
    78  H    0.114439
    79  H    0.117900
    80  H    0.073885
    81  H    0.070231
    82  H    0.073326
    83  H    0.070155
    84  H    0.065414
    85  H    0.087816
    86  H    0.071417
    87  H    0.119152
    88  H    0.120086
    89  H    0.095787
    90  H    0.136719
    91  H    0.140073
    92  H    0.103172
    93  H    0.084037
    94  H    0.066528
    95  H    0.084235
    96  H    0.075158
 Sum of Mulliken charges =  -0.00000

 Dipole moment (field-independent basis, Debye):
    X=              0.5432    Y=              0.0769    Z=              0.3347  Tot=              0.6426
 Quadrupole moment (field-independent basis, Debye-Ang):
   XX=           -228.4245   YY=           -236.0233   ZZ=           -256.0092
   XY=              0.0835   XZ=             -0.1502   YZ=              3.7310

 Normal termination of Gaussian 16 at Tue Jul 23 22:50:36 2019.
