 Gaussian 16, Revision A.03,
 Gaussian 16:  ES64L-G16RevA.03 25-Dec-2016

 ---------------------------------
 # td=(NStates=1) B3LYP/6-31G(d,p)
 ---------------------------------

 --
 TD
 --
 Symbolic Z-matrix:
 Charge =  0 Multiplicity = 1

                         Standard orientation:
 ---------------------------------------------------------------------
 Center     Atomic      Atomic             Coordinates (Angstroms)
 Number     Number       Type             X           Y           Z
 ---------------------------------------------------------------------
      1          6           0      -12.152802   -0.579069   -0.596167
      2          6           0       12.069023   -0.050996    0.916520
      3          6           0      -13.418049    0.278629   -0.552822
      4          6           0       12.848377   -1.274381    1.365956
      5          6           0      -13.118567    1.761583   -0.605552
      6          6           0       13.275151   -2.166616    0.127075
      7          6           0      -11.011278   -0.046149    0.325045
      8          6           0       10.928840   -0.387630   -0.142977
      9          6           0      -12.208516    2.167378    0.568139
     10          6           0       11.968989   -2.547972   -0.756685
     11          6           0      -11.068891    1.151203    0.811951
     12          6           0       11.082813   -1.462665   -0.928649
     13          6           0      -11.634704   -0.572521   -2.098546
     14          6           0      -12.563493   -1.963775   -0.116325
     15          6           0       12.925918    1.008304    0.282299
     16          6           0       11.370377    0.507498    2.223253
     17          6           0       -9.818995   -0.860737    0.365693
     18          6           0        9.846067    0.589852   -0.223276
     19          6           0      -10.116355    1.914098    1.778240
     20          6           0        9.987001   -1.840543   -1.952232
     21          6           0       -8.458533   -0.574597    0.233069
     22          6           0        8.537176    0.342045   -0.209047
     23          6           0       -7.352390   -1.387276    0.354201
     24          6           0        7.581574    1.334817   -0.350578
     25          6           0       -7.629945   -2.884877    0.822889
     26          6           0        7.997524    2.826450   -0.385546
     27          6           0       -6.150384   -0.836805    0.338822
     28          6           0        6.260748    0.947716   -0.276737
     29          6           0       -4.833710   -1.478048    0.394162
     30          6           0        5.053380    1.700317   -0.326060
     31          6           0       -3.695067   -0.687123    0.080671
     32          6           0        3.777598    1.173680   -0.099295
     33          6           0       -2.414837   -1.315589    0.161560
     34          6           0        2.485128    1.915754   -0.370837
     35          6           0       -2.182530   -2.773436    0.411121
     36          6           0        2.568036    3.328075   -0.756436
     37          6           0       -1.131106   -0.529409   -0.015626
     38          6           0        1.467475    1.110603   -0.217252
     39          6           0       -1.121703    0.883800   -0.274552
     40          6           0       -0.103113    1.606288   -0.390144
     41          1           0      -14.099982    0.160734    0.302483
     42          1           0      -14.181141   -0.070830   -1.352516
     43          1           0       12.357168   -1.863407    1.994973
     44          1           0       13.686130   -0.954231    1.761842
     45          1           0      -14.028358    2.481765   -0.415323
     46          1           0      -12.488194    2.070445   -1.614570
     47          1           0       13.818952   -3.061722    0.486091
     48          1           0       14.119483   -1.729153   -0.559112
     49          1           0      -12.938944    2.446472    1.318226
     50          1           0      -11.687299    3.175709    0.497092
     51          1           0       11.400160   -3.410785   -0.079053
     52          1           0       12.331871   -2.961235   -1.642293
     53          1           0      -11.231390    0.473541   -2.553033
     54          1           0      -12.642248   -0.985155   -2.691436
     55          1           0      -10.780438   -1.194130   -2.266589
     56          1           0      -12.847341   -1.983078    1.078975
     57          1           0      -11.728636   -2.687650   -0.355313
     58          1           0      -13.427511   -2.251622   -0.786569
     59          1           0       13.536712    0.536814   -0.426060
     60          1           0       13.722393    1.203058    0.956960
     61          1           0       12.406698    1.955394    0.037611
     62          1           0       10.811125   -0.314206    2.577995
     63          1           0       10.774867    1.490920    1.851940
     64          1           0       12.030186    0.922760    3.040847
     65          1           0      -10.056817   -1.756159    0.711818
     66          1           0       10.273311    1.680038   -0.051067
     67          1           0       -9.333728    1.282821    2.368297
     68          1           0      -10.687286    2.535278    2.604127
     69          1           0       -9.458659    2.613804    1.103561
     70          1           0        9.281224   -1.075887   -2.161128
     71          1           0        9.424655   -2.628684   -1.547467
     72          1           0       10.507400   -2.503152   -2.735915
     73          1           0       -8.253132    0.490176    0.069116
     74          1           0        8.241694   -0.767790   -0.323480
     75          1           0       -8.075509   -2.892114    1.972874
     76          1           0       -6.732995   -3.415942    1.081672
     77          1           0       -8.306423   -3.439320    0.066402
     78          1           0        8.402355    2.709185   -1.440760
     79          1           0        8.556991    3.265561    0.385392
     80          1           0        7.332471    3.535545   -0.561482
     81          1           0       -6.244093    0.064115    0.035421
     82          1           0        6.011258   -0.117501   -0.306367
     83          1           0       -4.641632   -2.516160    0.725100
     84          1           0        5.390406    2.685764   -0.290405
     85          1           0       -3.918037    0.395797   -0.164737
     86          1           0        3.777588    0.041390    0.240545
     87          1           0       -2.704083   -3.095359    1.309361
     88          1           0       -1.063706   -3.082323    0.527290
     89          1           0       -2.455459   -3.400785   -0.490476
     90          1           0        2.917279    3.398352   -1.706764
     91          1           0        3.211597    3.962875   -0.221257
     92          1           0        1.468225    3.740893   -0.975107
     93          1           0       -0.185439   -1.108169   -0.078120
     94          1           0        1.624966    0.185013    0.322092
     95          1           0       -2.103578    1.222194   -0.209279
     96          1           0       -0.192464    2.572896   -0.914371
 ---------------------------------------------------------------------

 SCF Done:  E(RB3LYP) =  -1557.53202901     A.U. after   16 cycles

 Excitation energies and oscillator strengths:

 Excited State   1:      Singlet-A      2.2504 eV  550.93 nm  f=2.0784  <S**2>=0.000
     147 ->149        -0.18292
     148 ->149         0.68410
 This state for optimization and/or second-order correction.
 Total Energy, E(TD-HF/TD-DFT) =  -1557.44932676
 Copying the excited state density for this state as the 1-particle RhoCI density.

 The electronic state is 1-A.
 Alpha  occ. eigenvalues --  -10.21313 -10.20456 -10.20433 -10.20331 -10.20177
 Alpha  occ. eigenvalues --  -10.20037 -10.20015 -10.19787 -10.19748 -10.19680
 Alpha  occ. eigenvalues --  -10.19525 -10.19521 -10.19262 -10.19233 -10.19165
 Alpha  occ. eigenvalues --  -10.19149 -10.19131 -10.18985 -10.18832 -10.18794
 Alpha  occ. eigenvalues --  -10.18606 -10.18589 -10.18398 -10.18269 -10.18260
 Alpha  occ. eigenvalues --  -10.18234 -10.17983 -10.17874 -10.17801 -10.17801
 Alpha  occ. eigenvalues --  -10.17734 -10.17652 -10.17618 -10.17545 -10.17387
 Alpha  occ. eigenvalues --  -10.17381 -10.17076 -10.16679 -10.15894 -10.15788
 Alpha  occ. eigenvalues --   -0.85040  -0.84900  -0.83603  -0.83273  -0.82509
 Alpha  occ. eigenvalues --   -0.81533  -0.79137  -0.79000  -0.77786  -0.77271
 Alpha  occ. eigenvalues --   -0.76988  -0.74722  -0.74019  -0.72064  -0.71033
 Alpha  occ. eigenvalues --   -0.70736  -0.69310  -0.68432  -0.68317  -0.67747
 Alpha  occ. eigenvalues --   -0.67478  -0.66985  -0.66563  -0.66181  -0.65920
 Alpha  occ. eigenvalues --   -0.62930  -0.61944  -0.59300  -0.58678  -0.56495
 Alpha  occ. eigenvalues --   -0.56157  -0.55417  -0.54961  -0.53977  -0.53541
 Alpha  occ. eigenvalues --   -0.52888  -0.52386  -0.50881  -0.49861  -0.49283
 Alpha  occ. eigenvalues --   -0.48254  -0.47771  -0.47319  -0.46767  -0.46445
 Alpha  occ. eigenvalues --   -0.45546  -0.45171  -0.44561  -0.44310  -0.43575
 Alpha  occ. eigenvalues --   -0.43459  -0.43165  -0.42887  -0.42612  -0.42299
 Alpha  occ. eigenvalues --   -0.42107  -0.41926  -0.41483  -0.41223  -0.40672
 Alpha  occ. eigenvalues --   -0.40363  -0.40134  -0.39801  -0.39695  -0.39277
 Alpha  occ. eigenvalues --   -0.39154  -0.38873  -0.38663  -0.38262  -0.38132
 Alpha  occ. eigenvalues --   -0.37623  -0.37345  -0.37196  -0.36870  -0.36606
 Alpha  occ. eigenvalues --   -0.36303  -0.36153  -0.35854  -0.35678  -0.35202
 Alpha  occ. eigenvalues --   -0.34967  -0.34407  -0.33853  -0.33793  -0.33721
 Alpha  occ. eigenvalues --   -0.33463  -0.33146  -0.33047  -0.32987  -0.32775
 Alpha  occ. eigenvalues --   -0.32584  -0.32053  -0.31397  -0.31038  -0.30520
 Alpha  occ. eigenvalues --   -0.30087  -0.29929  -0.29419  -0.28483  -0.28333
 Alpha  occ. eigenvalues --   -0.27622  -0.27388  -0.25884  -0.24643  -0.22495
 Alpha  occ. eigenvalues --   -0.21539  -0.18241  -0.16604
 Alpha virt. eigenvalues --   -0.07828  -0.05495  -0.01463   0.00864   0.03087
 Alpha virt. eigenvalues --    0.04414   0.06055   0.06366   0.06844   0.07259
 Alpha virt. eigenvalues --    0.08221   0.08358   0.08758   0.08950   0.09156

 Mulliken charges:
               1
     1  C   -0.004371
     2  C   -0.023072
     3  C   -0.152120
     4  C   -0.151616
     5  C   -0.183757
     6  C   -0.220205
     7  C    0.072726
     8  C    0.068510
     9  C   -0.217451
    10  C   -0.215235
    11  C    0.069304
    12  C    0.091928
    13  C   -0.276911
    14  C   -0.292791
    15  C   -0.295548
    16  C   -0.284555
    17  C   -0.133810
    18  C   -0.147986
    19  C   -0.358280
    20  C   -0.365868
    21  C   -0.106771
    22  C   -0.079320
    23  C    0.148272
    24  C    0.092538
    25  C   -0.362567
    26  C   -0.363240
    27  C   -0.110261
    28  C   -0.135196
    29  C   -0.096918
    30  C   -0.067940
    31  C   -0.099545
    32  C   -0.148841
    33  C    0.078709
    34  C    0.170503
    35  C   -0.376229
    36  C   -0.379631
    37  C   -0.130883
    38  C   -0.150146
    39  C   -0.022804
    40  C   -0.131748
    41  H    0.091228
    42  H    0.078099
    43  H    0.101977
    44  H    0.097485
    45  H    0.069761
    46  H    0.068968
    47  H    0.082203
    48  H    0.078521
    49  H    0.102993
    50  H    0.092251
    51  H    0.080349
    52  H    0.106344
    53  H    0.093310
    54  H    0.069764
    55  H    0.114633
    56  H    0.092451
    57  H    0.098029
    58  H    0.093565
    59  H    0.107693
    60  H    0.091616
    61  H    0.100860
    62  H    0.108473
    63  H    0.067491
    64  H    0.087187
    65  H    0.084680
    66  H    0.075109
    67  H    0.099454
    68  H    0.100474
    69  H    0.103292
    70  H    0.119469
    71  H    0.118674
    72  H    0.082014
    73  H    0.068738
    74  H    0.087525
    75  H    0.092389
    76  H    0.111147
    77  H    0.113027
    78  H    0.124772
    79  H    0.127519
    80  H    0.112869
    81  H    0.060102
    82  H    0.057794
    83  H    0.089968
    84  H    0.067381
    85  H    0.099956
    86  H    0.080256
    87  H    0.122450
    88  H    0.103792
    89  H    0.120651
    90  H    0.143759
    91  H    0.133723
    92  H    0.092752
    93  H    0.079995
    94  H    0.093050
    95  H    0.074810
    96  H    0.076282
 Sum of Mulliken charges =  -0.00000

 Dipole moment (field-independent basis, Debye):
    X=              0.6944    Y=             -0.0834    Z=              0.4114  Tot=              0.8114
 Quadrupole moment (field-independent basis, Debye-Ang):
   XX=           -233.4133   YY=           -232.6318   ZZ=           -255.9170
   XY=             -0.4041   XZ=             -1.1468   YZ=             -3.1762

 Normal termination of Gaussian 16 at Sat Jul 27 16:43:09 2019.
