 Gaussian 16, Revision A.03,
 Gaussian 16:  ES64L-G16RevA.03 25-Dec-2016

 ---------------------------------
 # td=(NStates=1) B3LYP/6-31G(d,p)
 ---------------------------------

 --
 TD
 --
 Symbolic Z-matrix:
 Charge =  0 Multiplicity = 1

                         Standard orientation:
 ---------------------------------------------------------------------
 Center     Atomic      Atomic             Coordinates (Angstroms)
 Number     Number       Type             X           Y           Z
 ---------------------------------------------------------------------
      1          6           0      -12.086703   -0.526240   -0.658210
      2          6           0       12.096109   -0.020290    0.930149
      3          6           0      -13.384772    0.365878   -0.594695
      4          6           0       12.833295   -1.227512    1.350777
      5          6           0      -13.112211    1.910078   -0.507771
      6          6           0       13.317138   -2.098433    0.167882
      7          6           0      -10.978377   -0.071078    0.194180
      8          6           0       11.002539   -0.435349   -0.104052
      9          6           0      -12.208506    2.196887    0.550089
     10          6           0       12.112564   -2.598986   -0.752355
     11          6           0      -11.010823    1.169904    0.831147
     12          6           0       11.024682   -1.558034   -0.809703
     13          6           0      -11.725964   -0.660898   -2.186077
     14          6           0      -12.573689   -1.989359   -0.337193
     15          6           0       13.084849    0.983034    0.232064
     16          6           0       11.512882    0.719446    2.135201
     17          6           0       -9.807677   -0.888791    0.367319
     18          6           0        9.856326    0.488434   -0.255587
     19          6           0      -10.197263    1.620742    1.954361
     20          6           0       10.044969   -1.899441   -1.878456
     21          6           0       -8.551776   -0.521736    0.291346
     22          6           0        8.550060    0.240506   -0.199318
     23          6           0       -7.407641   -1.365790    0.316003
     24          6           0        7.507178    1.226421   -0.474234
     25          6           0       -7.611006   -2.850088    0.725109
     26          6           0        7.977407    2.600256   -0.710151
     27          6           0       -6.149296   -0.915131    0.128818
     28          6           0        6.151751    0.856118   -0.344019
     29          6           0       -4.943128   -1.468126    0.343009
     30          6           0        5.082305    1.729755   -0.449918
     31          6           0       -3.750209   -0.835266    0.177424
     32          6           0        3.736656    1.336035   -0.243022
     33          6           0       -2.348259   -1.320507    0.334878
     34          6           0        2.477283    1.975024   -0.271113
     35          6           0       -2.161507   -2.657153    0.687144
     36          6           0        2.409798    3.505083   -0.522356
     37          6           0       -1.292506   -0.514211    0.268505
     38          6           0        1.394674    1.190594   -0.166138
     39          6           0       -1.124456    0.882960   -0.222249
     40          6           0        0.049317    1.581262   -0.292728
     41          1           0      -13.969114    0.166515    0.359829
     42          1           0      -13.991531    0.133175   -1.405856
     43          1           0       12.121751   -1.728028    2.164669
     44          1           0       13.698746   -0.940995    2.021156
     45          1           0      -13.972828    2.559358   -0.377914
     46          1           0      -12.781620    2.572848   -1.547888
     47          1           0       13.937029   -2.927216    0.596776
     48          1           0       13.959703   -1.577768   -0.444631
     49          1           0      -12.618971    2.223671    1.636341
     50          1           0      -11.714237    3.148589    0.524591
     51          1           0       11.774536   -3.677186   -0.519743
     52          1           0       12.474529   -2.700489   -1.839584
     53          1           0      -11.391952    0.252476   -2.698843
     54          1           0      -12.687248   -0.985222   -2.653390
     55          1           0      -10.861820   -1.256637   -2.294142
     56          1           0      -12.807031   -2.009227    0.709760
     57          1           0      -11.628558   -2.656462   -0.757352
     58          1           0      -13.378694   -2.219719   -0.991990
     59          1           0       13.701568    0.483686   -0.666654
     60          1           0       13.796394    1.413344    1.034391
     61          1           0       12.495378    1.977147   -0.314776
     62          1           0       10.505575    0.063286    2.692979
     63          1           0       11.133543    1.613077    1.807249
     64          1           0       12.250964    0.865299    2.979247
     65          1           0       -9.973198   -1.987958    0.347743
     66          1           0       10.395667    1.419705   -0.233606
     67          1           0       -9.667674    0.991310    2.318487
     68          1           0      -10.955375    2.034342    2.731428
     69          1           0       -9.430167    2.473938    1.594535
     70          1           0        9.402468   -0.810627   -2.045021
     71          1           0        9.500242   -2.779363   -1.419608
     72          1           0       10.752236   -2.202055   -2.699322
     73          1           0       -8.065101    0.620534    0.161475
     74          1           0        8.224342   -0.863480   -0.165131
     75          1           0       -8.249963   -2.935112    1.739672
     76          1           0       -6.776101   -3.454344    0.963247
     77          1           0       -8.224467   -3.425363   -0.073699
     78          1           0        8.624164    2.448115   -1.671126
     79          1           0        8.613050    3.067298    0.041268
     80          1           0        7.196854    3.417600   -1.010604
     81          1           0       -6.205364    0.165605   -0.203620
     82          1           0        5.896113   -0.167134   -0.419875
     83          1           0       -4.838498   -2.536051    0.597881
     84          1           0        5.315865    2.856285   -0.732531
     85          1           0       -4.053066    0.233873   -0.305497
     86          1           0        3.443964    0.330323   -0.064996
     87          1           0       -2.740834   -2.961203    1.589580
     88          1           0       -1.106026   -2.966801    1.167347
     89          1           0       -2.374509   -3.473576   -0.110886
     90          1           0        2.920772    3.698004   -1.410223
     91          1           0        3.058246    3.875085    0.200487
     92          1           0        1.438157    3.954249   -0.443443
     93          1           0       -0.331790   -1.014019    0.282573
     94          1           0        1.419698    0.078413    0.086135
     95          1           0       -2.037183    1.502659   -0.236322
     96          1           0        0.005283    2.680214   -0.626921
 ---------------------------------------------------------------------

 SCF Done:  E(RB3LYP) =  -1557.57761923     A.U. after   15 cycles

 Excitation energies and oscillator strengths:

 Excited State   1:      Singlet-A      2.1700 eV  571.37 nm  f=2.9919  <S**2>=0.000
     147 ->149        -0.11126
     148 ->149         0.69976
 This state for optimization and/or second-order correction.
 Total Energy, E(TD-HF/TD-DFT) =  -1557.49787449
 Copying the excited state density for this state as the 1-particle RhoCI density.

 The electronic state is 1-A.
 Alpha  occ. eigenvalues --  -10.20963 -10.20425 -10.20157 -10.20123 -10.19951
 Alpha  occ. eigenvalues --  -10.19889 -10.19846 -10.19788 -10.19539 -10.19537
 Alpha  occ. eigenvalues --  -10.19420 -10.19265 -10.19246 -10.19244 -10.19198
 Alpha  occ. eigenvalues --  -10.19143 -10.19098 -10.19058 -10.19057 -10.18905
 Alpha  occ. eigenvalues --  -10.18712 -10.18708 -10.18699 -10.18631 -10.18598
 Alpha  occ. eigenvalues --  -10.18521 -10.18415 -10.18325 -10.18292 -10.18162
 Alpha  occ. eigenvalues --  -10.18155 -10.18151 -10.18111 -10.18061 -10.18056
 Alpha  occ. eigenvalues --  -10.17996 -10.17754 -10.17292 -10.17085 -10.16792
 Alpha  occ. eigenvalues --   -0.85383  -0.85044  -0.84080  -0.83640  -0.82554
 Alpha  occ. eigenvalues --   -0.82190  -0.79280  -0.79047  -0.78757  -0.78170
 Alpha  occ. eigenvalues --   -0.76927  -0.75984  -0.74658  -0.72732  -0.71779
 Alpha  occ. eigenvalues --   -0.70712  -0.69117  -0.68355  -0.67821  -0.67601
 Alpha  occ. eigenvalues --   -0.67358  -0.67019  -0.66516  -0.66019  -0.65847
 Alpha  occ. eigenvalues --   -0.63037  -0.62370  -0.60294  -0.59376  -0.57637
 Alpha  occ. eigenvalues --   -0.56317  -0.55860  -0.54980  -0.53348  -0.52754
 Alpha  occ. eigenvalues --   -0.52393  -0.52081  -0.50024  -0.49400  -0.48758
 Alpha  occ. eigenvalues --   -0.47989  -0.47750  -0.47335  -0.46734  -0.46198
 Alpha  occ. eigenvalues --   -0.45491  -0.45288  -0.44786  -0.43972  -0.43925
 Alpha  occ. eigenvalues --   -0.43800  -0.43365  -0.42847  -0.42512  -0.42305
 Alpha  occ. eigenvalues --   -0.42158  -0.41878  -0.41668  -0.41560  -0.41479
 Alpha  occ. eigenvalues --   -0.40983  -0.40425  -0.40224  -0.39714  -0.39513
 Alpha  occ. eigenvalues --   -0.39292  -0.39110  -0.38627  -0.38321  -0.38030
 Alpha  occ. eigenvalues --   -0.38012  -0.37569  -0.37404  -0.37147  -0.36151
 Alpha  occ. eigenvalues --   -0.35812  -0.35436  -0.35328  -0.34803  -0.34680
 Alpha  occ. eigenvalues --   -0.34361  -0.34288  -0.34023  -0.33950  -0.33818
 Alpha  occ. eigenvalues --   -0.33573  -0.33281  -0.33210  -0.33116  -0.32393
 Alpha  occ. eigenvalues --   -0.32293  -0.32096  -0.31792  -0.31448  -0.31221
 Alpha  occ. eigenvalues --   -0.30599  -0.30212  -0.29976  -0.29486  -0.29004
 Alpha  occ. eigenvalues --   -0.28110  -0.27620  -0.26803  -0.24210  -0.22640
 Alpha  occ. eigenvalues --   -0.21356  -0.18550  -0.16487
 Alpha virt. eigenvalues --   -0.08306  -0.05475  -0.01545   0.01085   0.02999
 Alpha virt. eigenvalues --    0.04796   0.05913   0.06611   0.06931   0.07485
 Alpha virt. eigenvalues --    0.07588   0.08064   0.08150   0.08315   0.08669

 Mulliken charges:
               1
     1  C   -0.050771
     2  C    0.006259
     3  C   -0.167059
     4  C   -0.160079
     5  C   -0.181695
     6  C   -0.194667
     7  C    0.123051
     8  C    0.077955
     9  C   -0.194940
    10  C   -0.227245
    11  C    0.030674
    12  C    0.061222
    13  C   -0.291000
    14  C   -0.279429
    15  C   -0.279609
    16  C   -0.276273
    17  C   -0.184911
    18  C   -0.139734
    19  C   -0.307993
    20  C   -0.336249
    21  C   -0.061226
    22  C   -0.096046
    23  C    0.149166
    24  C    0.111299
    25  C   -0.374939
    26  C   -0.367041
    27  C   -0.137943
    28  C   -0.101734
    29  C   -0.044636
    30  C   -0.095314
    31  C   -0.127846
    32  C   -0.111232
    33  C    0.172713
    34  C    0.118353
    35  C   -0.401788
    36  C   -0.373423
    37  C   -0.139884
    38  C   -0.121149
    39  C   -0.100530
    40  C   -0.086390
    41  H    0.086843
    42  H    0.093605
    43  H    0.078969
    44  H    0.076969
    45  H    0.101567
    46  H    0.052258
    47  H    0.086061
    48  H    0.113559
    49  H    0.081209
    50  H    0.108817
    51  H    0.098858
    52  H    0.087872
    53  H    0.099170
    54  H    0.090910
    55  H    0.107100
    56  H    0.107610
    57  H    0.074501
    58  H    0.107431
    59  H    0.094215
    60  H    0.096920
    61  H    0.061927
    62  H    0.056816
    63  H    0.110553
    64  H    0.097074
    65  H    0.086361
    66  H    0.078351
    67  H    0.117107
    68  H    0.088440
    69  H    0.086457
    70  H    0.096410
    71  H    0.111039
    72  H    0.096125
    73  H    0.057607
    74  H    0.088538
    75  H    0.093461
    76  H    0.115129
    77  H    0.105656
    78  H    0.112622
    79  H    0.128657
    80  H    0.094726
    81  H    0.060566
    82  H    0.086598
    83  H    0.076036
    84  H    0.069791
    85  H    0.064201
    86  H    0.071432
    87  H    0.119190
    88  H    0.093707
    89  H    0.113327
    90  H    0.130955
    91  H    0.131406
    92  H    0.115360
    93  H    0.073909
    94  H    0.076953
    95  H    0.086264
    96  H    0.064888
 Sum of Mulliken charges =  -0.00000

 Dipole moment (field-independent basis, Debye):
    X=              0.6080    Y=              0.0938    Z=              0.1597  Tot=              0.6356
 Quadrupole moment (field-independent basis, Debye-Ang):
   XX=           -205.7369   YY=           -235.7549   ZZ=           -256.0465
   XY=              1.1549   XZ=             -1.1934   YZ=             -2.3787

 Normal termination of Gaussian 16 at Sun Jul 28 06:36:35 2019.
