 Gaussian 16, Revision A.03,
 Gaussian 16:  ES64L-G16RevA.03 25-Dec-2016

 ---------------------------------
 # td=(NStates=1) B3LYP/6-31G(d,p)
 ---------------------------------

 --
 TD
 --
 Symbolic Z-matrix:
 Charge =  0 Multiplicity = 1

                         Standard orientation:
 ---------------------------------------------------------------------
 Center     Atomic      Atomic             Coordinates (Angstroms)
 Number     Number       Type             X           Y           Z
 ---------------------------------------------------------------------
      1          6           0       12.156860    0.503032   -0.850651
      2          6           0      -12.138685    0.036835    0.919343
      3          6           0       13.358550   -0.312149   -0.771304
      4          6           0      -13.075001    1.185225    1.264453
      5          6           0       13.048588   -1.876429   -0.584818
      6          6           0      -13.492989    1.859690   -0.056034
      7          6           0       11.082932    0.073084    0.256784
      8          6           0      -11.044636    0.397300   -0.049804
      9          6           0       12.310376   -2.049503    0.741541
     10          6           0      -12.235504    2.496043   -0.656995
     11          6           0       11.216000   -1.014358    0.953833
     12          6           0      -11.087807    1.610623   -0.702880
     13          6           0       11.436207    0.429037   -2.240934
     14          6           0       12.599925    2.003218   -0.617439
     15          6           0      -12.832642   -1.110231    0.044947
     16          6           0      -11.583429   -0.733658    2.221416
     17          6           0        9.817775    0.912881    0.344974
     18          6           0       -9.884662   -0.553832   -0.288390
     19          6           0       10.233118   -1.597175    1.935088
     20          6           0       -9.871194    2.072335   -1.669882
     21          6           0        8.524262    0.417675    0.438981
     22          6           0       -8.534980   -0.309831   -0.229004
     23          6           0        7.433591    1.309746    0.450567
     24          6           0       -7.415462   -1.192828   -0.490938
     25          6           0        7.619286    2.895867    0.532208
     26          6           0       -7.845251   -2.658280   -0.853621
     27          6           0        6.135073    0.730158    0.322809
     28          6           0       -6.140023   -0.732497   -0.408136
     29          6           0        4.880589    1.335503    0.498068
     30          6           0       -4.982870   -1.471342   -0.561895
     31          6           0        3.707966    0.663250    0.423671
     32          6           0       -3.704269   -1.053697   -0.267233
     33          6           0        2.348251    1.177369    0.535945
     34          6           0       -2.483034   -1.833043   -0.335804
     35          6           0        2.247025    2.732548    0.728606
     36          6           0       -2.560049   -3.267107   -0.549606
     37          6           0        1.218421    0.388864    0.308009
     38          6           0       -1.264526   -1.080207   -0.279639
     39          6           0        1.167045   -0.957158    0.022069
     40          6           0        0.003692   -1.679587   -0.259226
     41          1           0       13.877053   -0.008144   -0.008264
     42          1           0       14.153642   -0.235403   -1.684282
     43          1           0      -12.666861    1.991472    1.822884
     44          1           0      -13.904407    0.734858    1.717821
     45          1           0       14.129063   -2.361629   -0.522489
     46          1           0       12.433851   -2.091118   -1.430734
     47          1           0      -14.282954    2.626607    0.187289
     48          1           0      -13.964327    1.246993   -0.786494
     49          1           0       13.113367   -1.924338    1.577461
     50          1           0       12.013378   -3.087580    0.963362
     51          1           0      -12.015483    3.483856    0.100892
     52          1           0      -12.515580    2.856472   -1.729930
     53          1           0       11.077178   -0.684913   -2.500446
     54          1           0       12.205148    0.842118   -2.893276
     55          1           0       10.519954    0.928016   -2.255272
     56          1           0       12.917065    2.182308    0.436818
     57          1           0       11.763976    2.920216   -0.542518
     58          1           0       13.289136    2.246044   -1.389385
     59          1           0      -13.539754   -0.744198   -0.717194
     60          1           0      -13.474455   -1.572406    0.758144
     61          1           0      -12.026657   -1.764698   -0.332805
     62          1           0      -11.161701    0.029043    2.847723
     63          1           0      -11.143251   -1.748411    2.131093
     64          1           0      -12.555088   -0.895942    2.893571
     65          1           0       10.117437    2.063611   -0.074028
     66          1           0      -10.162970   -1.666940   -0.363493
     67          1           0        9.522981   -0.691982    2.285680
     68          1           0       10.632763   -2.225679    2.704729
     69          1           0        9.482106   -2.189943    1.420813
     70          1           0       -9.395146    1.228512   -1.837435
     71          1           0       -9.529008    3.038735   -1.153869
     72          1           0      -10.304429    2.337688   -2.598324
     73          1           0        8.219927   -0.596106    0.440932
     74          1           0       -8.104463    0.642258    0.100200
     75          1           0        8.495673    2.858632    1.374591
     76          1           0        6.636535    3.307176    0.567713
     77          1           0        7.901294    3.122358   -0.378722
     78          1           0       -8.490669   -2.836953   -1.709711
     79          1           0       -8.290519   -3.010492   -0.024851
     80          1           0       -6.920311   -3.081275   -1.178796
     81          1           0        6.016260   -0.299992    0.189441
     82          1           0       -6.060090    0.361978   -0.034731
     83          1           0        4.803082    2.480242    0.563943
     84          1           0       -5.015367   -2.505587   -0.839018
     85          1           0        3.756578   -0.512631    0.508090
     86          1           0       -3.579763   -0.065360    0.095347
     87          1           0        2.656297    2.989242    1.574341
     88          1           0        1.364687    3.122175    0.951937
     89          1           0        2.753878    3.177979   -0.136228
     90          1           0       -3.160545   -3.334401   -1.432693
     91          1           0       -3.082309   -3.831456    0.363890
     92          1           0       -1.591506   -3.837314   -0.718858
     93          1           0        0.226272    0.780001    0.417226
     94          1           0       -1.403242   -0.006596   -0.336993
     95          1           0        1.989878   -1.515035   -0.144031
     96          1           0        0.061279   -2.756284   -0.555519
 ---------------------------------------------------------------------

 SCF Done:  E(RB3LYP) =  -1557.60158158     A.U. after   16 cycles

 Excitation energies and oscillator strengths:

 Excited State   1:      Singlet-A      1.9853 eV  624.51 nm  f=3.2880  <S**2>=0.000
     148 ->149         0.71318
     148 <-149        -0.13104
 This state for optimization and/or second-order correction.
 Total Energy, E(TD-HF/TD-DFT) =  -1557.52862340
 Copying the excited state density for this state as the 1-particle RhoCI density.

 The electronic state is 1-A.
 Alpha  occ. eigenvalues --  -10.20584 -10.20518 -10.20392 -10.20149 -10.20103
 Alpha  occ. eigenvalues --  -10.20086 -10.19778 -10.19729 -10.19688 -10.19351
 Alpha  occ. eigenvalues --  -10.19308 -10.19085 -10.19019 -10.18949 -10.18938
 Alpha  occ. eigenvalues --  -10.18849 -10.18715 -10.18709 -10.18687 -10.18615
 Alpha  occ. eigenvalues --  -10.18387 -10.18383 -10.18370 -10.18367 -10.18344
 Alpha  occ. eigenvalues --  -10.18315 -10.18289 -10.18237 -10.18167 -10.18122
 Alpha  occ. eigenvalues --  -10.17739 -10.17691 -10.17566 -10.17457 -10.17372
 Alpha  occ. eigenvalues --  -10.17280 -10.17061 -10.16842 -10.16287 -10.16109
 Alpha  occ. eigenvalues --   -0.84946  -0.84878  -0.83689  -0.82915  -0.82128
 Alpha  occ. eigenvalues --   -0.81193  -0.79173  -0.78585  -0.77350  -0.77274
 Alpha  occ. eigenvalues --   -0.76310  -0.75115  -0.74508  -0.71525  -0.71282
 Alpha  occ. eigenvalues --   -0.71051  -0.69235  -0.69031  -0.68183  -0.67934
 Alpha  occ. eigenvalues --   -0.67858  -0.67087  -0.66891  -0.66647  -0.66140
 Alpha  occ. eigenvalues --   -0.63268  -0.62036  -0.59884  -0.59056  -0.57187
 Alpha  occ. eigenvalues --   -0.56512  -0.55353  -0.55202  -0.53776  -0.52969
 Alpha  occ. eigenvalues --   -0.52498  -0.52074  -0.50427  -0.49815  -0.49268
 Alpha  occ. eigenvalues --   -0.48743  -0.47945  -0.47239  -0.46832  -0.46138
 Alpha  occ. eigenvalues --   -0.45615  -0.45184  -0.44660  -0.44292  -0.43615
 Alpha  occ. eigenvalues --   -0.43395  -0.43161  -0.42755  -0.42675  -0.42498
 Alpha  occ. eigenvalues --   -0.42170  -0.41980  -0.41812  -0.41509  -0.41440
 Alpha  occ. eigenvalues --   -0.41069  -0.40610  -0.40436  -0.39739  -0.39627
 Alpha  occ. eigenvalues --   -0.39323  -0.39138  -0.38747  -0.38400  -0.38196
 Alpha  occ. eigenvalues --   -0.37983  -0.37811  -0.37275  -0.37128  -0.36883
 Alpha  occ. eigenvalues --   -0.36294  -0.36119  -0.35809  -0.35722  -0.35197
 Alpha  occ. eigenvalues --   -0.34732  -0.34709  -0.34611  -0.34443  -0.34121
 Alpha  occ. eigenvalues --   -0.34051  -0.33475  -0.33052  -0.32861  -0.32720
 Alpha  occ. eigenvalues --   -0.32497  -0.31792  -0.31703  -0.31566  -0.31002
 Alpha  occ. eigenvalues --   -0.30689  -0.29670  -0.29375  -0.29130  -0.29010
 Alpha  occ. eigenvalues --   -0.27844  -0.27304  -0.26129  -0.24081  -0.22541
 Alpha  occ. eigenvalues --   -0.20601  -0.18556  -0.15681
 Alpha virt. eigenvalues --   -0.08581  -0.05391  -0.01925   0.01106   0.02920
 Alpha virt. eigenvalues --    0.04503   0.05811   0.06895   0.07525   0.07699
 Alpha virt. eigenvalues --    0.07793   0.08216   0.08710   0.08994   0.09659

 Mulliken charges:
               1
     1  C   -0.004621
     2  C   -0.010489
     3  C   -0.158765
     4  C   -0.171941
     5  C   -0.192822
     6  C   -0.197258
     7  C    0.070302
     8  C    0.102832
     9  C   -0.223137
    10  C   -0.206892
    11  C    0.086586
    12  C    0.036391
    13  C   -0.279589
    14  C   -0.308747
    15  C   -0.308020
    16  C   -0.307391
    17  C   -0.168965
    18  C   -0.169115
    19  C   -0.380002
    20  C   -0.334765
    21  C   -0.072717
    22  C   -0.083553
    23  C    0.068788
    24  C    0.101635
    25  C   -0.344480
    26  C   -0.369367
    27  C   -0.126186
    28  C   -0.121770
    29  C   -0.064730
    30  C   -0.084413
    31  C   -0.123678
    32  C   -0.114126
    33  C    0.067723
    34  C    0.113275
    35  C   -0.359447
    36  C   -0.378494
    37  C   -0.106313
    38  C   -0.110962
    39  C   -0.051502
    40  C   -0.118604
    41  H    0.107442
    42  H    0.059209
    43  H    0.104238
    44  H    0.094674
    45  H    0.076352
    46  H    0.109488
    47  H    0.079551
    48  H    0.105036
    49  H    0.088412
    50  H    0.100442
    51  H    0.060439
    52  H    0.088414
    53  H    0.077309
    54  H    0.096454
    55  H    0.116661
    56  H    0.111158
    57  H    0.064662
    58  H    0.110404
    59  H    0.100032
    60  H    0.094417
    61  H    0.107498
    62  H    0.113189
    63  H    0.110387
    64  H    0.068818
    65  H    0.074258
    66  H    0.073350
    67  H    0.097106
    68  H    0.106722
    69  H    0.120962
    70  H    0.129617
    71  H    0.107402
    72  H    0.099859
    73  H    0.095821
    74  H    0.075420
    75  H    0.116388
    76  H    0.107597
    77  H    0.144263
    78  H    0.118167
    79  H    0.135441
    80  H    0.105125
    81  H    0.067322
    82  H    0.074449
    83  H    0.072195
    84  H    0.076072
    85  H    0.071529
    86  H    0.072457
    87  H    0.129818
    88  H    0.104491
    89  H    0.121702
    90  H    0.133930
    91  H    0.108657
    92  H    0.105975
    93  H    0.074484
    94  H    0.090307
    95  H    0.067828
    96  H    0.081932
 Sum of Mulliken charges =  -0.00000

 Dipole moment (field-independent basis, Debye):
    X=             -0.2325    Y=             -0.4798    Z=             -0.0772  Tot=              0.5388
 Quadrupole moment (field-independent basis, Debye-Ang):
   XX=           -219.6504   YY=           -235.5641   ZZ=           -255.1816
   XY=             -0.6989   XZ=             -3.4383   YZ=              1.8913

 Normal termination of Gaussian 16 at Wed Jul 31 18:27:52 2019.
