 Gaussian 16, Revision A.03,
 Gaussian 16:  ES64L-G16RevA.03 25-Dec-2016

 ---------------------------------
 # td=(NStates=1) B3LYP/6-31G(d,p)
 ---------------------------------

 --
 TD
 --
 Symbolic Z-matrix:
 Charge =  0 Multiplicity = 1

                         Standard orientation:
 ---------------------------------------------------------------------
 Center     Atomic      Atomic             Coordinates (Angstroms)
 Number     Number       Type             X           Y           Z
 ---------------------------------------------------------------------
      1          6           0       12.013059    0.561922   -0.732023
      2          6           0      -12.080625   -0.049310    0.949123
      3          6           0       13.370953   -0.265613   -0.657676
      4          6           0      -13.029775    1.060375    1.231131
      5          6           0       13.201353   -1.769341   -0.483332
      6          6           0      -13.540390    1.896402   -0.028591
      7          6           0       11.055621   -0.044694    0.144438
      8          6           0      -11.063825    0.452252   -0.040406
      9          6           0       12.403370   -2.059439    0.828056
     10          6           0      -12.217462    2.563320   -0.626342
     11          6           0       11.224855   -1.156423    0.879491
     12          6           0      -11.015804    1.680177   -0.762112
     13          6           0       11.524690    0.395254   -2.190696
     14          6           0       12.380166    2.077127   -0.378894
     15          6           0      -12.784260   -1.247704    0.334041
     16          6           0      -11.444722   -0.521724    2.213794
     17          6           0        9.810535    0.935102    0.316722
     18          6           0       -9.946752   -0.571213   -0.195360
     19          6           0       10.285215   -1.531552    2.075384
     20          6           0      -10.028702    2.035563   -1.747884
     21          6           0        8.559497    0.488845    0.210422
     22          6           0       -8.580652   -0.279648   -0.219160
     23          6           0        7.333779    1.301843    0.364600
     24          6           0       -7.506310   -1.242099   -0.330544
     25          6           0        7.500482    2.753089    0.882512
     26          6           0       -7.902149   -2.594437   -0.756077
     27          6           0        6.180454    0.766243    0.256736
     28          6           0       -6.194863   -0.789192   -0.188279
     29          6           0        4.839571    1.416105    0.309360
     30          6           0       -4.951028   -1.567292   -0.451586
     31          6           0        3.688636    0.689232    0.116277
     32          6           0       -3.705486   -1.088395   -0.286496
     33          6           0        2.332802    1.232707    0.131567
     34          6           0       -2.489635   -1.801032   -0.340012
     35          6           0        2.199949    2.767109    0.505350
     36          6           0       -2.490840   -3.332545   -0.725713
     37          6           0        1.200274    0.387534    0.009007
     38          6           0       -1.294125   -1.178917   -0.290729
     39          6           0        1.180551   -1.003878   -0.166834
     40          6           0        0.029692   -1.778867   -0.227756
     41          1           0       13.963330    0.001768    0.118831
     42          1           0       14.142791   -0.103122   -1.561700
     43          1           0      -12.430549    1.631225    1.774507
     44          1           0      -13.853732    0.874573    2.039476
     45          1           0       14.127044   -2.358389   -0.632004
     46          1           0       12.469272   -2.275205   -1.126195
     47          1           0      -14.086543    2.800362    0.258493
     48          1           0      -13.990435    1.261835   -0.781976
     49          1           0       13.044605   -1.890315    1.756289
     50          1           0       12.101013   -3.188556    0.949572
     51          1           0      -11.957356    3.407655    0.147234
     52          1           0      -12.620752    3.060898   -1.496115
     53          1           0       11.471780   -0.710836   -2.582172
     54          1           0       12.188716    0.781445   -2.930076
     55          1           0       10.569103    0.775987   -2.479016
     56          1           0       12.941586    2.404348    0.426755
     57          1           0       11.459902    2.554897   -0.456652
     58          1           0       13.120372    2.518735   -1.208367
     59          1           0      -13.210540   -0.946326   -0.646459
     60          1           0      -13.753341   -1.514320    0.923040
     61          1           0      -12.145063   -2.258259    0.283127
     62          1           0      -10.777441    0.327069    2.447916
     63          1           0      -10.717040   -1.407597    2.022936
     64          1           0      -12.107572   -0.718365    2.886487
     65          1           0       10.052725    1.990703    0.744718
     66          1           0      -10.165613   -1.552106   -0.614891
     67          1           0        9.497443   -0.764849    2.116088
     68          1           0       10.796980   -1.555699    3.235725
     69          1           0        9.795626   -2.470017    1.924224
     70          1           0       -9.441562    1.148479   -1.820609
     71          1           0       -9.351770    2.725395   -1.186291
     72          1           0      -10.522117    2.627958   -2.545775
     73          1           0        8.350478   -0.516092    0.148225
     74          1           0       -8.325176    0.871328    0.071733
     75          1           0        7.915267    2.735562    1.919001
     76          1           0        6.529036    3.359527    0.765680
     77          1           0        8.214788    3.409089    0.248492
     78          1           0       -8.424195   -2.630388   -1.652428
     79          1           0       -8.568302   -3.074473   -0.161037
     80          1           0       -6.972472   -3.220630   -0.766273
     81          1           0        6.169099   -0.327540   -0.216082
     82          1           0       -5.713111    0.137056    0.136335
     83          1           0        4.885066    2.483733    0.670684
     84          1           0       -5.049796   -2.628097   -0.671654
     85          1           0        3.864788   -0.478676    0.043515
     86          1           0       -3.576983   -0.157863   -0.107699
     87          1           0        2.746308    3.054312    1.441941
     88          1           0        1.155399    3.264839    0.517749
     89          1           0        2.710918    3.444954   -0.221458
     90          1           0       -3.140756   -3.471480   -1.612205
     91          1           0       -3.093937   -3.837055   -0.073279
     92          1           0       -1.529712   -3.779931   -1.067188
     93          1           0        0.419989    1.028592   -0.020249
     94          1           0       -1.507361   -0.194257    0.037204
     95          1           0        2.009161   -1.347623   -0.323873
     96          1           0        0.032036   -2.825568   -0.683320
 ---------------------------------------------------------------------

 SCF Done:  E(RB3LYP) =  -1557.57503079     A.U. after   14 cycles

 Excitation energies and oscillator strengths:

 Excited State   1:      Singlet-A      2.3073 eV  537.37 nm  f=2.8654  <S**2>=0.000
     148 ->149         0.70418
 This state for optimization and/or second-order correction.
 Total Energy, E(TD-HF/TD-DFT) =  -1557.49024056
 Copying the excited state density for this state as the 1-particle RhoCI density.

 The electronic state is 1-A.
 Alpha  occ. eigenvalues --  -10.21357 -10.20740 -10.20512 -10.20188 -10.20040
 Alpha  occ. eigenvalues --  -10.20002 -10.19964 -10.19792 -10.19777 -10.19687
 Alpha  occ. eigenvalues --  -10.19570 -10.19539 -10.19434 -10.19149 -10.19004
 Alpha  occ. eigenvalues --  -10.18969 -10.18898 -10.18893 -10.18862 -10.18861
 Alpha  occ. eigenvalues --  -10.18767 -10.18705 -10.18667 -10.18581 -10.18437
 Alpha  occ. eigenvalues --  -10.18220 -10.18162 -10.18031 -10.17941 -10.17716
 Alpha  occ. eigenvalues --  -10.17661 -10.17606 -10.17561 -10.17490 -10.17351
 Alpha  occ. eigenvalues --  -10.17301 -10.17203 -10.16945 -10.16818 -10.15916
 Alpha  occ. eigenvalues --   -0.85525  -0.85054  -0.83941  -0.83134  -0.82404
 Alpha  occ. eigenvalues --   -0.81616  -0.79744  -0.78689  -0.77663  -0.76912
 Alpha  occ. eigenvalues --   -0.76189  -0.75296  -0.73612  -0.72346  -0.71431
 Alpha  occ. eigenvalues --   -0.70027  -0.69662  -0.68506  -0.68301  -0.67941
 Alpha  occ. eigenvalues --   -0.67583  -0.67293  -0.67195  -0.66428  -0.66237
 Alpha  occ. eigenvalues --   -0.63221  -0.61840  -0.60365  -0.59010  -0.57894
 Alpha  occ. eigenvalues --   -0.57440  -0.55872  -0.55769  -0.55322  -0.53409
 Alpha  occ. eigenvalues --   -0.52348  -0.51549  -0.50760  -0.49852  -0.49218
 Alpha  occ. eigenvalues --   -0.48546  -0.47893  -0.47050  -0.46051  -0.45938
 Alpha  occ. eigenvalues --   -0.45601  -0.45317  -0.44660  -0.44294  -0.43994
 Alpha  occ. eigenvalues --   -0.43632  -0.43004  -0.42838  -0.42551  -0.42223
 Alpha  occ. eigenvalues --   -0.41815  -0.41777  -0.41497  -0.41366  -0.41085
 Alpha  occ. eigenvalues --   -0.40823  -0.40762  -0.40050  -0.39934  -0.39892
 Alpha  occ. eigenvalues --   -0.39249  -0.38746  -0.38641  -0.38470  -0.37982
 Alpha  occ. eigenvalues --   -0.37672  -0.37610  -0.37366  -0.37059  -0.36643
 Alpha  occ. eigenvalues --   -0.36312  -0.36014  -0.35896  -0.35309  -0.34950
 Alpha  occ. eigenvalues --   -0.34699  -0.34542  -0.34459  -0.34282  -0.33736
 Alpha  occ. eigenvalues --   -0.33696  -0.33461  -0.33405  -0.33088  -0.32945
 Alpha  occ. eigenvalues --   -0.32305  -0.32195  -0.31745  -0.31543  -0.30875
 Alpha  occ. eigenvalues --   -0.30489  -0.29863  -0.29520  -0.29107  -0.28681
 Alpha  occ. eigenvalues --   -0.27979  -0.27834  -0.26036  -0.23966  -0.22517
 Alpha  occ. eigenvalues --   -0.21395  -0.19593  -0.16920
 Alpha virt. eigenvalues --   -0.08234  -0.04834  -0.01682   0.00685   0.01847
 Alpha virt. eigenvalues --    0.02790   0.04813   0.07111   0.07235   0.07864
 Alpha virt. eigenvalues --    0.08309   0.08509   0.08649   0.08871   0.08995

 Mulliken charges:
               1
     1  C   -0.013181
     2  C   -0.000342
     3  C   -0.167841
     4  C   -0.171996
     5  C   -0.198283
     6  C   -0.191577
     7  C    0.082600
     8  C    0.039177
     9  C   -0.220443
    10  C   -0.242715
    11  C    0.070892
    12  C    0.090081
    13  C   -0.306256
    14  C   -0.312025
    15  C   -0.279761
    16  C   -0.277223
    17  C   -0.163574
    18  C   -0.150972
    19  C   -0.350877
    20  C   -0.361490
    21  C   -0.072283
    22  C   -0.107710
    23  C    0.146876
    24  C    0.099788
    25  C   -0.377726
    26  C   -0.384088
    27  C   -0.137979
    28  C   -0.110164
    29  C   -0.084231
    30  C   -0.085167
    31  C   -0.114605
    32  C   -0.085424
    33  C    0.067376
    34  C    0.125520
    35  C   -0.379770
    36  C   -0.385440
    37  C   -0.079567
    38  C   -0.119852
    39  C   -0.022582
    40  C   -0.111015
    41  H    0.103656
    42  H    0.062884
    43  H    0.103970
    44  H    0.060323
    45  H    0.082737
    46  H    0.102461
    47  H    0.097385
    48  H    0.106384
    49  H    0.095169
    50  H    0.082333
    51  H    0.087423
    52  H    0.096444
    53  H    0.090001
    54  H    0.102694
    55  H    0.107633
    56  H    0.118825
    57  H    0.112005
    58  H    0.076971
    59  H    0.095839
    60  H    0.080755
    61  H    0.079148
    62  H    0.096369
    63  H    0.092498
    64  H    0.108142
    65  H    0.102538
    66  H    0.089771
    67  H    0.113063
    68  H    0.072698
    69  H    0.113788
    70  H    0.132247
    71  H    0.114057
    72  H    0.109683
    73  H    0.084920
    74  H    0.070215
    75  H    0.126364
    76  H    0.097722
    77  H    0.103924
    78  H    0.134556
    79  H    0.133194
    80  H    0.103290
    81  H    0.061971
    82  H    0.083022
    83  H    0.082828
    84  H    0.062978
    85  H    0.086250
    86  H    0.054333
    87  H    0.124840
    88  H    0.101427
    89  H    0.117054
    90  H    0.111176
    91  H    0.128048
    92  H    0.108983
    93  H    0.070381
    94  H    0.072810
    95  H    0.052274
    96  H    0.081393
 Sum of Mulliken charges =  -0.00000

 Dipole moment (field-independent basis, Debye):
    X=             -0.4881    Y=              0.8606    Z=             -0.0196  Tot=              0.9896
 Quadrupole moment (field-independent basis, Debye-Ang):
   XX=           -228.1633   YY=           -232.8205   ZZ=           -255.4844
   XY=              1.7898   XZ=              6.4580   YZ=              4.5503

 Normal termination of Gaussian 16 at Wed Jul 31 00:47:52 2019.
