 Gaussian 16, Revision A.03,
 Gaussian 16:  ES64L-G16RevA.03 25-Dec-2016

 ---------------------------------
 # td=(NStates=1) B3LYP/6-31G(d,p)
 ---------------------------------

 --
 TD
 --
 Symbolic Z-matrix:
 Charge =  0 Multiplicity = 1

                         Standard orientation:
 ---------------------------------------------------------------------
 Center     Atomic      Atomic             Coordinates (Angstroms)
 Number     Number       Type             X           Y           Z
 ---------------------------------------------------------------------
      1          6           0       12.141083    0.526319   -0.606926
      2          6           0      -12.026160   -0.048704    1.037942
      3          6           0       13.457342   -0.322961   -0.513031
      4          6           0      -12.995678    1.125168    1.429714
      5          6           0       13.234825   -1.824161   -0.415076
      6          6           0      -13.499469    1.816682    0.191418
      7          6           0       11.036498    0.021918    0.329054
      8          6           0      -10.980767    0.452128    0.000399
      9          6           0       12.336565   -2.118382    0.820295
     10          6           0      -12.390696    2.468940   -0.726583
     11          6           0       11.157289   -1.227368    0.893381
     12          6           0      -11.101755    1.596508   -0.673226
     13          6           0       11.657465    0.517498   -2.081106
     14          6           0       12.520301    1.996718   -0.299521
     15          6           0      -12.831914   -1.202918    0.543005
     16          6           0      -11.354798   -0.518302    2.373035
     17          6           0        9.838598    0.804259    0.438842
     18          6           0       -9.883711   -0.476764   -0.231607
     19          6           0       10.278570   -1.665251    2.090240
     20          6           0      -10.126121    2.060678   -1.862565
     21          6           0        8.598706    0.483727    0.273316
     22          6           0       -8.556368   -0.248824   -0.268703
     23          6           0        7.363723    1.424048    0.377326
     24          6           0       -7.504190   -1.257679   -0.398818
     25          6           0        7.605187    2.858892    0.536545
     26          6           0       -7.999155   -2.610918   -0.777119
     27          6           0        6.167126    0.793840    0.229578
     28          6           0       -6.209101   -0.750039   -0.309736
     29          6           0        4.944383    1.409289    0.206287
     30          6           0       -5.041433   -1.551937   -0.572311
     31          6           0        3.713038    0.652700    0.162576
     32          6           0       -3.783771   -1.017875   -0.470948
     33          6           0        2.431771    1.213652    0.227931
     34          6           0       -2.538576   -1.763383   -0.532846
     35          6           0        2.386287    2.702100    0.603484
     36          6           0       -2.648360   -3.240312   -0.790662
     37          6           0        1.244102    0.460724    0.045733
     38          6           0       -1.397754   -1.126783   -0.377017
     39          6           0        1.113928   -1.003515   -0.327376
     40          6           0       -0.076914   -1.668548   -0.481260
     41          1           0       13.897935    0.072343    0.308738
     42          1           0       14.077600   -0.220225   -1.379262
     43          1           0      -12.530370    1.813218    1.992178
     44          1           0      -13.674922    0.709464    2.227362
     45          1           0       14.212235   -2.507516   -0.340461
     46          1           0       12.766858   -2.264538   -1.310435
     47          1           0      -14.287541    2.618588    0.347937
     48          1           0      -14.129060    1.064646   -0.478026
     49          1           0       12.907190   -1.978285    1.663569
     50          1           0       12.052235   -3.119394    0.548728
     51          1           0      -12.270698    3.286530   -0.102440
     52          1           0      -12.817574    2.676560   -1.644779
     53          1           0       11.456472   -0.547082   -2.388900
     54          1           0       12.272107    1.069272   -2.805633
     55          1           0       10.613529    1.072196   -1.997462
     56          1           0       12.852626    2.118731    0.709312
     57          1           0       11.846928    2.805639   -0.777813
     58          1           0       13.496425    2.256760   -0.679013
     59          1           0      -13.645701   -0.798539   -0.149478
     60          1           0      -13.428254   -1.718004    1.355210
     61          1           0      -12.289006   -2.153944    0.361594
     62          1           0      -10.734673    0.396727    2.953287
     63          1           0      -10.770845   -1.524300    2.326651
     64          1           0      -12.111068   -0.878000    3.090366
     65          1           0       10.153098    1.837600    0.604587
     66          1           0      -10.211772   -1.529235   -0.366027
     67          1           0        9.374167   -0.823793    2.121362
     68          1           0       11.009625   -1.986288    2.914363
     69          1           0        9.864892   -2.468002    1.433942
     70          1           0       -9.318805    1.241585   -2.005767
     71          1           0       -9.612758    3.173020   -1.798607
     72          1           0      -10.925174    2.086949   -2.887263
     73          1           0        8.300197   -0.576538   -0.203544
     74          1           0       -8.074544    0.796192   -0.287128
     75          1           0        8.002899    2.972730    1.578593
     76          1           0        6.567168    3.527090    0.368218
     77          1           0        8.262278    3.321331   -0.089021
     78          1           0       -8.580219   -2.447186   -1.573294
     79          1           0       -8.683938   -3.000754   -0.033713
     80          1           0       -7.098620   -3.179562   -1.052509
     81          1           0        6.401760   -0.265469   -0.077311
     82          1           0       -6.043865    0.288341   -0.193874
     83          1           0        4.668619    2.521039    0.676928
     84          1           0       -5.278786   -2.662956   -0.911368
     85          1           0        3.720584   -0.465279   -0.356595
     86          1           0       -3.541488   -0.045872   -0.199504
     87          1           0        2.845778    2.845325    1.407113
     88          1           0        1.304564    3.115195    0.666281
     89          1           0        2.732775    3.405454   -0.088251
     90          1           0       -3.388339   -3.453595   -1.867191
     91          1           0       -3.236282   -3.668762    0.092278
     92          1           0       -1.696073   -3.663709   -1.044022
     93          1           0        0.375857    1.009060    0.151128
     94          1           0       -1.486364   -0.151790   -0.323301
     95          1           0        2.214087   -1.585123   -0.410846
     96          1           0       -0.064308   -2.864819   -0.638884
 ---------------------------------------------------------------------

 SCF Done:  E(RB3LYP) =  -1557.52810871     A.U. after   15 cycles

 Excitation energies and oscillator strengths:

 Excited State   1:      Singlet-A      2.2362 eV  554.43 nm  f=2.9543  <S**2>=0.000
     148 ->149         0.70580
 This state for optimization and/or second-order correction.
 Total Energy, E(TD-HF/TD-DFT) =  -1557.44592807
 Copying the excited state density for this state as the 1-particle RhoCI density.

 The electronic state is 1-A.
 Alpha  occ. eigenvalues --  -10.21233 -10.21130 -10.20487 -10.20411 -10.20162
 Alpha  occ. eigenvalues --  -10.20136 -10.20126 -10.20005 -10.19884 -10.19844
 Alpha  occ. eigenvalues --  -10.19820 -10.19783 -10.19759 -10.19620 -10.19343
 Alpha  occ. eigenvalues --  -10.19285 -10.19060 -10.19016 -10.18951 -10.18807
 Alpha  occ. eigenvalues --  -10.18761 -10.18617 -10.18586 -10.18579 -10.18525
 Alpha  occ. eigenvalues --  -10.18492 -10.18458 -10.18190 -10.18005 -10.17943
 Alpha  occ. eigenvalues --  -10.17729 -10.17705 -10.17615 -10.17546 -10.17489
 Alpha  occ. eigenvalues --  -10.17436 -10.17043 -10.17004 -10.16907 -10.16504
 Alpha  occ. eigenvalues --   -0.85034  -0.84908  -0.83923  -0.82946  -0.82442
 Alpha  occ. eigenvalues --   -0.81309  -0.78620  -0.78562  -0.78152  -0.77771
 Alpha  occ. eigenvalues --   -0.76869  -0.74961  -0.74103  -0.72294  -0.71545
 Alpha  occ. eigenvalues --   -0.70426  -0.69051  -0.68678  -0.68193  -0.68002
 Alpha  occ. eigenvalues --   -0.67284  -0.67121  -0.66668  -0.66468  -0.65783
 Alpha  occ. eigenvalues --   -0.62616  -0.61558  -0.59366  -0.58622  -0.57048
 Alpha  occ. eigenvalues --   -0.56362  -0.55875  -0.54630  -0.53573  -0.52733
 Alpha  occ. eigenvalues --   -0.51996  -0.51410  -0.49679  -0.49658  -0.48842
 Alpha  occ. eigenvalues --   -0.48474  -0.47846  -0.47297  -0.47019  -0.46506
 Alpha  occ. eigenvalues --   -0.45352  -0.44966  -0.44529  -0.44285  -0.44000
 Alpha  occ. eigenvalues --   -0.43796  -0.43483  -0.43370  -0.42977  -0.42734
 Alpha  occ. eigenvalues --   -0.42501  -0.42003  -0.41752  -0.41456  -0.41238
 Alpha  occ. eigenvalues --   -0.40891  -0.40405  -0.40338  -0.39736  -0.39516
 Alpha  occ. eigenvalues --   -0.38996  -0.38761  -0.38416  -0.37915  -0.37685
 Alpha  occ. eigenvalues --   -0.37270  -0.37061  -0.36857  -0.36611  -0.36572
 Alpha  occ. eigenvalues --   -0.35980  -0.35808  -0.35653  -0.35457  -0.35294
 Alpha  occ. eigenvalues --   -0.34613  -0.34390  -0.33995  -0.33581  -0.33460
 Alpha  occ. eigenvalues --   -0.33206  -0.33070  -0.32814  -0.32645  -0.32535
 Alpha  occ. eigenvalues --   -0.32478  -0.31714  -0.31343  -0.31030  -0.30977
 Alpha  occ. eigenvalues --   -0.30380  -0.29470  -0.29353  -0.28772  -0.28588
 Alpha  occ. eigenvalues --   -0.27808  -0.27369  -0.26679  -0.24573  -0.22698
 Alpha  occ. eigenvalues --   -0.21245  -0.18850  -0.16415
 Alpha virt. eigenvalues --   -0.07997  -0.04977  -0.01068   0.00681   0.02590
 Alpha virt. eigenvalues --    0.04371   0.05619   0.06098   0.06259   0.06828
 Alpha virt. eigenvalues --    0.07209   0.07688   0.07878   0.07976   0.08452

 Mulliken charges:
               1
     1  C    0.003918
     2  C   -0.002470
     3  C   -0.164122
     4  C   -0.157163
     5  C   -0.203581
     6  C   -0.218185
     7  C    0.089881
     8  C    0.112032
     9  C   -0.210209
    10  C   -0.204388
    11  C   -0.006178
    12  C    0.036431
    13  C   -0.289947
    14  C   -0.332027
    15  C   -0.298510
    16  C   -0.297200
    17  C   -0.142352
    18  C   -0.159658
    19  C   -0.327095
    20  C   -0.328592
    21  C   -0.099921
    22  C   -0.082377
    23  C    0.121303
    24  C    0.105470
    25  C   -0.368857
    26  C   -0.370131
    27  C   -0.084834
    28  C   -0.114737
    29  C   -0.115747
    30  C   -0.096521
    31  C   -0.112946
    32  C   -0.111142
    33  C    0.110958
    34  C    0.148250
    35  C   -0.383879
    36  C   -0.349967
    37  C   -0.114023
    38  C   -0.090153
    39  C   -0.092593
    40  C   -0.102329
    41  H    0.093961
    42  H    0.091975
    43  H    0.103747
    44  H    0.085323
    45  H    0.063587
    46  H    0.096116
    47  H    0.079167
    48  H    0.069298
    49  H    0.120076
    50  H    0.105380
    51  H    0.123028
    52  H    0.116203
    53  H    0.093081
    54  H    0.099341
    55  H    0.081182
    56  H    0.103428
    57  H    0.095762
    58  H    0.102233
    59  H    0.104428
    60  H    0.087837
    61  H    0.099211
    62  H    0.077408
    63  H    0.086655
    64  H    0.100418
    65  H    0.086988
    66  H    0.079940
    67  H    0.102046
    68  H    0.107810
    69  H    0.117640
    70  H    0.112214
    71  H    0.094219
    72  H    0.062896
    73  H    0.076229
    74  H    0.074997
    75  H    0.121862
    76  H    0.082009
    77  H    0.137525
    78  H    0.144722
    79  H    0.126279
    80  H    0.100015
    81  H    0.080326
    82  H    0.082286
    83  H    0.077061
    84  H    0.080532
    85  H    0.060437
    86  H    0.071773
    87  H    0.141879
    88  H    0.086060
    89  H    0.129870
    90  H    0.065994
    91  H    0.123405
    92  H    0.111362
    93  H    0.076085
    94  H    0.063959
    95  H    0.074373
    96  H    0.071953
 Sum of Mulliken charges =  -0.00000

 Dipole moment (field-independent basis, Debye):
    X=             -0.0722    Y=              0.5690    Z=              0.0680  Tot=              0.5776
 Quadrupole moment (field-independent basis, Debye-Ang):
   XX=           -201.8006   YY=           -234.1773   ZZ=           -256.9916
   XY=              4.5422   XZ=             -1.7672   YZ=              2.9673

 Normal termination of Gaussian 16 at Sun Jul 28 13:48:44 2019.
