 Gaussian 16, Revision A.03,
 Gaussian 16:  ES64L-G16RevA.03 25-Dec-2016

 ---------------------------------
 # td=(NStates=1) B3LYP/6-31G(d,p)
 ---------------------------------

 --
 TD
 --
 Symbolic Z-matrix:
 Charge =  0 Multiplicity = 1

                         Standard orientation:
 ---------------------------------------------------------------------
 Center     Atomic      Atomic             Coordinates (Angstroms)
 Number     Number       Type             X           Y           Z
 ---------------------------------------------------------------------
      1          6           0      -12.070549   -0.479581   -0.747308
      2          6           0       12.055243    0.046455    0.919087
      3          6           0      -13.390805    0.323419   -0.564749
      4          6           0       12.927576   -1.193640    1.350575
      5          6           0      -13.175228    1.855251   -0.502574
      6          6           0       13.293150   -2.119701    0.230874
      7          6           0      -11.032265    0.070156    0.220767
      8          6           0       10.924614   -0.440581    0.000870
      9          6           0      -12.265550    2.117080    0.731706
     10          6           0       12.102551   -2.633735   -0.462130
     11          6           0      -11.108913    1.182653    0.927913
     12          6           0       10.942593   -1.659956   -0.721083
     13          6           0      -11.482244   -0.455650   -2.155399
     14          6           0      -12.362031   -1.910785   -0.532039
     15          6           0       13.076512    1.024882    0.142082
     16          6           0       11.511517    0.794682    2.125342
     17          6           0       -9.895139   -0.775559    0.417711
     18          6           0        9.879510    0.555165   -0.317125
     19          6           0      -10.234538    1.546976    2.020210
     20          6           0        9.919333   -2.081275   -1.750216
     21          6           0       -8.624497   -0.553997    0.298398
     22          6           0        8.589628    0.336993   -0.361960
     23          6           0       -7.412670   -1.358864    0.471785
     24          6           0        7.581432    1.354787   -0.512578
     25          6           0       -7.592861   -2.840525    0.631780
     26          6           0        7.914413    2.792723   -0.654709
     27          6           0       -6.292897   -0.833611    0.438378
     28          6           0        6.297658    0.857241   -0.401557
     29          6           0       -4.872502   -1.427021    0.433844
     30          6           0        5.047549    1.601480   -0.441081
     31          6           0       -3.772523   -0.751723    0.228804
     32          6           0        3.805762    1.045095   -0.490534
     33          6           0       -2.391748   -1.361286    0.276080
     34          6           0        2.467249    1.848147   -0.544886
     35          6           0       -2.225806   -2.809293    0.552157
     36          6           0        2.680315    3.394871   -0.491099
     37          6           0       -1.288795   -0.517243    0.043461
     38          6           0        1.277700    1.080143   -0.383292
     39          6           0       -1.132360    0.827435   -0.313142
     40          6           0        0.061140    1.576265   -0.483146
     41          1           0      -14.188071   -0.083328    0.280448
     42          1           0      -13.853577    0.063097   -1.616981
     43          1           0       12.263828   -1.769776    2.008332
     44          1           0       13.696061   -0.788304    1.982319
     45          1           0      -14.103765    2.204660   -0.611842
     46          1           0      -12.683609    2.351484   -1.433953
     47          1           0       14.016329   -2.924213    0.586620
     48          1           0       13.940165   -1.502623   -0.588221
     49          1           0      -12.792786    1.990089    1.782138
     50          1           0      -11.772886    3.057288    0.650307
     51          1           0       11.622615   -3.457843    0.249990
     52          1           0       12.328298   -3.123756   -1.418188
     53          1           0      -11.268732    0.580889   -2.446696
     54          1           0      -12.161922   -1.027636   -2.917563
     55          1           0      -10.609395   -1.011130   -2.263242
     56          1           0      -12.594956   -1.954645    0.576146
     57          1           0      -11.410636   -2.625970   -0.659350
     58          1           0      -13.219988   -2.065689   -1.260210
     59          1           0       13.313859    0.513616   -0.780067
     60          1           0       13.679563    1.538904    0.866339
     61          1           0       12.486736    2.010569   -0.078709
     62          1           0       10.672791    0.208086    2.766915
     63          1           0       11.217948    1.778577    1.789232
     64          1           0       12.305033    1.288395    2.736736
     65          1           0      -10.165773   -1.901358    0.654278
     66          1           0       10.222421    1.506933   -0.131768
     67          1           0       -9.794699    0.719076    2.460595
     68          1           0      -10.765370    2.077151    2.858776
     69          1           0       -9.297363    2.408231    1.989175
     70          1           0        9.169297   -1.311432   -1.784332
     71          1           0        9.167280   -2.898435   -1.480491
     72          1           0       10.287364   -2.483032   -2.624518
     73          1           0       -8.441101    0.618224    0.250526
     74          1           0        8.289403   -0.644623   -0.334604
     75          1           0       -7.932982   -3.217240    1.673641
     76          1           0       -6.594699   -3.239419    0.683109
     77          1           0       -8.314909   -3.200873   -0.010315
     78          1           0        8.715282    3.205860   -1.407341
     79          1           0        8.294860    3.197990    0.436423
     80          1           0        7.111337    3.658639   -0.523730
     81          1           0       -6.260880    0.303756    0.345284
     82          1           0        6.137089   -0.367147    0.105447
     83          1           0       -4.671071   -2.509092    0.531212
     84          1           0        5.114797    2.678185   -0.817567
     85          1           0       -3.951505    0.338318    0.042348
     86          1           0        3.595372   -0.133004   -0.477445
     87          1           0       -2.643585   -3.107628    1.476760
     88          1           0       -1.084287   -2.976752    0.608878
     89          1           0       -2.798462   -3.369243   -0.236214
     90          1           0        3.450917    3.901345   -1.216207
     91          1           0        2.858984    3.816514    0.631181
     92          1           0        1.624701    4.088522   -0.591010
     93          1           0       -0.171450   -0.901328   -0.083424
     94          1           0        1.745189    0.096906   -0.269488
     95          1           0       -2.049532    1.567342   -0.214874
     96          1           0       -0.118684    2.659653   -0.532103
 ---------------------------------------------------------------------

 SCF Done:  E(RB3LYP) =  -1557.51996974     A.U. after   16 cycles

 Excitation energies and oscillator strengths:

 Excited State   1:      Singlet-A      2.2419 eV  553.04 nm  f=2.6699  <S**2>=0.000
     148 ->149         0.70008
     148 <-149        -0.11983
 This state for optimization and/or second-order correction.
 Total Energy, E(TD-HF/TD-DFT) =  -1557.43758324
 Copying the excited state density for this state as the 1-particle RhoCI density.

 The electronic state is 1-A.
 Alpha  occ. eigenvalues --  -10.22239 -10.21918 -10.21569 -10.21257 -10.20945
 Alpha  occ. eigenvalues --  -10.20696 -10.20615 -10.20266 -10.19969 -10.19841
 Alpha  occ. eigenvalues --  -10.19745 -10.19672 -10.19473 -10.19186 -10.19116
 Alpha  occ. eigenvalues --  -10.19068 -10.19002 -10.18985 -10.18889 -10.18821
 Alpha  occ. eigenvalues --  -10.18811 -10.18725 -10.18713 -10.18426 -10.18386
 Alpha  occ. eigenvalues --  -10.18384 -10.18357 -10.18320 -10.18286 -10.18238
 Alpha  occ. eigenvalues --  -10.18179 -10.18144 -10.17772 -10.17535 -10.17355
 Alpha  occ. eigenvalues --  -10.17250 -10.17203 -10.16994 -10.16954 -10.16618
 Alpha  occ. eigenvalues --   -0.86154  -0.84693  -0.83750  -0.83003  -0.82536
 Alpha  occ. eigenvalues --   -0.81360  -0.79991  -0.78758  -0.78103  -0.77905
 Alpha  occ. eigenvalues --   -0.76970  -0.75353  -0.73989  -0.73110  -0.72308
 Alpha  occ. eigenvalues --   -0.69876  -0.69132  -0.68468  -0.68100  -0.67548
 Alpha  occ. eigenvalues --   -0.67548  -0.67400  -0.66722  -0.66552  -0.65929
 Alpha  occ. eigenvalues --   -0.62353  -0.61449  -0.60088  -0.58309  -0.56839
 Alpha  occ. eigenvalues --   -0.56579  -0.55974  -0.54894  -0.53597  -0.52635
 Alpha  occ. eigenvalues --   -0.52093  -0.51212  -0.50149  -0.49099  -0.48546
 Alpha  occ. eigenvalues --   -0.48094  -0.47540  -0.47194  -0.46707  -0.46502
 Alpha  occ. eigenvalues --   -0.45795  -0.45613  -0.45193  -0.44611  -0.43905
 Alpha  occ. eigenvalues --   -0.43500  -0.43242  -0.43088  -0.42466  -0.42393
 Alpha  occ. eigenvalues --   -0.42156  -0.41708  -0.41584  -0.41292  -0.40996
 Alpha  occ. eigenvalues --   -0.40865  -0.40479  -0.40255  -0.40025  -0.39753
 Alpha  occ. eigenvalues --   -0.39133  -0.39037  -0.38529  -0.37669  -0.37402
 Alpha  occ. eigenvalues --   -0.37139  -0.36955  -0.36737  -0.36506  -0.36154
 Alpha  occ. eigenvalues --   -0.35899  -0.35743  -0.34927  -0.34837  -0.34619
 Alpha  occ. eigenvalues --   -0.34552  -0.34103  -0.33739  -0.33626  -0.33347
 Alpha  occ. eigenvalues --   -0.33217  -0.33053  -0.32823  -0.32553  -0.32494
 Alpha  occ. eigenvalues --   -0.32296  -0.32127  -0.31448  -0.31245  -0.30936
 Alpha  occ. eigenvalues --   -0.30647  -0.30242  -0.29968  -0.29138  -0.28487
 Alpha  occ. eigenvalues --   -0.28043  -0.27730  -0.26502  -0.24145  -0.23032
 Alpha  occ. eigenvalues --   -0.21102  -0.19483  -0.16422
 Alpha virt. eigenvalues --   -0.08335  -0.03854  -0.01817   0.00930   0.02195
 Alpha virt. eigenvalues --    0.04223   0.05736   0.06165   0.06627   0.07107
 Alpha virt. eigenvalues --    0.07366   0.07473   0.07902   0.08235   0.08359

 Mulliken charges:
               1
     1  C    0.001637
     2  C   -0.017543
     3  C   -0.183887
     4  C   -0.152708
     5  C   -0.180080
     6  C   -0.173527
     7  C    0.094099
     8  C    0.059473
     9  C   -0.214802
    10  C   -0.201378
    11  C    0.083100
    12  C    0.059624
    13  C   -0.287607
    14  C   -0.278192
    15  C   -0.303359
    16  C   -0.305862
    17  C   -0.164311
    18  C   -0.118383
    19  C   -0.364452
    20  C   -0.368185
    21  C   -0.095093
    22  C   -0.076628
    23  C    0.196471
    24  C    0.158037
    25  C   -0.374871
    26  C   -0.386680
    27  C   -0.164424
    28  C   -0.130257
    29  C   -0.083788
    30  C   -0.091195
    31  C   -0.083245
    32  C   -0.117576
    33  C    0.090010
    34  C    0.088591
    35  C   -0.378938
    36  C   -0.361275
    37  C   -0.116805
    38  C   -0.059921
    39  C   -0.082094
    40  C   -0.110416
    41  H    0.081468
    42  H    0.072175
    43  H    0.087819
    44  H    0.086328
    45  H    0.108794
    46  H    0.086664
    47  H    0.089671
    48  H    0.065138
    49  H    0.088830
    50  H    0.109227
    51  H    0.085808
    52  H    0.094985
    53  H    0.096974
    54  H    0.074394
    55  H    0.122164
    56  H    0.089632
    57  H    0.083866
    58  H    0.095455
    59  H    0.122734
    60  H    0.111651
    61  H    0.071666
    62  H    0.097945
    63  H    0.099635
    64  H    0.088178
    65  H    0.056693
    66  H    0.072038
    67  H    0.135132
    68  H    0.098301
    69  H    0.072086
    70  H    0.121036
    71  H    0.097838
    72  H    0.118054
    73  H    0.057581
    74  H    0.082763
    75  H    0.100237
    76  H    0.111136
    77  H    0.123771
    78  H    0.120664
    79  H    0.101182
    80  H    0.107386
    81  H    0.070001
    82  H    0.050639
    83  H    0.068007
    84  H    0.084687
    85  H    0.080134
    86  H    0.071602
    87  H    0.133936
    88  H    0.110234
    89  H    0.124035
    90  H    0.118317
    91  H    0.116149
    92  H    0.072811
    93  H    0.064531
    94  H    0.088578
    95  H    0.058828
    96  H    0.096850
 Sum of Mulliken charges =  -0.00000

 Dipole moment (field-independent basis, Debye):
    X=              0.5830    Y=              0.6205    Z=              0.7463  Tot=              1.1322
 Quadrupole moment (field-independent basis, Debye-Ang):
   XX=           -221.8194   YY=           -233.1584   ZZ=           -255.5257
   XY=              3.8091   XZ=              1.2538   YZ=              0.7077

 Normal termination of Gaussian 16 at Fri Jul 26 22:47:19 2019.
