 Gaussian 16, Revision A.03,
 Gaussian 16:  ES64L-G16RevA.03 25-Dec-2016

 ---------------------------------
 # td=(NStates=1) B3LYP/6-31G(d,p)
 ---------------------------------

 --
 TD
 --
 Symbolic Z-matrix:
 Charge =  0 Multiplicity = 1

                         Standard orientation:
 ---------------------------------------------------------------------
 Center     Atomic      Atomic             Coordinates (Angstroms)
 Number     Number       Type             X           Y           Z
 ---------------------------------------------------------------------
      1          6           0      -12.121411   -0.615138   -0.538616
      2          6           0       12.054220   -0.007950    0.914979
      3          6           0      -13.382404    0.208245   -0.505703
      4          6           0       12.865150   -1.272838    1.355770
      5          6           0      -13.164480    1.794956   -0.566039
      6          6           0       13.317244   -2.045788    0.107946
      7          6           0      -11.011696   -0.000652    0.367000
      8          6           0       10.930274   -0.421659   -0.082224
      9          6           0      -12.292778    2.116319    0.701754
     10          6           0       12.152133   -2.689085   -0.537119
     11          6           0      -11.044830    1.185713    0.952141
     12          6           0       10.984342   -1.616457   -0.817803
     13          6           0      -11.709170   -0.685425   -2.039232
     14          6           0      -12.662614   -2.109562   -0.177289
     15          6           0       13.029226    1.042483    0.356144
     16          6           0       11.468681    0.556228    2.138103
     17          6           0       -9.835582   -0.941380    0.249118
     18          6           0        9.849824    0.576451   -0.344557
     19          6           0       -9.946090    1.795518    1.677895
     20          6           0       10.107017   -2.070356   -1.868141
     21          6           0       -8.507150   -0.479821    0.259997
     22          6           0        8.530627    0.320785   -0.206110
     23          6           0       -7.382583   -1.294558    0.340261
     24          6           0        7.564787    1.277162   -0.433131
     25          6           0       -7.567104   -2.743273    0.483688
     26          6           0        7.927335    2.658877   -0.737206
     27          6           0       -6.087560   -0.722254    0.251403
     28          6           0        6.174351    0.895590   -0.394315
     29          6           0       -4.831704   -1.332038    0.315443
     30          6           0        4.971170    1.703965   -0.369592
     31          6           0       -3.673361   -0.677286    0.174889
     32          6           0        3.680219    1.210134   -0.229506
     33          6           0       -2.332349   -1.217664    0.343789
     34          6           0        2.497962    1.978096   -0.356952
     35          6           0       -2.214245   -2.749912    0.643870
     36          6           0        2.513288    3.403811   -0.712582
     37          6           0       -1.221224   -0.421177    0.081912
     38          6           0        1.277138    1.214849   -0.158287
     39          6           0       -1.211471    0.946500   -0.284269
     40          6           0       -0.029540    1.681662   -0.398225
     41          1           0      -13.910770   -0.007158    0.527775
     42          1           0      -14.012123   -0.244085   -1.370039
     43          1           0       12.173559   -1.764767    1.957879
     44          1           0       13.756942   -1.067979    1.894904
     45          1           0      -14.046069    2.343584   -0.577043
     46          1           0      -12.579038    1.930483   -1.551286
     47          1           0       14.016904   -3.074090    0.424898
     48          1           0       13.876356   -1.563919   -0.362873
     49          1           0      -12.805452    2.162163    1.813673
     50          1           0      -11.747819    3.081517    0.312625
     51          1           0       11.747999   -3.454959    0.133649
     52          1           0       12.390309   -3.051829   -1.467116
     53          1           0      -11.407642    0.312926   -2.402293
     54          1           0      -12.545806   -1.102774   -2.490926
     55          1           0      -10.773224   -1.281819   -1.928411
     56          1           0      -12.791424   -2.381385    0.958110
     57          1           0      -12.074639   -2.935103   -0.547694
     58          1           0      -13.783761   -2.361086   -0.599887
     59          1           0       13.728856    0.719648   -0.531292
     60          1           0       13.778309    1.610866    1.323411
     61          1           0       12.563221    1.723361   -0.384558
     62          1           0       10.792745   -0.206729    2.753063
     63          1           0       10.773467    1.572612    2.028162
     64          1           0       12.137508    0.612821    3.012066
     65          1           0       -9.873773   -1.982186    0.154991
     66          1           0       10.200920    1.624833   -0.244095
     67          1           0       -9.109409    1.109656    1.975291
     68          1           0      -10.282935    2.157077    2.612674
     69          1           0       -9.662726    2.798224    1.401377
     70          1           0        9.377927   -1.310192   -1.982492
     71          1           0        9.471855   -3.031356   -1.718079
     72          1           0       10.762713   -2.100338   -2.949481
     73          1           0       -8.238465    0.555735    0.041029
     74          1           0        8.204179   -0.814483   -0.002718
     75          1           0       -8.102327   -2.901197    1.430663
     76          1           0       -6.652699   -3.406932    0.573138
     77          1           0       -8.104736   -2.865172   -0.543576
     78          1           0        8.671765    2.873359   -1.490896
     79          1           0        8.422933    3.036665    0.178705
     80          1           0        7.199325    3.510967   -0.744589
     81          1           0       -6.088389    0.389298    0.083359
     82          1           0        6.065439   -0.240936   -0.299800
     83          1           0       -4.790620   -2.297330    0.621690
     84          1           0        5.136914    2.848140   -0.689925
     85          1           0       -3.895319    0.288964   -0.161948
     86          1           0        3.747384    0.099538   -0.108176
     87          1           0       -2.668233   -3.082730    1.637513
     88          1           0       -1.350093   -3.103367    0.636755
     89          1           0       -2.837671   -3.163296   -0.161114
     90          1           0        3.530047    3.467335   -1.416073
     91          1           0        2.970640    3.984645    0.162087
     92          1           0        1.489036    3.816833   -1.002960
     93          1           0       -0.290810   -0.802489    0.226347
     94          1           0        1.611054    0.101613    0.283817
     95          1           0       -2.229514    1.431616   -0.511315
     96          1           0        0.063346    2.716781   -0.674217
 ---------------------------------------------------------------------

 SCF Done:  E(RB3LYP) =  -1557.51013850     A.U. after   17 cycles

 Excitation energies and oscillator strengths:

 Excited State   1:      Singlet-A      1.8867 eV  657.16 nm  f=3.2689  <S**2>=0.000
     148 ->149         0.71421
     148 <-149        -0.14157
 This state for optimization and/or second-order correction.
 Total Energy, E(TD-HF/TD-DFT) =  -1557.44080505
 Copying the excited state density for this state as the 1-particle RhoCI density.

 The electronic state is 1-A.
 Alpha  occ. eigenvalues --  -10.20984 -10.20793 -10.20719 -10.20645 -10.20482
 Alpha  occ. eigenvalues --  -10.20398 -10.20365 -10.20108 -10.20039 -10.19975
 Alpha  occ. eigenvalues --  -10.19913 -10.19857 -10.19482 -10.19390 -10.19341
 Alpha  occ. eigenvalues --  -10.19282 -10.19261 -10.19236 -10.19222 -10.19160
 Alpha  occ. eigenvalues --  -10.19123 -10.18981 -10.18898 -10.18765 -10.18764
 Alpha  occ. eigenvalues --  -10.18673 -10.18662 -10.18642 -10.18331 -10.18181
 Alpha  occ. eigenvalues --  -10.18027 -10.17949 -10.17775 -10.17736 -10.17267
 Alpha  occ. eigenvalues --  -10.17168 -10.17074 -10.16717 -10.16707 -10.16659
 Alpha  occ. eigenvalues --   -0.84965  -0.84579  -0.83622  -0.83247  -0.82622
 Alpha  occ. eigenvalues --   -0.81795  -0.79232  -0.78679  -0.78596  -0.77469
 Alpha  occ. eigenvalues --   -0.76476  -0.75180  -0.74439  -0.72325  -0.71975
 Alpha  occ. eigenvalues --   -0.70677  -0.68800  -0.68635  -0.68181  -0.67523
 Alpha  occ. eigenvalues --   -0.67045  -0.66891  -0.66791  -0.65570  -0.65208
 Alpha  occ. eigenvalues --   -0.63363  -0.62040  -0.60234  -0.59074  -0.57688
 Alpha  occ. eigenvalues --   -0.57013  -0.55499  -0.54978  -0.54675  -0.52630
 Alpha  occ. eigenvalues --   -0.52046  -0.51444  -0.50607  -0.50064  -0.49377
 Alpha  occ. eigenvalues --   -0.47836  -0.47301  -0.47058  -0.46660  -0.46089
 Alpha  occ. eigenvalues --   -0.45624  -0.45189  -0.44813  -0.44588  -0.44127
 Alpha  occ. eigenvalues --   -0.43918  -0.43132  -0.42857  -0.42785  -0.42478
 Alpha  occ. eigenvalues --   -0.41936  -0.41675  -0.41475  -0.41318  -0.41098
 Alpha  occ. eigenvalues --   -0.40891  -0.40859  -0.40066  -0.39620  -0.39474
 Alpha  occ. eigenvalues --   -0.39276  -0.39229  -0.38496  -0.38220  -0.38141
 Alpha  occ. eigenvalues --   -0.37801  -0.37418  -0.37160  -0.36983  -0.36370
 Alpha  occ. eigenvalues --   -0.35948  -0.35860  -0.35665  -0.35350  -0.35094
 Alpha  occ. eigenvalues --   -0.34833  -0.34724  -0.34445  -0.34053  -0.33973
 Alpha  occ. eigenvalues --   -0.33502  -0.33132  -0.32919  -0.32676  -0.32350
 Alpha  occ. eigenvalues --   -0.32300  -0.32172  -0.31580  -0.31160  -0.30857
 Alpha  occ. eigenvalues --   -0.30089  -0.29803  -0.29779  -0.28932  -0.28593
 Alpha  occ. eigenvalues --   -0.27935  -0.26724  -0.26305  -0.24164  -0.23080
 Alpha  occ. eigenvalues --   -0.20937  -0.18281  -0.15567
 Alpha virt. eigenvalues --   -0.08948  -0.05735  -0.02456   0.00817   0.02237
 Alpha virt. eigenvalues --    0.04214   0.06101   0.06212   0.06660   0.07307
 Alpha virt. eigenvalues --    0.07537   0.07930   0.08340   0.08593   0.08816

 Mulliken charges:
               1
     1  C   -0.016812
     2  C    0.018289
     3  C   -0.158821
     4  C   -0.173738
     5  C   -0.187326
     6  C   -0.124994
     7  C    0.098783
     8  C    0.057018
     9  C   -0.217718
    10  C   -0.194375
    11  C    0.069044
    12  C    0.051723
    13  C   -0.274365
    14  C   -0.311734
    15  C   -0.278326
    16  C   -0.291523
    17  C   -0.166607
    18  C   -0.164446
    19  C   -0.381890
    20  C   -0.355755
    21  C   -0.103076
    22  C   -0.086245
    23  C    0.116885
    24  C    0.161822
    25  C   -0.370235
    26  C   -0.400156
    27  C   -0.150510
    28  C   -0.149697
    29  C   -0.047490
    30  C   -0.090213
    31  C   -0.094035
    32  C   -0.103713
    33  C    0.072185
    34  C    0.127106
    35  C   -0.347999
    36  C   -0.377634
    37  C   -0.101671
    38  C   -0.090861
    39  C   -0.072812
    40  C   -0.112736
    41  H    0.069472
    42  H    0.062252
    43  H    0.095776
    44  H    0.092034
    45  H    0.109052
    46  H    0.091716
    47  H    0.023856
    48  H    0.091920
    49  H    0.093505
    50  H    0.091430
    51  H    0.109545
    52  H    0.096912
    53  H    0.098937
    54  H    0.108937
    55  H    0.096211
    56  H    0.092320
    57  H    0.102436
    58  H    0.078741
    59  H    0.081969
    60  H    0.064963
    61  H    0.102231
    62  H    0.076428
    63  H    0.079668
    64  H    0.102739
    65  H    0.093711
    66  H    0.087831
    67  H    0.127516
    68  H    0.108180
    69  H    0.114924
    70  H    0.122189
    71  H    0.106161
    72  H    0.078099
    73  H    0.090924
    74  H    0.081876
    75  H    0.127321
    76  H    0.103769
    77  H    0.120098
    78  H    0.127945
    79  H    0.117935
    80  H    0.107740
    81  H    0.060608
    82  H    0.065074
    83  H    0.063925
    84  H    0.059867
    85  H    0.069416
    86  H    0.086554
    87  H    0.107241
    88  H    0.112591
    89  H    0.123951
    90  H    0.103010
    91  H    0.129857
    92  H    0.117708
    93  H    0.070734
    94  H    0.068849
    95  H    0.083001
    96  H    0.073001
 Sum of Mulliken charges =  -0.00000

 Dipole moment (field-independent basis, Debye):
    X=             -0.2348    Y=              0.3114    Z=              0.1901  Tot=              0.4338
 Quadrupole moment (field-independent basis, Debye-Ang):
   XX=           -237.9692   YY=           -234.4282   ZZ=           -255.1020
   XY=             -0.7721   XZ=             -2.0788   YZ=             -2.7578

 Normal termination of Gaussian 16 at Tue Jul 23 16:24:47 2019.
