 Gaussian 16, Revision A.03,
 Gaussian 16:  ES64L-G16RevA.03 25-Dec-2016

 ---------------------------------
 # td=(NStates=1) B3LYP/6-31G(d,p)
 ---------------------------------

 --
 TD
 --
 Symbolic Z-matrix:
 Charge =  0 Multiplicity = 1

                         Standard orientation:
 ---------------------------------------------------------------------
 Center     Atomic      Atomic             Coordinates (Angstroms)
 Number     Number       Type             X           Y           Z
 ---------------------------------------------------------------------
      1          6           0      -12.245082   -0.603225   -0.613002
      2          6           0       12.103529   -0.116729    0.855527
      3          6           0      -13.457448    0.183701   -0.525148
      4          6           0       12.904042   -1.412532    1.199291
      5          6           0      -13.108521    1.748061   -0.649897
      6          6           0       13.382744   -2.226397   -0.011744
      7          6           0      -10.980252   -0.029861    0.198709
      8          6           0       10.886533   -0.367970   -0.069858
      9          6           0      -12.240085    2.146389    0.506746
     10          6           0       11.984017   -2.799283   -0.663739
     11          6           0      -11.083878    1.249997    0.675604
     12          6           0       10.909018   -1.563533   -0.837989
     13          6           0      -11.838782   -0.988259   -2.135198
     14          6           0      -12.638836   -2.030199   -0.034283
     15          6           0       12.992607    0.912177    0.221858
     16          6           0       11.637157    0.406891    2.184791
     17          6           0       -9.778113   -0.964375    0.273134
     18          6           0        9.856276    0.613021   -0.184399
     19          6           0      -10.047241    1.720142    1.726695
     20          6           0        9.867441   -2.011976   -1.919021
     21          6           0       -8.513366   -0.548534    0.300277
     22          6           0        8.526770    0.435429   -0.196651
     23          6           0       -7.346927   -1.370186    0.382882
     24          6           0        7.580586    1.416871   -0.320322
     25          6           0       -7.490086   -2.865395    0.839374
     26          6           0        7.994864    2.746963   -0.630885
     27          6           0       -6.177382   -0.683633    0.314525
     28          6           0        6.297065    1.009812   -0.291357
     29          6           0       -4.929587   -1.280605    0.439044
     30          6           0        5.086028    1.774144   -0.333814
     31          6           0       -3.684289   -0.622027    0.343446
     32          6           0        3.829935    1.194378   -0.147527
     33          6           0       -2.330047   -1.132720    0.301222
     34          6           0        2.534082    2.033281   -0.233473
     35          6           0       -2.146887   -2.640600    0.483301
     36          6           0        2.584465    3.465888   -0.523777
     37          6           0       -1.316457   -0.321716   -0.062728
     38          6           0        1.344355    1.270675   -0.174402
     39          6           0       -1.100771    1.118270   -0.270296
     40          6           0        0.043599    1.825410   -0.478479
     41          1           0      -14.076731   -0.085603    0.413987
     42          1           0      -13.988071    0.111736   -1.498832
     43          1           0       12.202861   -2.142688    1.912310
     44          1           0       13.769072   -1.164506    1.712786
     45          1           0      -14.065091    2.379085   -0.846898
     46          1           0      -12.692176    1.954046   -1.582357
     47          1           0       14.074794   -3.124096    0.225982
     48          1           0       13.934239   -1.572510   -0.598834
     49          1           0      -12.675217    2.209341    1.519404
     50          1           0      -11.859744    3.314502    0.722570
     51          1           0       11.540992   -3.474757   -0.000361
     52          1           0       12.215538   -3.270890   -1.634213
     53          1           0      -11.472720   -0.050733   -2.596521
     54          1           0      -12.521004   -1.581034   -2.656341
     55          1           0      -10.841274   -1.388524   -2.088781
     56          1           0      -12.795251   -1.975523    0.967433
     57          1           0      -11.795403   -2.673925   -0.238791
     58          1           0      -13.614846   -2.372699   -0.605882
     59          1           0       13.320468    0.688226   -0.965904
     60          1           0       13.858243    1.078051    1.068745
     61          1           0       12.393642    1.770748   -0.070577
     62          1           0       11.336276   -0.362333    3.074541
     63          1           0       10.682307    1.065033    1.977557
     64          1           0       12.393653    0.933520    2.818210
     65          1           0       -9.950460   -1.911086    0.689164
     66          1           0        9.991569    1.676931   -0.191499
     67          1           0       -9.468697    0.689356    2.157209
     68          1           0      -10.676800    2.378333    2.473486
     69          1           0       -9.246630    2.266130    1.396741
     70          1           0        9.390584   -1.120231   -2.445029
     71          1           0        9.129550   -2.784300   -1.394881
     72          1           0       10.415227   -2.621137   -2.794858
     73          1           0       -8.380238    0.564392   -0.053033
     74          1           0        8.186129   -0.645310   -0.129931
     75          1           0       -8.114606   -3.073198    1.784827
     76          1           0       -6.729207   -3.517484    0.988989
     77          1           0       -8.055759   -3.350915   -0.037464
     78          1           0        8.626581    2.727104   -1.325987
     79          1           0        8.554279    3.363480    0.140842
     80          1           0        7.110510    3.393396   -1.007064
     81          1           0       -6.179353    0.304668   -0.050347
     82          1           0        6.268444   -0.271930    0.025178
     83          1           0       -4.821887   -2.187979    0.537778
     84          1           0        5.139312    2.797133   -0.568615
     85          1           0       -3.848967    0.318837   -0.018985
     86          1           0        3.660579    0.091209    0.074573
     87          1           0       -2.470962   -2.809873    1.501715
     88          1           0       -1.128518   -3.082393    0.444035
     89          1           0       -2.790394   -3.079703   -0.366992
     90          1           0        3.072137    3.791073   -1.350410
     91          1           0        3.087686    4.075582    0.352985
     92          1           0        1.634388    4.077732   -0.743652
     93          1           0       -0.414708   -1.013818    0.063935
     94          1           0        1.448461    0.109316   -0.086873
     95          1           0       -2.105784    1.613435   -0.166441
     96          1           0       -0.003476    2.816309   -0.559260
 ---------------------------------------------------------------------

 SCF Done:  E(RB3LYP) =  -1557.52145239     A.U. after   16 cycles

 Excitation energies and oscillator strengths:

 Excited State   1:      Singlet-A      2.1744 eV  570.20 nm  f=2.7875  <S**2>=0.000
     148 ->149         0.70688
 This state for optimization and/or second-order correction.
 Total Energy, E(TD-HF/TD-DFT) =  -1557.44154490
 Copying the excited state density for this state as the 1-particle RhoCI density.

 The electronic state is 1-A.
 Alpha  occ. eigenvalues --  -10.21296 -10.20680 -10.20628 -10.20527 -10.20327
 Alpha  occ. eigenvalues --  -10.20142 -10.20135 -10.20068 -10.20016 -10.19734
 Alpha  occ. eigenvalues --  -10.19678 -10.19662 -10.19498 -10.19315 -10.19297
 Alpha  occ. eigenvalues --  -10.19290 -10.19243 -10.19215 -10.19086 -10.19020
 Alpha  occ. eigenvalues --  -10.18984 -10.18786 -10.18713 -10.18650 -10.18600
 Alpha  occ. eigenvalues --  -10.18425 -10.18406 -10.18334 -10.18297 -10.18224
 Alpha  occ. eigenvalues --  -10.18113 -10.18044 -10.17968 -10.17915 -10.17665
 Alpha  occ. eigenvalues --  -10.17553 -10.17519 -10.17060 -10.16524 -10.16167
 Alpha  occ. eigenvalues --   -0.85346  -0.84421  -0.83696  -0.83572  -0.82572
 Alpha  occ. eigenvalues --   -0.81582  -0.78879  -0.78141  -0.77778  -0.76964
 Alpha  occ. eigenvalues --   -0.76187  -0.74987  -0.74453  -0.72036  -0.71738
 Alpha  occ. eigenvalues --   -0.70255  -0.69787  -0.69357  -0.67684  -0.67487
 Alpha  occ. eigenvalues --   -0.66762  -0.66585  -0.66523  -0.66072  -0.65333
 Alpha  occ. eigenvalues --   -0.63301  -0.61879  -0.60461  -0.59185  -0.57534
 Alpha  occ. eigenvalues --   -0.56860  -0.55240  -0.54781  -0.54211  -0.53488
 Alpha  occ. eigenvalues --   -0.53046  -0.51961  -0.51245  -0.50325  -0.48841
 Alpha  occ. eigenvalues --   -0.48291  -0.47978  -0.47144  -0.46718  -0.46431
 Alpha  occ. eigenvalues --   -0.45609  -0.44887  -0.44500  -0.44036  -0.43510
 Alpha  occ. eigenvalues --   -0.43240  -0.43142  -0.42738  -0.42702  -0.42485
 Alpha  occ. eigenvalues --   -0.41872  -0.41496  -0.41382  -0.41297  -0.40765
 Alpha  occ. eigenvalues --   -0.40561  -0.40328  -0.40168  -0.39349  -0.39228
 Alpha  occ. eigenvalues --   -0.38861  -0.38485  -0.38339  -0.38235  -0.37994
 Alpha  occ. eigenvalues --   -0.37541  -0.37148  -0.36973  -0.36656  -0.36440
 Alpha  occ. eigenvalues --   -0.36334  -0.36262  -0.36047  -0.35669  -0.35167
 Alpha  occ. eigenvalues --   -0.34540  -0.34517  -0.34164  -0.33884  -0.33545
 Alpha  occ. eigenvalues --   -0.33356  -0.33296  -0.32823  -0.32434  -0.32387
 Alpha  occ. eigenvalues --   -0.32230  -0.32058  -0.31565  -0.31471  -0.30612
 Alpha  occ. eigenvalues --   -0.30497  -0.29850  -0.29357  -0.29115  -0.28538
 Alpha  occ. eigenvalues --   -0.27779  -0.27453  -0.26321  -0.24140  -0.22466
 Alpha  occ. eigenvalues --   -0.21054  -0.18709  -0.16677
 Alpha virt. eigenvalues --   -0.08259  -0.05485  -0.02083   0.00864   0.02275
 Alpha virt. eigenvalues --    0.04095   0.05920   0.06648   0.07034   0.07373
 Alpha virt. eigenvalues --    0.07704   0.08253   0.08463   0.08818   0.09038

 Mulliken charges:
               1
     1  C    0.016675
     2  C    0.016785
     3  C   -0.175851
     4  C   -0.153291
     5  C   -0.208093
     6  C   -0.189790
     7  C    0.042931
     8  C    0.074495
     9  C   -0.214559
    10  C   -0.214789
    11  C    0.078811
    12  C    0.021696
    13  C   -0.319172
    14  C   -0.303527
    15  C   -0.273185
    16  C   -0.292628
    17  C   -0.135568
    18  C   -0.163107
    19  C   -0.353113
    20  C   -0.341781
    21  C   -0.102241
    22  C   -0.081902
    23  C    0.116798
    24  C    0.188891
    25  C   -0.376856
    26  C   -0.391241
    27  C   -0.106427
    28  C   -0.127628
    29  C   -0.039900
    30  C   -0.099317
    31  C   -0.122480
    32  C   -0.108099
    33  C    0.077190
    34  C    0.122489
    35  C   -0.361669
    36  C   -0.392828
    37  C   -0.098255
    38  C   -0.122044
    39  C   -0.090608
    40  C   -0.070432
    41  H    0.089565
    42  H    0.096299
    43  H    0.061967
    44  H    0.086953
    45  H    0.070057
    46  H    0.118565
    47  H    0.072772
    48  H    0.109674
    49  H    0.118890
    50  H    0.066498
    51  H    0.123360
    52  H    0.093636
    53  H    0.089928
    54  H    0.107365
    55  H    0.107618
    56  H    0.105827
    57  H    0.098757
    58  H    0.078656
    59  H    0.074993
    60  H    0.083176
    61  H    0.111333
    62  H    0.078900
    63  H    0.091039
    64  H    0.092872
    65  H    0.094327
    66  H    0.070173
    67  H    0.094958
    68  H    0.077013
    69  H    0.126676
    70  H    0.115553
    71  H    0.104702
    72  H    0.085748
    73  H    0.081838
    74  H    0.071660
    75  H    0.113890
    76  H    0.126471
    77  H    0.113115
    78  H    0.142181
    79  H    0.114022
    80  H    0.093700
    81  H    0.078694
    82  H    0.044240
    83  H    0.041056
    84  H    0.087124
    85  H    0.067140
    86  H    0.088140
    87  H    0.129207
    88  H    0.108840
    89  H    0.120367
    90  H    0.141144
    91  H    0.106987
    92  H    0.104521
    93  H    0.053701
    94  H    0.085350
    95  H    0.081533
    96  H    0.080851
 Sum of Mulliken charges =  -0.00000

 Dipole moment (field-independent basis, Debye):
    X=             -0.0186    Y=              0.3097    Z=             -0.3784  Tot=              0.4893
 Quadrupole moment (field-independent basis, Debye-Ang):
   XX=           -245.1703   YY=           -231.3932   ZZ=           -255.0038
   XY=              4.2619   XZ=             -2.6306   YZ=             -4.8300

 Normal termination of Gaussian 16 at Thu Aug  1 10:01:49 2019.
