 Gaussian 16, Revision A.03,
 Gaussian 16:  ES64L-G16RevA.03 25-Dec-2016

 ---------------------------------
 # td=(NStates=1) B3LYP/6-31G(d,p)
 ---------------------------------

 --
 TD
 --
 Symbolic Z-matrix:
 Charge =  0 Multiplicity = 1

                         Standard orientation:
 ---------------------------------------------------------------------
 Center     Atomic      Atomic             Coordinates (Angstroms)
 Number     Number       Type             X           Y           Z
 ---------------------------------------------------------------------
      1          6           0       12.125647    0.483893   -0.685847
      2          6           0      -12.051543   -0.113315    0.714398
      3          6           0       13.310865   -0.450623   -0.633559
      4          6           0      -13.062472    1.041008    1.157728
      5          6           0       12.935107   -1.814786   -0.666416
      6          6           0      -13.359679    1.936795   -0.003473
      7          6           0       11.031651    0.078409    0.225293
      8          6           0      -10.869079    0.500788   -0.125642
      9          6           0       12.094107   -2.255194    0.564558
     10          6           0      -12.114787    2.638347   -0.504636
     11          6           0       11.009927   -1.313144    0.741880
     12          6           0      -10.896988    1.703341   -0.658687
     13          6           0       11.554650    0.516203   -2.161635
     14          6           0       12.555131    1.913374   -0.333398
     15          6           0      -12.896296   -1.187701   -0.080815
     16          6           0      -11.577118   -0.800454    2.047874
     17          6           0        9.849072    0.841053    0.353495
     18          6           0       -9.845742   -0.486512   -0.392045
     19          6           0        9.921812   -1.854551    1.666338
     20          6           0       -9.665848    2.273685   -1.613534
     21          6           0        8.499134    0.542464    0.359519
     22          6           0       -8.460100   -0.333390   -0.255152
     23          6           0        7.422813    1.407428    0.359057
     24          6           0       -7.484678   -1.342166   -0.328253
     25          6           0        7.597615    2.934836    0.791234
     26          6           0       -7.797319   -2.788927   -0.600356
     27          6           0        6.147306    0.896483    0.276286
     28          6           0       -6.217858   -0.919708   -0.189919
     29          6           0        4.856650    1.466160    0.316058
     30          6           0       -5.020278   -1.702229   -0.495589
     31          6           0        3.714165    0.777320    0.321021
     32          6           0       -3.707140   -1.087668   -0.371213
     33          6           0        2.363143    1.346743    0.358229
     34          6           0       -2.532569   -1.841105   -0.293365
     35          6           0        2.270909    2.894797    0.553715
     36          6           0       -2.537236   -3.221909   -0.571758
     37          6           0        1.229916    0.646095    0.212199
     38          6           0       -1.329352   -1.220252   -0.088849
     39          6           0        1.164858   -0.844036    0.041564
     40          6           0        0.013718   -1.689666   -0.020264
     41          1           0       13.730500   -0.343318    0.537275
     42          1           0       14.086457   -0.130555   -1.294181
     43          1           0      -12.637134    1.622134    2.012470
     44          1           0      -13.928051    0.583327    1.515518
     45          1           0       13.739387   -2.700205   -0.737658
     46          1           0       12.332037   -1.828854   -1.566289
     47          1           0      -14.143243    2.739236    0.472289
     48          1           0      -13.864217    1.435914   -0.862959
     49          1           0       12.617429   -2.314701    1.468246
     50          1           0       11.737601   -3.373449    0.253118
     51          1           0      -11.796676    3.499650   -0.052479
     52          1           0      -12.270308    2.986882   -1.558862
     53          1           0       11.362883   -0.475418   -2.436538
     54          1           0       12.485585    0.876677   -2.791054
     55          1           0       10.740078    1.248367   -2.238025
     56          1           0       12.707703    2.083319    0.728002
     57          1           0       11.806129    2.832348   -0.425184
     58          1           0       13.369249    2.194362   -0.946794
     59          1           0      -13.152688   -0.705912   -1.126212
     60          1           0      -13.766661   -1.330963    0.447513
     61          1           0      -12.248481   -2.089982   -0.342309
     62          1           0      -10.945464    0.077051    2.411950
     63          1           0      -11.070013   -1.701185    1.862424
     64          1           0      -12.481897   -1.029558    2.784579
     65          1           0       10.220809    2.028229    0.470587
     66          1           0      -10.057694   -1.328027   -0.609023
     67          1           0        9.226455   -1.006027    1.980605
     68          1           0       10.460246   -2.282427    2.547898
     69          1           0        9.233239   -2.695702    1.247553
     70          1           0       -8.766695    1.634116   -1.814889
     71          1           0       -9.286020    3.178785   -1.009430
     72          1           0      -10.349139    2.567981   -2.518182
     73          1           0        8.106943   -0.533195    0.099103
     74          1           0       -8.156437    0.666010    0.145673
     75          1           0        8.329346    2.881195    1.749048
     76          1           0        6.685293    3.384356    1.055816
     77          1           0        8.256327    3.622841    0.108653
     78          1           0       -8.213401   -2.886885   -1.504125
     79          1           0       -8.464394   -3.198156    0.198373
     80          1           0       -6.890806   -3.363587   -0.508872
     81          1           0        6.112062   -0.014182   -0.162219
     82          1           0       -6.121720    0.164765    0.134338
     83          1           0        4.745620    2.581015    0.420533
     84          1           0       -5.150508   -2.807917   -0.802534
     85          1           0        3.836668   -0.314335    0.131991
     86          1           0       -3.660548    0.009279    0.230000
     87          1           0        2.648935    3.359646    1.470293
     88          1           0        1.227085    3.106104    0.669213
     89          1           0        2.478617    3.423323   -0.322953
     90          1           0       -2.797327   -3.462526   -1.753182
     91          1           0       -3.184514   -3.785318    0.102194
     92          1           0       -1.635333   -3.720697   -0.385860
     93          1           0        0.313437    1.104607    0.452386
     94          1           0       -1.452490    0.004948    0.018451
     95          1           0        2.243885   -1.169773    0.126624
     96          1           0        0.199177   -2.734954    0.000862
 ---------------------------------------------------------------------

 SCF Done:  E(RB3LYP) =  -1557.58570122     A.U. after   16 cycles

 Excitation energies and oscillator strengths:

 Excited State   1:      Singlet-A      2.0229 eV  612.91 nm  f=2.8322  <S**2>=0.000
     148 ->149         0.70494
     148 <-149        -0.10198
 This state for optimization and/or second-order correction.
 Total Energy, E(TD-HF/TD-DFT) =  -1557.51136235
 Copying the excited state density for this state as the 1-particle RhoCI density.

 The electronic state is 1-A.
 Alpha  occ. eigenvalues --  -10.20544 -10.20260 -10.20239 -10.20182 -10.20149
 Alpha  occ. eigenvalues --  -10.20134 -10.20122 -10.20005 -10.19942 -10.19913
 Alpha  occ. eigenvalues --  -10.19694 -10.19582 -10.19563 -10.19380 -10.19313
 Alpha  occ. eigenvalues --  -10.19293 -10.19202 -10.18930 -10.18864 -10.18830
 Alpha  occ. eigenvalues --  -10.18799 -10.18729 -10.18639 -10.18597 -10.18480
 Alpha  occ. eigenvalues --  -10.18338 -10.18329 -10.18180 -10.18082 -10.18069
 Alpha  occ. eigenvalues --  -10.17933 -10.17867 -10.17860 -10.17736 -10.17725
 Alpha  occ. eigenvalues --  -10.17627 -10.17535 -10.17521 -10.17301 -10.16401
 Alpha  occ. eigenvalues --   -0.86361  -0.84510  -0.83739  -0.83391  -0.82686
 Alpha  occ. eigenvalues --   -0.81705  -0.79033  -0.78546  -0.77807  -0.77166
 Alpha  occ. eigenvalues --   -0.76877  -0.75387  -0.73651  -0.71843  -0.71707
 Alpha  occ. eigenvalues --   -0.70083  -0.69266  -0.68276  -0.67867  -0.67707
 Alpha  occ. eigenvalues --   -0.67469  -0.67216  -0.67076  -0.66905  -0.65908
 Alpha  occ. eigenvalues --   -0.63027  -0.62169  -0.59517  -0.58803  -0.57688
 Alpha  occ. eigenvalues --   -0.56024  -0.55795  -0.55380  -0.54055  -0.52845
 Alpha  occ. eigenvalues --   -0.52040  -0.51731  -0.50640  -0.49657  -0.49146
 Alpha  occ. eigenvalues --   -0.48232  -0.47821  -0.47210  -0.46735  -0.46235
 Alpha  occ. eigenvalues --   -0.45559  -0.44975  -0.44664  -0.44343  -0.43923
 Alpha  occ. eigenvalues --   -0.43283  -0.43090  -0.42887  -0.42827  -0.42625
 Alpha  occ. eigenvalues --   -0.42141  -0.42038  -0.41756  -0.41353  -0.41281
 Alpha  occ. eigenvalues --   -0.40749  -0.40368  -0.39709  -0.39446  -0.39234
 Alpha  occ. eigenvalues --   -0.39013  -0.38592  -0.38490  -0.38410  -0.38041
 Alpha  occ. eigenvalues --   -0.37699  -0.37423  -0.37309  -0.36906  -0.36780
 Alpha  occ. eigenvalues --   -0.36532  -0.36419  -0.35958  -0.35816  -0.35337
 Alpha  occ. eigenvalues --   -0.35186  -0.34765  -0.34398  -0.34244  -0.34186
 Alpha  occ. eigenvalues --   -0.34059  -0.33668  -0.33590  -0.33311  -0.32927
 Alpha  occ. eigenvalues --   -0.32503  -0.31805  -0.31126  -0.30657  -0.30552
 Alpha  occ. eigenvalues --   -0.30407  -0.29837  -0.29447  -0.28893  -0.28668
 Alpha  occ. eigenvalues --   -0.28093  -0.27403  -0.26330  -0.24483  -0.22825
 Alpha  occ. eigenvalues --   -0.20891  -0.18075  -0.15985
 Alpha virt. eigenvalues --   -0.08380  -0.05922  -0.02058   0.00230   0.02658
 Alpha virt. eigenvalues --    0.04532   0.05747   0.06704   0.06753   0.06957
 Alpha virt. eigenvalues --    0.07229   0.07980   0.08469   0.08828   0.08889

 Mulliken charges:
               1
     1  C   -0.015304
     2  C   -0.034538
     3  C   -0.143726
     4  C   -0.163274
     5  C   -0.173665
     6  C   -0.180246
     7  C    0.087681
     8  C    0.082481
     9  C   -0.217086
    10  C   -0.206801
    11  C    0.062377
    12  C    0.014978
    13  C   -0.283864
    14  C   -0.307356
    15  C   -0.292167
    16  C   -0.282329
    17  C   -0.132316
    18  C   -0.081982
    19  C   -0.358483
    20  C   -0.341673
    21  C   -0.117871
    22  C   -0.128233
    23  C    0.149140
    24  C    0.137597
    25  C   -0.364668
    26  C   -0.369869
    27  C   -0.145769
    28  C   -0.118584
    29  C   -0.071086
    30  C   -0.114787
    31  C   -0.103175
    32  C   -0.140312
    33  C    0.093576
    34  C    0.177907
    35  C   -0.387298
    36  C   -0.376962
    37  C   -0.111964
    38  C   -0.110848
    39  C   -0.095054
    40  C   -0.104794
    41  H    0.051155
    42  H    0.093879
    43  H    0.087230
    44  H    0.091463
    45  H    0.069371
    46  H    0.096732
    47  H    0.062911
    48  H    0.103275
    49  H    0.122778
    50  H    0.082689
    51  H    0.117159
    52  H    0.090956
    53  H    0.112997
    54  H    0.074057
    55  H    0.119647
    56  H    0.109556
    57  H    0.079952
    58  H    0.101166
    59  H    0.080952
    60  H    0.112676
    61  H    0.093161
    62  H    0.100213
    63  H    0.103919
    64  H    0.078207
    65  H    0.055665
    66  H    0.037625
    67  H    0.117132
    68  H    0.097501
    69  H    0.101841
    70  H    0.128693
    71  H    0.104406
    72  H    0.100541
    73  H    0.084221
    74  H    0.075927
    75  H    0.096668
    76  H    0.119224
    77  H    0.105667
    78  H    0.135107
    79  H    0.114385
    80  H    0.107709
    81  H    0.075053
    82  H    0.075227
    83  H    0.078629
    84  H    0.095143
    85  H    0.075127
    86  H    0.070052
    87  H    0.119459
    88  H    0.105988
    89  H    0.134450
    90  H    0.097222
    91  H    0.113395
    92  H    0.111544
    93  H    0.081710
    94  H    0.053230
    95  H    0.078202
    96  H    0.087505
 Sum of Mulliken charges =  -0.00000

 Dipole moment (field-independent basis, Debye):
    X=             -0.0318    Y=             -0.4076    Z=              0.0262  Tot=              0.4097
 Quadrupole moment (field-independent basis, Debye-Ang):
   XX=           -212.7402   YY=           -232.8697   ZZ=           -256.6212
   XY=             -0.9813   XZ=             -3.0596   YZ=              2.3187

 Normal termination of Gaussian 16 at Wed Jul 31 08:25:26 2019.
