 Gaussian 16, Revision A.03,
 Gaussian 16:  ES64L-G16RevA.03 25-Dec-2016

 ---------------------------------
 # td=(NStates=1) B3LYP/6-31G(d,p)
 ---------------------------------

 --
 TD
 --
 Symbolic Z-matrix:
 Charge =  0 Multiplicity = 1

                         Standard orientation:
 ---------------------------------------------------------------------
 Center     Atomic      Atomic             Coordinates (Angstroms)
 Number     Number       Type             X           Y           Z
 ---------------------------------------------------------------------
      1          6           0       12.240929    0.496151   -0.815721
      2          6           0      -12.227728   -0.046104    0.903284
      3          6           0       13.516220   -0.297340   -0.492484
      4          6           0      -13.083991    1.150788    1.357072
      5          6           0       13.243272   -1.775145   -0.418803
      6          6           0      -13.438987    2.143342    0.191834
      7          6           0       11.097854    0.079627    0.176505
      8          6           0      -11.063288    0.423073   -0.083315
      9          6           0       12.539542   -1.992678    0.955882
     10          6           0      -12.225576    2.594355   -0.414068
     11          6           0       11.225049   -1.076318    0.960121
     12          6           0      -11.117301    1.625676   -0.703221
     13          6           0       11.818894    0.220886   -2.201949
     14          6           0       12.638044    2.022248   -0.633116
     15          6           0      -13.126554   -1.104923    0.279196
     16          6           0      -11.571541   -0.663186    2.095296
     17          6           0        9.984572    0.895526    0.288730
     18          6           0       -9.991439   -0.571831   -0.311929
     19          6           0       10.324300   -1.454827    2.063938
     20          6           0      -10.027140    2.100745   -1.756543
     21          6           0        8.639508    0.509967    0.442121
     22          6           0       -8.647891   -0.271679   -0.247947
     23          6           0        7.462697    1.360614    0.377542
     24          6           0       -7.557778   -1.210259   -0.491961
     25          6           0        7.539502    2.832274    0.836853
     26          6           0       -8.048689   -2.645456   -0.745409
     27          6           0        6.246926    0.709068    0.262867
     28          6           0       -6.248323   -0.923831   -0.266367
     29          6           0        4.940321    1.227267    0.231338
     30          6           0       -5.107037   -1.660003   -0.487872
     31          6           0        3.695269    0.518163    0.020145
     32          6           0       -3.852079   -1.126721   -0.282884
     33          6           0        2.502171    1.191836    0.184484
     34          6           0       -2.641334   -1.785022   -0.325040
     35          6           0        2.436687    2.632371    0.416216
     36          6           0       -2.672057   -3.297323   -0.707855
     37          6           0        1.308493    0.408978    0.128464
     38          6           0       -1.468849   -1.027139   -0.327340
     39          6           0        1.140014   -0.985509   -0.167844
     40          6           0       -0.168915   -1.565351   -0.357713
     41          1           0       14.039929   -0.094254    0.418181
     42          1           0       14.042125   -0.083742   -1.456234
     43          1           0      -12.550902    1.660805    2.061743
     44          1           0      -13.886812    0.763955    1.855099
     45          1           0       14.137559   -2.168926   -0.537131
     46          1           0       12.687023   -2.156449   -1.183360
     47          1           0      -14.092917    2.958936    0.565096
     48          1           0      -13.993655    1.765776   -0.519749
     49          1           0       13.241388   -1.632178    1.809733
     50          1           0       12.013641   -3.164144    1.143963
     51          1           0      -11.769320    3.644290    0.054051
     52          1           0      -12.509152    2.867474   -1.458720
     53          1           0       11.451391   -0.866925   -2.272522
     54          1           0       12.628442    0.510665   -3.005560
     55          1           0       10.825965    0.801897   -2.429610
     56          1           0       12.786303    1.986356    0.369187
     57          1           0       11.851547    2.856370   -0.904341
     58          1           0       13.525689    2.385095   -1.188895
     59          1           0      -13.655305   -0.512739   -0.577188
     60          1           0      -13.969538   -1.656964    0.630460
     61          1           0      -12.319594   -1.947849    0.018448
     62          1           0      -10.707836   -0.050917    2.625623
     63          1           0      -11.219354   -1.718178    1.871789
     64          1           0      -12.425465   -0.796157    2.934858
     65          1           0        9.948680    2.088365    0.284749
     66          1           0      -10.026524   -1.771460   -0.419012
     67          1           0        9.880481   -0.467253    2.283384
     68          1           0       10.946459   -1.984712    2.854203
     69          1           0        9.536952   -2.259171    1.626254
     70          1           0       -9.623347    1.239831   -2.539247
     71          1           0       -9.008828    2.540780   -1.015328
     72          1           0      -10.681727    2.816135   -2.569980
     73          1           0        8.303395   -0.548549    0.546176
     74          1           0       -8.325458    0.812412    0.019619
     75          1           0        7.822008    2.704967    1.895875
     76          1           0        6.490705    3.399936    0.661148
     77          1           0        8.397736    3.556730    0.203086
     78          1           0       -8.509463   -2.750988   -1.776640
     79          1           0       -8.704902   -3.076397   -0.036771
     80          1           0       -7.308943   -3.370557   -0.849806
     81          1           0        6.200993   -0.291105    0.132373
     82          1           0       -6.098306    0.124408    0.191612
     83          1           0        4.862093    2.238317    0.438190
     84          1           0       -5.174833   -2.685079   -0.684531
     85          1           0        3.871334   -0.610469   -0.050716
     86          1           0       -3.827439   -0.017197   -0.143724
     87          1           0        2.982349    3.149338    1.375644
     88          1           0        1.294669    2.940900    0.424925
     89          1           0        2.885496    3.326921   -0.350760
     90          1           0       -3.138906   -3.377012   -1.649422
     91          1           0       -3.329256   -3.836042    0.053021
     92          1           0       -1.691061   -3.843664   -0.704555
     93          1           0        0.346021    0.797271    0.374430
     94          1           0       -1.746005    0.097665   -0.192221
     95          1           0        1.933629   -1.633470   -0.306899
     96          1           0       -0.161771   -2.636907   -0.495043
 ---------------------------------------------------------------------

 SCF Done:  E(RB3LYP) =  -1557.54925975     A.U. after   17 cycles

 Excitation energies and oscillator strengths:

 Excited State   1:      Singlet-A      1.7867 eV  693.94 nm  f=3.3961  <S**2>=0.000
     148 ->149         0.71917
     148 <-149        -0.17334
 This state for optimization and/or second-order correction.
 Total Energy, E(TD-HF/TD-DFT) =  -1557.48360128
 Copying the excited state density for this state as the 1-particle RhoCI density.

 The electronic state is 1-A.
 Alpha  occ. eigenvalues --  -10.22861 -10.21663 -10.21530 -10.20449 -10.20359
 Alpha  occ. eigenvalues --  -10.20287 -10.20016 -10.19949 -10.19887 -10.19835
 Alpha  occ. eigenvalues --  -10.19783 -10.19715 -10.19670 -10.19535 -10.19458
 Alpha  occ. eigenvalues --  -10.19452 -10.19378 -10.19195 -10.19114 -10.19060
 Alpha  occ. eigenvalues --  -10.19053 -10.19014 -10.18977 -10.18948 -10.18936
 Alpha  occ. eigenvalues --  -10.18858 -10.18734 -10.18569 -10.18497 -10.18494
 Alpha  occ. eigenvalues --  -10.18206 -10.18149 -10.18142 -10.17708 -10.17642
 Alpha  occ. eigenvalues --  -10.17361 -10.17240 -10.16706 -10.15954 -10.15878
 Alpha  occ. eigenvalues --   -0.85285  -0.84985  -0.83853  -0.83248  -0.81922
 Alpha  occ. eigenvalues --   -0.81502  -0.79069  -0.78829  -0.78437  -0.77613
 Alpha  occ. eigenvalues --   -0.77012  -0.75227  -0.74187  -0.71725  -0.71234
 Alpha  occ. eigenvalues --   -0.70119  -0.68896  -0.67940  -0.67678  -0.67490
 Alpha  occ. eigenvalues --   -0.67325  -0.66597  -0.66269  -0.65480  -0.65129
 Alpha  occ. eigenvalues --   -0.63092  -0.61931  -0.60405  -0.59624  -0.56887
 Alpha  occ. eigenvalues --   -0.55968  -0.54830  -0.54494  -0.53969  -0.53402
 Alpha  occ. eigenvalues --   -0.52664  -0.51760  -0.50145  -0.49775  -0.49361
 Alpha  occ. eigenvalues --   -0.48419  -0.47972  -0.47314  -0.46627  -0.45760
 Alpha  occ. eigenvalues --   -0.45587  -0.45004  -0.44806  -0.44382  -0.43816
 Alpha  occ. eigenvalues --   -0.43301  -0.43205  -0.42604  -0.42433  -0.42130
 Alpha  occ. eigenvalues --   -0.41975  -0.41719  -0.41616  -0.41198  -0.40966
 Alpha  occ. eigenvalues --   -0.40841  -0.40048  -0.39469  -0.39439  -0.39034
 Alpha  occ. eigenvalues --   -0.38689  -0.38623  -0.38289  -0.38000  -0.37746
 Alpha  occ. eigenvalues --   -0.37374  -0.36984  -0.36465  -0.36389  -0.35872
 Alpha  occ. eigenvalues --   -0.35640  -0.35499  -0.35347  -0.35219  -0.34946
 Alpha  occ. eigenvalues --   -0.34691  -0.34573  -0.34252  -0.34038  -0.33809
 Alpha  occ. eigenvalues --   -0.33669  -0.33601  -0.33289  -0.33089  -0.32707
 Alpha  occ. eigenvalues --   -0.32652  -0.32294  -0.31837  -0.31436  -0.30783
 Alpha  occ. eigenvalues --   -0.30373  -0.30099  -0.29737  -0.28959  -0.28307
 Alpha  occ. eigenvalues --   -0.28147  -0.27701  -0.26586  -0.24649  -0.22828
 Alpha  occ. eigenvalues --   -0.21024  -0.18583  -0.15308
 Alpha virt. eigenvalues --   -0.09416  -0.05563  -0.02170   0.00025   0.02131
 Alpha virt. eigenvalues --    0.03987   0.05177   0.05512   0.06545   0.06850
 Alpha virt. eigenvalues --    0.07133   0.07728   0.08356   0.08420   0.08867

 Mulliken charges:
               1
     1  C    0.001387
     2  C   -0.009912
     3  C   -0.169353
     4  C   -0.176787
     5  C   -0.167294
     6  C   -0.184187
     7  C    0.089838
     8  C    0.079918
     9  C   -0.214950
    10  C   -0.200870
    11  C    0.052207
    12  C    0.056517
    13  C   -0.284408
    14  C   -0.300211
    15  C   -0.281178
    16  C   -0.278759
    17  C   -0.158493
    18  C   -0.139395
    19  C   -0.348637
    20  C   -0.308058
    21  C   -0.104038
    22  C   -0.083329
    23  C    0.103284
    24  C    0.121111
    25  C   -0.352415
    26  C   -0.405018
    27  C   -0.097703
    28  C   -0.123850
    29  C   -0.084300
    30  C   -0.065976
    31  C   -0.119276
    32  C   -0.116922
    33  C    0.163133
    34  C    0.119780
    35  C   -0.385821
    36  C   -0.379500
    37  C   -0.133914
    38  C   -0.101474
    39  C   -0.063572
    40  C   -0.121683
    41  H    0.093527
    42  H    0.079350
    43  H    0.101518
    44  H    0.090349
    45  H    0.093425
    46  H    0.106111
    47  H    0.088930
    48  H    0.111891
    49  H    0.103457
    50  H    0.059344
    51  H    0.077138
    52  H    0.092075
    53  H    0.093783
    54  H    0.085882
    55  H    0.096480
    56  H    0.114870
    57  H    0.078994
    58  H    0.096135
    59  H    0.080718
    60  H    0.113303
    61  H    0.077474
    62  H    0.090415
    63  H    0.090217
    64  H    0.066790
    65  H    0.079226
    66  H    0.079231
    67  H    0.125711
    68  H    0.104672
    69  H    0.097640
    70  H    0.111569
    71  H    0.087536
    72  H    0.074863
    73  H    0.081663
    74  H    0.060391
    75  H    0.143083
    76  H    0.100808
    77  H    0.081107
    78  H    0.113543
    79  H    0.134641
    80  H    0.106564
    81  H    0.061337
    82  H    0.067406
    83  H    0.056933
    84  H    0.078160
    85  H    0.083277
    86  H    0.073823
    87  H    0.099748
    88  H    0.097728
    89  H    0.125816
    90  H    0.139284
    91  H    0.111501
    92  H    0.108255
    93  H    0.078862
    94  H    0.075265
    95  H    0.077160
    96  H    0.075130
 Sum of Mulliken charges =  -0.00000

 Dipole moment (field-independent basis, Debye):
    X=              0.4335    Y=             -0.5394    Z=              0.2654  Tot=              0.7411
 Quadrupole moment (field-independent basis, Debye-Ang):
   XX=           -210.3432   YY=           -236.0156   ZZ=           -256.7726
   XY=             -0.5521   XZ=              4.5153   YZ=              2.9033

 Normal termination of Gaussian 16 at Sat Jul 27 21:26:07 2019.
