 Gaussian 16, Revision A.03,
 Gaussian 16:  ES64L-G16RevA.03 25-Dec-2016

 ---------------------------------
 # td=(NStates=1) B3LYP/6-31G(d,p)
 ---------------------------------

 --
 TD
 --
 Symbolic Z-matrix:
 Charge =  0 Multiplicity = 1

                         Standard orientation:
 ---------------------------------------------------------------------
 Center     Atomic      Atomic             Coordinates (Angstroms)
 Number     Number       Type             X           Y           Z
 ---------------------------------------------------------------------
      1          6           0      -12.026849   -0.666804   -0.709629
      2          6           0       12.062024   -0.027289    0.936935
      3          6           0      -13.416676    0.270411   -0.737322
      4          6           0       12.963189   -1.155468    1.229760
      5          6           0      -13.203156    1.741422   -0.761040
      6          6           0       13.408389   -2.038670    0.087399
      7          6           0      -11.021005    0.079654    0.263124
      8          6           0       11.061006   -0.401573   -0.095679
      9          6           0      -12.428202    2.107727    0.548291
     10          6           0       12.168335   -2.567560   -0.635237
     11          6           0      -11.128084    1.278771    0.815558
     12          6           0       11.092114   -1.530723   -0.819686
     13          6           0      -11.577943   -0.813636   -2.101232
     14          6           0      -12.528651   -1.974385   -0.065688
     15          6           0       12.865437    1.192608    0.344216
     16          6           0       11.359271    0.446176    2.293736
     17          6           0       -9.869931   -0.714730    0.497904
     18          6           0        9.977712    0.668232   -0.370575
     19          6           0      -10.232990    1.942336    1.776353
     20          6           0       10.064705   -2.010514   -1.923063
     21          6           0       -8.517533   -0.437448    0.274153
     22          6           0        8.663970    0.402800   -0.249921
     23          6           0       -7.371591   -1.322714    0.331256
     24          6           0        7.523272    1.291192   -0.437872
     25          6           0       -7.643390   -2.832990    0.688290
     26          6           0        7.891975    2.823031   -0.625687
     27          6           0       -6.110807   -0.843180    0.287689
     28          6           0        6.198737    0.965049   -0.260352
     29          6           0       -4.791419   -1.432632    0.372387
     30          6           0        4.989396    1.695167   -0.432450
     31          6           0       -3.635299   -0.846259    0.228964
     32          6           0        3.805335    1.118554   -0.443349
     33          6           0       -2.328227   -1.374853    0.390440
     34          6           0        2.476315    1.792662   -0.392758
     35          6           0       -2.186997   -2.805906    0.545476
     36          6           0        2.492614    3.275943   -0.498259
     37          6           0       -1.163855   -0.566623    0.177497
     38          6           0        1.283427    1.083604   -0.306761
     39          6           0       -1.189702    0.897850   -0.093668
     40          6           0        0.010351    1.687820   -0.255835
     41          1           0      -13.946039   -0.046826    0.094735
     42          1           0      -13.993918   -0.236791   -1.633244
     43          1           0       12.451802   -2.091000    1.831765
     44          1           0       13.927381   -1.039127    1.925266
     45          1           0      -13.951945    2.479090   -0.737307
     46          1           0      -12.560744    2.070037   -1.511930
     47          1           0       14.004307   -2.861708    0.489031
     48          1           0       14.089955   -1.675100   -0.579579
     49          1           0      -12.954196    2.259443    1.591809
     50          1           0      -12.110064    3.223230    0.474219
     51          1           0       11.704675   -3.333764    0.190250
     52          1           0       12.327592   -3.110137   -1.670308
     53          1           0      -11.703651    0.421796   -2.509545
     54          1           0      -12.314906   -1.394080   -2.630245
     55          1           0      -10.573459   -1.141895   -2.011286
     56          1           0      -12.923550   -1.983654    0.996586
     57          1           0      -11.805760   -2.794098   -0.119966
     58          1           0      -13.514499   -2.256146   -0.524436
     59          1           0       13.614510    0.712985   -0.285123
     60          1           0       13.331633    1.646386    1.207575
     61          1           0       12.390458    2.034949   -0.191218
     62          1           0       10.507774   -0.465892    2.667170
     63          1           0       10.881125    1.500473    2.177372
     64          1           0       12.185258    0.447604    3.017466
     65          1           0      -10.161642   -1.785115    0.652016
     66          1           0       10.403816    1.729233   -0.614242
     67          1           0       -9.745875    1.227752    2.455019
     68          1           0      -10.719072    2.767887    2.483489
     69          1           0       -9.325284    2.426949    1.044642
     70          1           0        9.567935   -1.111611   -2.143324
     71          1           0        9.435196   -3.011547   -1.862620
     72          1           0       10.848720   -2.128874   -2.942041
     73          1           0       -8.375997    0.713486    0.163273
     74          1           0        8.408560   -0.827639   -0.155736
     75          1           0       -8.092724   -2.785737    1.806879
     76          1           0       -6.626409   -3.388021    0.670866
     77          1           0       -8.330177   -3.210911   -0.029019
     78          1           0        8.321124    3.150320   -1.550012
     79          1           0        8.621791    3.263177    0.245202
     80          1           0        6.978535    3.396095   -0.682728
     81          1           0       -5.938241    0.254915    0.479706
     82          1           0        6.054478   -0.247342   -0.250418
     83          1           0       -5.029352   -2.724841    0.357882
     84          1           0        5.112617    2.767663   -0.515826
     85          1           0       -3.760566    0.098847    0.042229
     86          1           0        3.448048    0.035574   -0.467983
     87          1           0       -2.814738   -3.474770    1.381626
     88          1           0       -1.075733   -3.095348    0.679329
     89          1           0       -2.524418   -3.204833   -0.348239
     90          1           0        3.054315    3.593572   -1.480292
     91          1           0        3.061752    3.686405    0.234551
     92          1           0        1.609901    3.906354   -0.767029
     93          1           0       -0.176277   -0.780869    0.558698
     94          1           0        1.274360    0.070797   -0.200444
     95          1           0       -2.156257    1.335864   -0.349491
     96          1           0       -0.323724    2.604475   -0.395212
 ---------------------------------------------------------------------

 SCF Done:  E(RB3LYP) =  -1557.50880071     A.U. after   15 cycles

 Excitation energies and oscillator strengths:

 Excited State   1:      Singlet-A      2.1903 eV  566.06 nm  f=2.9604  <S**2>=0.000
     148 ->149         0.70791
     148 <-149        -0.10516
 This state for optimization and/or second-order correction.
 Total Energy, E(TD-HF/TD-DFT) =  -1557.42830791
 Copying the excited state density for this state as the 1-particle RhoCI density.

 The electronic state is 1-A.
 Alpha  occ. eigenvalues --  -10.20788 -10.20759 -10.20709 -10.20620 -10.20393
 Alpha  occ. eigenvalues --  -10.20379 -10.20365 -10.20341 -10.20031 -10.20009
 Alpha  occ. eigenvalues --  -10.19883 -10.19880 -10.19750 -10.19739 -10.19707
 Alpha  occ. eigenvalues --  -10.19693 -10.19625 -10.19576 -10.19560 -10.19516
 Alpha  occ. eigenvalues --  -10.19282 -10.19100 -10.19022 -10.19002 -10.18932
 Alpha  occ. eigenvalues --  -10.18920 -10.18865 -10.18769 -10.18636 -10.18532
 Alpha  occ. eigenvalues --  -10.18517 -10.18507 -10.18304 -10.18172 -10.17988
 Alpha  occ. eigenvalues --  -10.17972 -10.17705 -10.17510 -10.17321 -10.16913
 Alpha  occ. eigenvalues --   -0.85366  -0.84968  -0.83992  -0.83297  -0.81511
 Alpha  occ. eigenvalues --   -0.81042  -0.79044  -0.78812  -0.77884  -0.77615
 Alpha  occ. eigenvalues --   -0.76892  -0.75715  -0.74525  -0.72342  -0.71479
 Alpha  occ. eigenvalues --   -0.70150  -0.68592  -0.68085  -0.67789  -0.67600
 Alpha  occ. eigenvalues --   -0.67521  -0.66907  -0.66213  -0.65974  -0.65325
 Alpha  occ. eigenvalues --   -0.62855  -0.62322  -0.60014  -0.59655  -0.57368
 Alpha  occ. eigenvalues --   -0.56445  -0.55917  -0.55667  -0.53901  -0.53212
 Alpha  occ. eigenvalues --   -0.52124  -0.51433  -0.50880  -0.48734  -0.48588
 Alpha  occ. eigenvalues --   -0.48451  -0.47726  -0.47262  -0.46500  -0.46116
 Alpha  occ. eigenvalues --   -0.45376  -0.44956  -0.44857  -0.44319  -0.43848
 Alpha  occ. eigenvalues --   -0.43348  -0.42760  -0.42628  -0.42377  -0.41824
 Alpha  occ. eigenvalues --   -0.41723  -0.41689  -0.41343  -0.41213  -0.41172
 Alpha  occ. eigenvalues --   -0.40835  -0.40630  -0.40117  -0.39865  -0.39748
 Alpha  occ. eigenvalues --   -0.39386  -0.39132  -0.38996  -0.38072  -0.37852
 Alpha  occ. eigenvalues --   -0.37701  -0.37146  -0.37052  -0.36771  -0.36555
 Alpha  occ. eigenvalues --   -0.36169  -0.35586  -0.35380  -0.35061  -0.34578
 Alpha  occ. eigenvalues --   -0.34438  -0.34331  -0.33996  -0.33856  -0.33558
 Alpha  occ. eigenvalues --   -0.33283  -0.33084  -0.32768  -0.32428  -0.32219
 Alpha  occ. eigenvalues --   -0.31980  -0.31812  -0.31578  -0.31081  -0.30674
 Alpha  occ. eigenvalues --   -0.30433  -0.30262  -0.29925  -0.28836  -0.28560
 Alpha  occ. eigenvalues --   -0.28022  -0.27113  -0.26138  -0.24027  -0.22831
 Alpha  occ. eigenvalues --   -0.21164  -0.19460  -0.16659
 Alpha virt. eigenvalues --   -0.08436  -0.05294  -0.02167   0.00684   0.02456
 Alpha virt. eigenvalues --    0.03600   0.05317   0.05799   0.06234   0.06482
 Alpha virt. eigenvalues --    0.06895   0.07326   0.07847   0.08339   0.08766

 Mulliken charges:
               1
     1  C   -0.007816
     2  C    0.015500
     3  C   -0.176050
     4  C   -0.186868
     5  C   -0.183250
     6  C   -0.187860
     7  C    0.089474
     8  C    0.068925
     9  C   -0.248034
    10  C   -0.200191
    11  C    0.095781
    12  C    0.069495
    13  C   -0.257228
    14  C   -0.322112
    15  C   -0.312043
    16  C   -0.277690
    17  C   -0.160721
    18  C   -0.145541
    19  C   -0.354261
    20  C   -0.339569
    21  C   -0.086803
    22  C   -0.077216
    23  C    0.095904
    24  C    0.105923
    25  C   -0.348648
    26  C   -0.369691
    27  C   -0.129075
    28  C   -0.113463
    29  C   -0.047342
    30  C   -0.094477
    31  C   -0.080024
    32  C   -0.078531
    33  C    0.120531
    34  C    0.118512
    35  C   -0.369239
    36  C   -0.383981
    37  C   -0.135829
    38  C   -0.122923
    39  C   -0.125521
    40  C   -0.056162
    41  H    0.104199
    42  H    0.060473
    43  H    0.075164
    44  H    0.075869
    45  H    0.105792
    46  H    0.113896
    47  H    0.089982
    48  H    0.102462
    49  H    0.089167
    50  H    0.077969
    51  H    0.078066
    52  H    0.079848
    53  H    0.061479
    54  H    0.112676
    55  H    0.113528
    56  H    0.104841
    57  H    0.101400
    58  H    0.095350
    59  H    0.110743
    60  H    0.099907
    61  H    0.104769
    62  H    0.070755
    63  H    0.098848
    64  H    0.106375
    65  H    0.070707
    66  H    0.086042
    67  H    0.126653
    68  H    0.096304
    69  H    0.092121
    70  H    0.132829
    71  H    0.114034
    72  H    0.056289
    73  H    0.066967
    74  H    0.069069
    75  H    0.114091
    76  H    0.101038
    77  H    0.126993
    78  H    0.122734
    79  H    0.093412
    80  H    0.101847
    81  H    0.067601
    82  H    0.059481
    83  H    0.026566
    84  H    0.091727
    85  H    0.063730
    86  H    0.079330
    87  H    0.088753
    88  H    0.096701
    89  H    0.145398
    90  H    0.095759
    91  H    0.134624
    92  H    0.109982
    93  H    0.092970
    94  H    0.078381
    95  H    0.086105
    96  H    0.076318
 Sum of Mulliken charges =  -0.00000

 Dipole moment (field-independent basis, Debye):
    X=             -0.9305    Y=              0.7459    Z=              0.0118  Tot=              1.1926
 Quadrupole moment (field-independent basis, Debye-Ang):
   XX=           -209.5262   YY=           -234.7797   ZZ=           -257.5819
   XY=              2.9575   XZ=             -4.2041   YZ=             -1.7649

 Normal termination of Gaussian 16 at Fri Jul 26 22:47:38 2019.
