 Gaussian 16, Revision A.03,
 Gaussian 16:  ES64L-G16RevA.03 25-Dec-2016

 ---------------------------------
 # td=(NStates=1) B3LYP/6-31G(d,p)
 ---------------------------------

 --
 TD
 --
 Symbolic Z-matrix:
 Charge =  0 Multiplicity = 1

                         Standard orientation:
 ---------------------------------------------------------------------
 Center     Atomic      Atomic             Coordinates (Angstroms)
 Number     Number       Type             X           Y           Z
 ---------------------------------------------------------------------
      1          6           0       12.137966    0.457745   -0.845207
      2          6           0      -12.077957   -0.248407    0.904346
      3          6           0       13.463981   -0.429243   -0.845164
      4          6           0      -13.197703    0.831560    1.278186
      5          6           0       13.202025   -1.960642   -0.723168
      6          6           0      -13.580684    1.785948    0.032801
      7          6           0       11.110073   -0.051802    0.274973
      8          6           0      -11.083975    0.403535   -0.156871
      9          6           0       12.446697   -2.288256    0.702826
     10          6           0      -12.410550    2.516099   -0.636846
     11          6           0       11.194900   -1.225992    0.812957
     12          6           0      -11.233855    1.589615   -0.812696
     13          6           0       11.546725    0.397062   -2.218057
     14          6           0       12.608974    1.913469   -0.591162
     15          6           0      -12.957684   -1.355423    0.152419
     16          6           0      -11.434633   -0.823739    2.183412
     17          6           0        9.883752    0.760943    0.436704
     18          6           0       -9.967349   -0.550693   -0.398321
     19          6           0       10.345400   -1.717961    1.975693
     20          6           0      -10.179184    2.074595   -1.831891
     21          6           0        8.626019    0.391284    0.324252
     22          6           0       -8.664229   -0.229039   -0.235006
     23          6           0        7.564242    1.376037    0.470096
     24          6           0       -7.527693   -1.238832   -0.465680
     25          6           0        7.893304    2.762680    0.817856
     26          6           0       -7.886624   -2.585540   -0.866907
     27          6           0        6.236092    0.791641    0.241864
     28          6           0       -6.268871   -0.784244   -0.276284
     29          6           0        4.917584    1.477891    0.451188
     30          6           0       -5.055570   -1.492722   -0.393055
     31          6           0        3.690892    0.888835    0.309206
     32          6           0       -3.823026   -0.980014   -0.097366
     33          6           0        2.384194    1.516794    0.390048
     34          6           0       -2.529748   -1.588843   -0.276600
     35          6           0        2.254874    2.954775    0.833357
     36          6           0       -2.501472   -3.081051   -0.629198
     37          6           0        1.252506    0.734220    0.208874
     38          6           0       -1.339641   -0.905275   -0.159251
     39          6           0        1.101278   -0.681000   -0.051700
     40          6           0       -0.039780   -1.368092   -0.239317
     41          1           0       13.977781   -0.038700    0.094333
     42          1           0       13.992644   -0.348418   -1.840376
     43          1           0      -12.880841    1.405991    2.414319
     44          1           0      -14.378732    0.288930    1.425638
     45          1           0       14.107387   -2.463792   -0.776200
     46          1           0       12.515525   -2.385624   -1.528212
     47          1           0      -14.334171    2.462094    0.475453
     48          1           0      -14.058273    1.122218   -0.583883
     49          1           0       13.054902   -2.142328    1.596050
     50          1           0       12.105122   -3.386102    0.588045
     51          1           0      -11.901019    3.297246    0.044030
     52          1           0      -12.646282    2.816638   -1.647016
     53          1           0       11.296617   -0.616040   -2.664781
     54          1           0       12.227885    0.667721   -2.947011
     55          1           0       10.645029    0.973592   -2.396820
     56          1           0       13.198153    2.115417    0.500047
     57          1           0       11.712528    2.568043   -0.737267
     58          1           0       13.365815    2.138431   -1.373322
     59          1           0      -13.238014   -0.861730   -0.860321
     60          1           0      -13.732883   -1.601220    0.737877
     61          1           0      -12.288639   -2.341154   -0.037008
     62          1           0      -10.930211   -0.052101    2.932365
     63          1           0      -10.756783   -1.577834    1.877772
     64          1           0      -12.232162   -1.141929    2.846056
     65          1           0        9.969292    1.888118    0.712170
     66          1           0      -10.347680   -1.630045   -0.668891
     67          1           0        9.535109   -0.875752    2.042393
     68          1           0       10.972020   -1.935320    2.972511
     69          1           0        9.702681   -2.650577    1.542065
     70          1           0       -9.720556    1.226172   -2.290779
     71          1           0       -9.247864    2.678835   -1.399941
     72          1           0      -10.698128    2.842146   -2.622855
     73          1           0        8.423040   -0.713897    0.257072
     74          1           0       -8.211828    0.634645    0.010146
     75          1           0        8.331802    2.678469    1.804147
     76          1           0        6.893683    3.210761    0.833963
     77          1           0        8.525500    3.289250    0.091478
     78          1           0       -8.364500   -2.701901   -1.809643
     79          1           0       -8.689135   -2.899019   -0.091115
     80          1           0       -7.077512   -3.199763   -0.824923
     81          1           0        6.052856   -0.434976    0.353503
     82          1           0       -6.147454    0.286071   -0.140319
     83          1           0        5.154427    2.602635    0.651278
     84          1           0       -5.126528   -2.509560   -0.579780
     85          1           0        3.812460   -0.182422    0.161723
     86          1           0       -3.846173    0.158019    0.156569
     87          1           0        2.872468    3.068119    1.736881
     88          1           0        1.249696    3.061702    1.009233
     89          1           0        2.492574    3.635537   -0.014397
     90          1           0       -3.031030   -3.216911   -1.606014
     91          1           0       -2.812572   -3.869414    0.197238
     92          1           0       -1.344399   -3.453856   -0.842199
     93          1           0        0.392584    1.304621    0.189448
     94          1           0       -1.418108    0.222197    0.175454
     95          1           0        2.186161   -1.182482   -0.168110
     96          1           0        0.088228   -2.458269   -0.285942
 ---------------------------------------------------------------------

 SCF Done:  E(RB3LYP) =  -1557.61428187     A.U. after   16 cycles

 Excitation energies and oscillator strengths:

 Excited State   1:      Singlet-A      2.2758 eV  544.80 nm  f=3.1182  <S**2>=0.000
     148 ->149         0.70849
     148 <-149        -0.10075
 This state for optimization and/or second-order correction.
 Total Energy, E(TD-HF/TD-DFT) =  -1557.53064805
 Copying the excited state density for this state as the 1-particle RhoCI density.

 The electronic state is 1-A.
 Alpha  occ. eigenvalues --  -10.21822 -10.21288 -10.21222 -10.20930 -10.20478
 Alpha  occ. eigenvalues --  -10.20404 -10.20291 -10.20231 -10.20112 -10.19872
 Alpha  occ. eigenvalues --  -10.19561 -10.19489 -10.19476 -10.19445 -10.19404
 Alpha  occ. eigenvalues --  -10.19372 -10.19287 -10.19264 -10.19140 -10.19053
 Alpha  occ. eigenvalues --  -10.18954 -10.18918 -10.18663 -10.18646 -10.18606
 Alpha  occ. eigenvalues --  -10.18546 -10.18542 -10.18484 -10.18356 -10.18284
 Alpha  occ. eigenvalues --  -10.18271 -10.18196 -10.18147 -10.18106 -10.18035
 Alpha  occ. eigenvalues --  -10.18020 -10.17961 -10.17753 -10.17428 -10.16272
 Alpha  occ. eigenvalues --   -0.84258  -0.83941  -0.83384  -0.82785  -0.82106
 Alpha  occ. eigenvalues --   -0.81494  -0.78873  -0.78084  -0.77871  -0.76755
 Alpha  occ. eigenvalues --   -0.75909  -0.74907  -0.74227  -0.72163  -0.71889
 Alpha  occ. eigenvalues --   -0.70229  -0.68648  -0.68369  -0.67869  -0.67609
 Alpha  occ. eigenvalues --   -0.66783  -0.66669  -0.65832  -0.65703  -0.64880
 Alpha  occ. eigenvalues --   -0.62407  -0.61311  -0.59347  -0.58508  -0.57052
 Alpha  occ. eigenvalues --   -0.55938  -0.55126  -0.54162  -0.53530  -0.52993
 Alpha  occ. eigenvalues --   -0.52096  -0.51460  -0.50787  -0.49492  -0.48351
 Alpha  occ. eigenvalues --   -0.47483  -0.46738  -0.46652  -0.46288  -0.45476
 Alpha  occ. eigenvalues --   -0.45160  -0.44574  -0.44446  -0.44302  -0.43975
 Alpha  occ. eigenvalues --   -0.43444  -0.43299  -0.42759  -0.42386  -0.41801
 Alpha  occ. eigenvalues --   -0.41625  -0.41474  -0.41341  -0.41295  -0.41131
 Alpha  occ. eigenvalues --   -0.40879  -0.40556  -0.40332  -0.39924  -0.39435
 Alpha  occ. eigenvalues --   -0.38825  -0.38797  -0.38426  -0.38322  -0.38194
 Alpha  occ. eigenvalues --   -0.37894  -0.37706  -0.37267  -0.37076  -0.36752
 Alpha  occ. eigenvalues --   -0.36307  -0.36217  -0.35837  -0.35528  -0.34785
 Alpha  occ. eigenvalues --   -0.34510  -0.34399  -0.34242  -0.34014  -0.33933
 Alpha  occ. eigenvalues --   -0.33785  -0.33117  -0.32864  -0.32627  -0.32399
 Alpha  occ. eigenvalues --   -0.31969  -0.31853  -0.31265  -0.30976  -0.30873
 Alpha  occ. eigenvalues --   -0.30224  -0.29757  -0.29517  -0.28922  -0.27949
 Alpha  occ. eigenvalues --   -0.27739  -0.26615  -0.26068  -0.24429  -0.23103
 Alpha  occ. eigenvalues --   -0.21629  -0.19338  -0.16630
 Alpha virt. eigenvalues --   -0.08091  -0.04957  -0.01406   0.01293   0.02868
 Alpha virt. eigenvalues --    0.03922   0.05670   0.06144   0.06264   0.07146
 Alpha virt. eigenvalues --    0.07421   0.07876   0.07988   0.08664   0.08727

 Mulliken charges:
               1
     1  C    0.003926
     2  C    0.003540
     3  C   -0.168671
     4  C   -0.158406
     5  C   -0.188866
     6  C   -0.189239
     7  C    0.107916
     8  C    0.066288
     9  C   -0.222237
    10  C   -0.198804
    11  C    0.026282
    12  C    0.044012
    13  C   -0.304251
    14  C   -0.288335
    15  C   -0.285183
    16  C   -0.296855
    17  C   -0.173877
    18  C   -0.175224
    19  C   -0.338418
    20  C   -0.347570
    21  C   -0.037094
    22  C   -0.038577
    23  C    0.073296
    24  C    0.112071
    25  C   -0.373555
    26  C   -0.373027
    27  C   -0.132642
    28  C   -0.130097
    29  C   -0.090605
    30  C   -0.067920
    31  C   -0.103370
    32  C   -0.118396
    33  C    0.083984
    34  C    0.121134
    35  C   -0.360200
    36  C   -0.369561
    37  C   -0.107691
    38  C   -0.105637
    39  C   -0.082366
    40  C   -0.082287
    41  H    0.087658
    42  H    0.084000
    43  H    0.046426
    44  H    0.039980
    45  H    0.094437
    46  H    0.091361
    47  H    0.096256
    48  H    0.114766
    49  H    0.109140
    50  H    0.090539
    51  H    0.111085
    52  H    0.106051
    53  H    0.091300
    54  H    0.104879
    55  H    0.103548
    56  H    0.071031
    57  H    0.097115
    58  H    0.103342
    59  H    0.101098
    60  H    0.119207
    61  H    0.067532
    62  H    0.086648
    63  H    0.109704
    64  H    0.106988
    65  H    0.073185
    66  H    0.089804
    67  H    0.098936
    68  H    0.098957
    69  H    0.086986
    70  H    0.132233
    71  H    0.096557
    72  H    0.073902
    73  H    0.085677
    74  H    0.073692
    75  H    0.143946
    76  H    0.107998
    77  H    0.132855
    78  H    0.130665
    79  H    0.103044
    80  H    0.112347
    81  H    0.064979
    82  H    0.068999
    83  H    0.067245
    84  H    0.076261
    85  H    0.078937
    86  H    0.063941
    87  H    0.126170
    88  H    0.117752
    89  H    0.120578
    90  H    0.122989
    91  H    0.112153
    92  H    0.081969
    93  H    0.065131
    94  H    0.070365
    95  H    0.071783
    96  H    0.082386
 Sum of Mulliken charges =  -0.00000

 Dipole moment (field-independent basis, Debye):
    X=             -0.1375    Y=              0.2888    Z=             -0.2349  Tot=              0.3969
 Quadrupole moment (field-independent basis, Debye-Ang):
   XX=           -220.7816   YY=           -237.3479   ZZ=           -254.0188
   XY=              4.9290   XZ=              4.0266   YZ=              3.0997

 Normal termination of Gaussian 16 at Sun Jul 28 08:33:59 2019.
