 Gaussian 16, Revision A.03,
 Gaussian 16:  ES64L-G16RevA.03 25-Dec-2016

 ---------------------------------
 # td=(NStates=1) B3LYP/6-31G(d,p)
 ---------------------------------

 --
 TD
 --
 Symbolic Z-matrix:
 Charge =  0 Multiplicity = 1

                         Standard orientation:
 ---------------------------------------------------------------------
 Center     Atomic      Atomic             Coordinates (Angstroms)
 Number     Number       Type             X           Y           Z
 ---------------------------------------------------------------------
      1          6           0      -12.161378   -0.499919   -0.591426
      2          6           0       12.088554   -0.046322    0.877986
      3          6           0      -13.397707    0.310808   -0.486188
      4          6           0       12.923606   -1.259665    1.299623
      5          6           0      -13.245189    1.811672   -0.427933
      6          6           0       13.287013   -2.258282    0.148613
      7          6           0      -10.964463   -0.042560    0.365017
      8          6           0       11.005026   -0.505990   -0.074902
      9          6           0      -12.366698    2.123834    0.741489
     10          6           0       11.991094   -2.679055   -0.592384
     11          6           0      -11.112811    1.173214    0.940506
     12          6           0       10.956462   -1.610122   -0.648831
     13          6           0      -11.548417   -0.565195   -2.095339
     14          6           0      -12.608342   -2.072017   -0.327543
     15          6           0       13.006474    0.979849    0.166087
     16          6           0       11.543730    0.703968    2.117643
     17          6           0       -9.876020   -0.920563    0.459746
     18          6           0        9.885843    0.572960   -0.206423
     19          6           0      -10.082756    1.659254    1.860129
     20          6           0        9.841220   -2.013443   -1.615138
     21          6           0       -8.604129   -0.533565    0.372315
     22          6           0        8.550301    0.368889   -0.105389
     23          6           0       -7.332910   -1.287656    0.292073
     24          6           0        7.518475    1.412385   -0.381291
     25          6           0       -7.560885   -2.727931    0.596864
     26          6           0        8.108567    2.764960   -0.684891
     27          6           0       -6.130377   -0.745140    0.134208
     28          6           0        6.262418    1.025099   -0.174416
     29          6           0       -4.888286   -1.359223    0.178040
     30          6           0        5.056147    1.713555   -0.350625
     31          6           0       -3.593132   -0.670109    0.007530
     32          6           0        3.740293    1.184362   -0.359016
     33          6           0       -2.334827   -1.238732    0.143565
     34          6           0        2.561171    1.983713   -0.432494
     35          6           0       -2.314205   -2.696117    0.515214
     36          6           0        2.549366    3.446259   -0.701481
     37          6           0       -1.152640   -0.562455   -0.068816
     38          6           0        1.391344    1.143114   -0.222001
     39          6           0       -1.140955    0.857761   -0.383310
     40          6           0        0.011156    1.517970   -0.441836
     41          1           0      -13.832650    0.067574    0.395669
     42          1           0      -14.149621   -0.117402   -1.274432
     43          1           0       12.446581   -1.820048    2.000760
     44          1           0       13.939176   -0.828892    1.615992
     45          1           0      -14.155136    2.404247   -0.327730
     46          1           0      -12.773772    2.075446   -1.340062
     47          1           0       14.000970   -3.151443    0.521537
     48          1           0       13.918388   -1.645848   -0.491676
     49          1           0      -13.042890    1.922941    1.580778
     50          1           0      -11.955989    3.176900    0.832251
     51          1           0       11.552522   -3.490958    0.129062
     52          1           0       12.053523   -3.196837   -1.473005
     53          1           0      -11.426942    0.452804   -2.491429
     54          1           0      -12.195069   -1.290426   -2.599519
     55          1           0      -10.513771   -0.970505   -2.039187
     56          1           0      -13.140436   -2.270497    0.627390
     57          1           0      -11.646785   -2.660979   -0.645364
     58          1           0      -13.373604   -2.295843   -0.964742
     59          1           0       13.316612    0.612886   -0.740810
     60          1           0       13.877809    1.409129    0.776123
     61          1           0       12.313617    1.871122   -0.081915
     62          1           0       10.844276   -0.005837    2.652422
     63          1           0       11.123162    1.687172    1.663733
     64          1           0       12.350363    0.897283    2.881585
     65          1           0       -9.914363   -2.001204    0.629282
     66          1           0        9.995167    1.630755   -0.447998
     67          1           0       -9.353277    0.822802    2.342857
     68          1           0      -10.374516    2.305514    2.692511
     69          1           0       -9.265603    2.590132    1.550611
     70          1           0        9.047212   -1.175207   -1.749436
     71          1           0        9.402043   -3.003522   -1.094379
     72          1           0       10.404551   -2.256724   -2.587686
     73          1           0       -8.301138    0.495864    0.308674
     74          1           0        8.050333   -0.539903    0.313495
     75          1           0       -8.265458   -2.714082    1.448566
     76          1           0       -6.682632   -3.338145    1.010693
     77          1           0       -8.076755   -3.336935   -0.082240
     78          1           0        8.399897    2.839034   -1.871323
     79          1           0        8.994639    3.013402   -0.120428
     80          1           0        7.301075    3.525972   -0.629076
     81          1           0       -6.145818    0.391015   -0.119241
     82          1           0        6.058205   -0.222284    0.234919
     83          1           0       -4.904599   -2.501466    0.360800
     84          1           0        5.175741    2.680788   -0.532431
     85          1           0       -3.688932    0.374664   -0.230625
     86          1           0        3.615129    0.187870   -0.353117
     87          1           0       -2.914633   -2.825013    1.550871
     88          1           0       -1.270800   -3.199833    0.702834
     89          1           0       -2.819679   -3.318837   -0.243382
     90          1           0        3.133651    3.592187   -1.505161
     91          1           0        3.138767    3.986991    0.264673
     92          1           0        1.613497    3.712450   -0.815436
     93          1           0       -0.129181   -1.225585    0.050758
     94          1           0        1.504574    0.157538   -0.135679
     95          1           0       -2.260863    1.058876   -0.693850
     96          1           0       -0.169376    2.703502   -0.527338
 ---------------------------------------------------------------------

 SCF Done:  E(RB3LYP) =  -1557.57777365     A.U. after   16 cycles

 Excitation energies and oscillator strengths:

 Excited State   1:      Singlet-A      2.0832 eV  595.17 nm  f=3.0247  <S**2>=0.000
     148 ->149         0.71217
     148 <-149        -0.12092
 This state for optimization and/or second-order correction.
 Total Energy, E(TD-HF/TD-DFT) =  -1557.50121870
 Copying the excited state density for this state as the 1-particle RhoCI density.

 The electronic state is 1-A.
 Alpha  occ. eigenvalues --  -10.21117 -10.20399 -10.20326 -10.20314 -10.20240
 Alpha  occ. eigenvalues --  -10.20052 -10.20019 -10.19934 -10.19680 -10.19594
 Alpha  occ. eigenvalues --  -10.19569 -10.19552 -10.19516 -10.19294 -10.19216
 Alpha  occ. eigenvalues --  -10.19164 -10.19115 -10.19070 -10.19004 -10.18959
 Alpha  occ. eigenvalues --  -10.18944 -10.18547 -10.18527 -10.18472 -10.18410
 Alpha  occ. eigenvalues --  -10.18333 -10.18298 -10.18242 -10.18210 -10.18172
 Alpha  occ. eigenvalues --  -10.17960 -10.17735 -10.17726 -10.17710 -10.17550
 Alpha  occ. eigenvalues --  -10.17309 -10.17286 -10.17197 -10.17128 -10.17101
 Alpha  occ. eigenvalues --   -0.85635  -0.84966  -0.83883  -0.83450  -0.82712
 Alpha  occ. eigenvalues --   -0.81996  -0.79339  -0.78812  -0.78370  -0.77097
 Alpha  occ. eigenvalues --   -0.76907  -0.75153  -0.74720  -0.71999  -0.71702
 Alpha  occ. eigenvalues --   -0.70885  -0.69347  -0.68373  -0.68123  -0.67340
 Alpha  occ. eigenvalues --   -0.67237  -0.67143  -0.66671  -0.66363  -0.66096
 Alpha  occ. eigenvalues --   -0.63445  -0.62397  -0.59815  -0.59272  -0.57055
 Alpha  occ. eigenvalues --   -0.56711  -0.55442  -0.54607  -0.54162  -0.53620
 Alpha  occ. eigenvalues --   -0.51959  -0.51577  -0.50781  -0.50135  -0.49707
 Alpha  occ. eigenvalues --   -0.48715  -0.47783  -0.47571  -0.46908  -0.46484
 Alpha  occ. eigenvalues --   -0.45695  -0.45062  -0.44844  -0.44727  -0.44603
 Alpha  occ. eigenvalues --   -0.43758  -0.43300  -0.42877  -0.42318  -0.42102
 Alpha  occ. eigenvalues --   -0.41903  -0.41674  -0.41258  -0.40996  -0.40872
 Alpha  occ. eigenvalues --   -0.40819  -0.40349  -0.40228  -0.40044  -0.39359
 Alpha  occ. eigenvalues --   -0.39126  -0.38537  -0.38486  -0.38333  -0.37779
 Alpha  occ. eigenvalues --   -0.37639  -0.37147  -0.37120  -0.36839  -0.36469
 Alpha  occ. eigenvalues --   -0.36323  -0.36129  -0.35735  -0.35618  -0.35338
 Alpha  occ. eigenvalues --   -0.34954  -0.34619  -0.34541  -0.34323  -0.33929
 Alpha  occ. eigenvalues --   -0.33770  -0.33448  -0.33295  -0.33048  -0.32682
 Alpha  occ. eigenvalues --   -0.32169  -0.31959  -0.31724  -0.30969  -0.30457
 Alpha  occ. eigenvalues --   -0.30409  -0.29947  -0.29817  -0.29127  -0.28859
 Alpha  occ. eigenvalues --   -0.28272  -0.27325  -0.26293  -0.24860  -0.22974
 Alpha  occ. eigenvalues --   -0.21548  -0.19108  -0.16316
 Alpha virt. eigenvalues --   -0.08725  -0.05662  -0.01079   0.00499   0.03231
 Alpha virt. eigenvalues --    0.04218   0.05827   0.06410   0.06467   0.07092
 Alpha virt. eigenvalues --    0.07263   0.07882   0.08185   0.08548   0.08906

 Mulliken charges:
               1
     1  C   -0.009107
     2  C   -0.026710
     3  C   -0.171154
     4  C   -0.172490
     5  C   -0.185783
     6  C   -0.196124
     7  C    0.097528
     8  C    0.110287
     9  C   -0.227123
    10  C   -0.206638
    11  C    0.092923
    12  C    0.067841
    13  C   -0.310974
    14  C   -0.321245
    15  C   -0.292382
    16  C   -0.275689
    17  C   -0.155295
    18  C   -0.168239
    19  C   -0.372113
    20  C   -0.341837
    21  C   -0.082007
    22  C   -0.086426
    23  C    0.140699
    24  C    0.147107
    25  C   -0.402524
    26  C   -0.386047
    27  C   -0.121215
    28  C   -0.117774
    29  C   -0.096353
    30  C   -0.089746
    31  C   -0.132255
    32  C   -0.091770
    33  C    0.140468
    34  C    0.102713
    35  C   -0.370102
    36  C   -0.337464
    37  C   -0.119581
    38  C   -0.099942
    39  C   -0.079140
    40  C   -0.112871
    41  H    0.102325
    42  H    0.069538
    43  H    0.098243
    44  H    0.076628
    45  H    0.092988
    46  H    0.102043
    47  H    0.072683
    48  H    0.098821
    49  H    0.112107
    50  H    0.095492
    51  H    0.089184
    52  H    0.105416
    53  H    0.103586
    54  H    0.100439
    55  H    0.106496
    56  H    0.096863
    57  H    0.091801
    58  H    0.110374
    59  H    0.110722
    60  H    0.092000
    61  H    0.078372
    62  H    0.095999
    63  H    0.089082
    64  H    0.093789
    65  H    0.086972
    66  H    0.075434
    67  H    0.106866
    68  H    0.105505
    69  H    0.059167
    70  H    0.118702
    71  H    0.090079
    72  H    0.097920
    73  H    0.077254
    74  H    0.076339
    75  H    0.117598
    76  H    0.096660
    77  H    0.130424
    78  H    0.104485
    79  H    0.138498
    80  H    0.110718
    81  H    0.067877
    82  H    0.040371
    83  H    0.081598
    84  H    0.061224
    85  H    0.082239
    86  H    0.075226
    87  H    0.100269
    88  H    0.091741
    89  H    0.124370
    90  H    0.138946
    91  H    0.095271
    92  H    0.121557
    93  H    0.072251
    94  H    0.073546
    95  H    0.098852
    96  H    0.055604
 Sum of Mulliken charges =  -0.00000

 Dipole moment (field-independent basis, Debye):
    X=              0.2089    Y=              0.3410    Z=             -0.2747  Tot=              0.4851
 Quadrupole moment (field-independent basis, Debye-Ang):
   XX=           -219.1916   YY=           -234.7556   ZZ=           -256.8025
   XY=              2.1885   XZ=             -4.2159   YZ=             -3.0156

 Normal termination of Gaussian 16 at Mon Jul 29 06:55:43 2019.
