 Gaussian 16, Revision A.03,
 Gaussian 16:  ES64L-G16RevA.03 25-Dec-2016

 ---------------------------------
 # td=(NStates=1) B3LYP/6-31G(d,p)
 ---------------------------------

 --
 TD
 --
 Symbolic Z-matrix:
 Charge =  0 Multiplicity = 1

                         Standard orientation:
 ---------------------------------------------------------------------
 Center     Atomic      Atomic             Coordinates (Angstroms)
 Number     Number       Type             X           Y           Z
 ---------------------------------------------------------------------
      1          6           0       12.158016    0.649008   -0.732714
      2          6           0      -12.108382   -0.130415    0.822115
      3          6           0       13.536948   -0.198743   -0.439091
      4          6           0      -13.019343    1.097274    1.411452
      5          6           0       13.354165   -1.698458   -0.440120
      6          6           0      -13.337921    2.237344    0.358673
      7          6           0       11.056587    0.053958    0.368265
      8          6           0      -10.942216    0.472201   -0.024792
      9          6           0       12.469067   -2.014529    0.817466
     10          6           0      -12.015175    2.686811   -0.277175
     11          6           0       11.168745   -1.100313    1.032355
     12          6           0      -11.023948    1.690378   -0.613098
     13          6           0       11.560202    0.308212   -2.112981
     14          6           0       12.479513    2.101143   -0.511890
     15          6           0      -12.993259   -0.947584   -0.053432
     16          6           0      -11.591829   -1.023197    1.993837
     17          6           0        9.819954    0.858841    0.423537
     18          6           0       -9.920869   -0.567246   -0.285576
     19          6           0       10.208470   -1.608360    2.076509
     20          6           0       -9.895349    2.272785   -1.598878
     21          6           0        8.526124    0.439078    0.429628
     22          6           0       -8.634022   -0.387108   -0.254283
     23          6           0        7.396912    1.237471    0.451209
     24          6           0       -7.518544   -1.257355   -0.403295
     25          6           0        7.536754    2.666137    0.763867
     26          6           0       -7.884257   -2.711431   -0.642912
     27          6           0        6.145147    0.698234    0.131839
     28          6           0       -6.159044   -0.881077   -0.451891
     29          6           0        4.875675    1.376617    0.106907
     30          6           0       -4.960236   -1.646969   -0.529502
     31          6           0        3.687237    0.629758    0.114717
     32          6           0       -3.858930   -1.053055   -0.351280
     33          6           0        2.373194    1.128769    0.112186
     34          6           0       -2.599462   -1.842645   -0.379818
     35          6           0        2.277844    2.698670    0.417462
     36          6           0       -2.676628   -3.387586   -0.775616
     37          6           0        1.207259    0.454079   -0.026052
     38          6           0       -1.373791   -1.189765   -0.293005
     39          6           0        1.091575   -0.938931   -0.281989
     40          6           0       -0.037465   -1.639169   -0.297182
     41          1           0       13.716779    0.076390    0.470127
     42          1           0       14.302455    0.054301   -1.214071
     43          1           0      -12.615115    1.668135    2.299227
     44          1           0      -13.858189    0.584608    2.170178
     45          1           0       14.306572   -2.164029   -0.423915
     46          1           0       12.846951   -1.917264   -1.396871
     47          1           0      -13.855473    3.146503    0.967303
     48          1           0      -14.119642    1.921252   -0.421612
     49          1           0       13.006512   -1.980028    1.768295
     50          1           0       11.892550   -2.946303    0.643224
     51          1           0      -11.563558    3.553462    0.180161
     52          1           0      -12.423242    3.326342   -1.152944
     53          1           0       11.194825   -0.857227   -2.260959
     54          1           0       12.334272    0.466977   -3.002414
     55          1           0       10.615931    0.997452   -2.198918
     56          1           0       12.745932    2.451070    0.451813
     57          1           0       11.533056    2.778631   -0.884540
     58          1           0       13.173150    2.442362   -1.326444
     59          1           0      -13.312768   -0.639268   -1.024416
     60          1           0      -14.012388   -1.380576    0.412083
     61          1           0      -12.483640   -1.924812   -0.236266
     62          1           0      -10.733893   -0.450595    2.413393
     63          1           0      -11.261566   -2.020133    1.806181
     64          1           0      -12.561860   -1.094507    2.612740
     65          1           0       10.003328    1.936035    0.356937
     66          1           0      -10.293071   -1.408257   -0.447146
     67          1           0        9.418676   -0.942855    2.599991
     68          1           0       10.889066   -1.936108    3.031616
     69          1           0        9.574515   -2.405065    1.376378
     70          1           0       -9.475293    1.383341   -1.923239
     71          1           0       -8.974863    2.737136   -1.066983
     72          1           0      -10.319014    2.837735   -2.451300
     73          1           0        8.377038   -0.655840    0.220418
     74          1           0       -8.297012    0.944068    0.034521
     75          1           0        8.123703    2.783540    1.625233
     76          1           0        6.639722    3.009950    0.808838
     77          1           0        8.124350    3.202166   -0.144181
     78          1           0       -8.834470   -2.781484   -1.395045
     79          1           0       -8.251587   -3.204278    0.370699
     80          1           0       -6.801254   -3.277501   -0.848015
     81          1           0        6.034210   -0.301372   -0.235845
     82          1           0       -6.187927    0.219761   -0.158164
     83          1           0        4.900405    2.457618    0.281187
     84          1           0       -5.099061   -2.689341   -0.706908
     85          1           0        3.698160   -0.368612   -0.169518
     86          1           0       -3.844309    0.033941   -0.144436
     87          1           0        2.490143    3.088404    1.441937
     88          1           0        1.280134    3.175513    0.379825
     89          1           0        2.869110    3.290929   -0.338518
     90          1           0       -3.041166   -3.194449   -1.780678
     91          1           0       -3.324146   -4.088314   -0.022847
     92          1           0       -1.731722   -3.896957   -0.924552
     93          1           0        0.284715    1.183163    0.029316
     94          1           0       -1.458075   -0.151902   -0.133034
     95          1           0        2.008103   -1.591874   -0.231636
     96          1           0        0.077642   -2.678813   -0.418923
 ---------------------------------------------------------------------

 SCF Done:  E(RB3LYP) =  -1557.54793145     A.U. after   15 cycles

 Excitation energies and oscillator strengths:

 Excited State   1:      Singlet-A      2.2138 eV  560.05 nm  f=3.1185  <S**2>=0.000
     148 ->149         0.70491
 This state for optimization and/or second-order correction.
 Total Energy, E(TD-HF/TD-DFT) =  -1557.46657486
 Copying the excited state density for this state as the 1-particle RhoCI density.

 The electronic state is 1-A.
 Alpha  occ. eigenvalues --  -10.21225 -10.21159 -10.21134 -10.21063 -10.20576
 Alpha  occ. eigenvalues --  -10.20224 -10.20211 -10.20169 -10.20049 -10.20046
 Alpha  occ. eigenvalues --  -10.19850 -10.19589 -10.19575 -10.19431 -10.19334
 Alpha  occ. eigenvalues --  -10.19277 -10.19234 -10.19185 -10.19160 -10.18958
 Alpha  occ. eigenvalues --  -10.18861 -10.18853 -10.18556 -10.18440 -10.18435
 Alpha  occ. eigenvalues --  -10.18371 -10.18329 -10.18309 -10.18222 -10.18130
 Alpha  occ. eigenvalues --  -10.18077 -10.17879 -10.17868 -10.17819 -10.17658
 Alpha  occ. eigenvalues --  -10.17638 -10.17579 -10.17100 -10.16832 -10.16609
 Alpha  occ. eigenvalues --   -0.84658  -0.84166  -0.83960  -0.83214  -0.82514
 Alpha  occ. eigenvalues --   -0.81238  -0.79831  -0.78252  -0.77947  -0.77245
 Alpha  occ. eigenvalues --   -0.76675  -0.75373  -0.74115  -0.72303  -0.71893
 Alpha  occ. eigenvalues --   -0.69522  -0.68568  -0.67621  -0.67509  -0.67414
 Alpha  occ. eigenvalues --   -0.66906  -0.66591  -0.66389  -0.66332  -0.65985
 Alpha  occ. eigenvalues --   -0.63022  -0.62313  -0.59711  -0.59125  -0.57341
 Alpha  occ. eigenvalues --   -0.56588  -0.55912  -0.54761  -0.54151  -0.53881
 Alpha  occ. eigenvalues --   -0.52345  -0.51788  -0.50660  -0.50085  -0.48790
 Alpha  occ. eigenvalues --   -0.48559  -0.47671  -0.46727  -0.46294  -0.45928
 Alpha  occ. eigenvalues --   -0.45610  -0.44998  -0.44472  -0.43955  -0.43602
 Alpha  occ. eigenvalues --   -0.43484  -0.43106  -0.42771  -0.42409  -0.41998
 Alpha  occ. eigenvalues --   -0.41910  -0.41662  -0.41399  -0.41163  -0.40782
 Alpha  occ. eigenvalues --   -0.40393  -0.40194  -0.39917  -0.39697  -0.39586
 Alpha  occ. eigenvalues --   -0.39251  -0.39217  -0.38510  -0.38168  -0.38079
 Alpha  occ. eigenvalues --   -0.37846  -0.37153  -0.36935  -0.36660  -0.36148
 Alpha  occ. eigenvalues --   -0.36013  -0.35603  -0.35259  -0.35016  -0.34952
 Alpha  occ. eigenvalues --   -0.34848  -0.34282  -0.34258  -0.34216  -0.33953
 Alpha  occ. eigenvalues --   -0.33653  -0.33343  -0.33239  -0.32831  -0.32479
 Alpha  occ. eigenvalues --   -0.32037  -0.31504  -0.30961  -0.30826  -0.30692
 Alpha  occ. eigenvalues --   -0.30155  -0.29921  -0.29732  -0.29454  -0.29160
 Alpha  occ. eigenvalues --   -0.27354  -0.27139  -0.26709  -0.24469  -0.23155
 Alpha  occ. eigenvalues --   -0.21400  -0.18974  -0.16489
 Alpha virt. eigenvalues --   -0.08142  -0.05250  -0.01660   0.01135   0.02683
 Alpha virt. eigenvalues --    0.04719   0.05263   0.06214   0.06457   0.07012
 Alpha virt. eigenvalues --    0.07266   0.07741   0.08164   0.08462   0.08757

 Mulliken charges:
               1
     1  C    0.009086
     2  C   -0.009757
     3  C   -0.160242
     4  C   -0.167663
     5  C   -0.183230
     6  C   -0.191440
     7  C    0.062470
     8  C    0.047358
     9  C   -0.221441
    10  C   -0.216788
    11  C    0.015900
    12  C    0.068655
    13  C   -0.278804
    14  C   -0.302312
    15  C   -0.282813
    16  C   -0.304553
    17  C   -0.141281
    18  C   -0.091521
    19  C   -0.328151
    20  C   -0.364097
    21  C   -0.086164
    22  C   -0.053634
    23  C    0.111245
    24  C    0.105178
    25  C   -0.339819
    26  C   -0.359882
    27  C   -0.122478
    28  C   -0.131107
    29  C   -0.092304
    30  C   -0.040568
    31  C   -0.105705
    32  C   -0.088199
    33  C    0.114025
    34  C    0.061097
    35  C   -0.383709
    36  C   -0.367784
    37  C   -0.118841
    38  C   -0.102406
    39  C   -0.096370
    40  C   -0.076928
    41  H    0.103004
    42  H    0.073608
    43  H    0.089317
    44  H    0.049524
    45  H    0.099894
    46  H    0.096815
    47  H    0.073786
    48  H    0.098479
    49  H    0.108833
    50  H    0.100948
    51  H    0.119834
    52  H    0.085000
    53  H    0.088441
    54  H    0.081409
    55  H    0.099396
    56  H    0.121692
    57  H    0.068086
    58  H    0.103747
    59  H    0.112773
    60  H    0.075171
    61  H    0.089494
    62  H    0.112544
    63  H    0.105689
    64  H    0.091707
    65  H    0.074735
    66  H    0.061138
    67  H    0.124505
    68  H    0.087456
    69  H    0.099353
    70  H    0.134873
    71  H    0.104890
    72  H    0.104584
    73  H    0.067615
    74  H    0.014366
    75  H    0.125621
    76  H    0.104278
    77  H    0.095187
    78  H    0.104436
    79  H    0.107014
    80  H    0.083086
    81  H    0.074310
    82  H    0.067270
    83  H    0.091828
    84  H    0.092841
    85  H    0.073726
    86  H    0.093642
    87  H    0.114752
    88  H    0.094756
    89  H    0.109376
    90  H    0.139581
    91  H    0.101717
    92  H    0.116086
    93  H    0.085023
    94  H    0.066543
    95  H    0.085419
    96  H    0.065783
 Sum of Mulliken charges =  -0.00000

 Dipole moment (field-independent basis, Debye):
    X=              2.0550    Y=             -0.1693    Z=             -0.0960  Tot=              2.0642
 Quadrupole moment (field-independent basis, Debye-Ang):
   XX=           -223.7810   YY=           -235.9155   ZZ=           -255.0752
   XY=              1.3117   XZ=              4.1061   YZ=              2.5733

 Normal termination of Gaussian 16 at Sun Jul 28 16:16:06 2019.
