 Gaussian 16, Revision A.03,
 Gaussian 16:  ES64L-G16RevA.03 25-Dec-2016

 ---------------------------------
 # td=(NStates=1) B3LYP/6-31G(d,p)
 ---------------------------------

 --
 TD
 --
 Symbolic Z-matrix:
 Charge =  0 Multiplicity = 1

                         Standard orientation:
 ---------------------------------------------------------------------
 Center     Atomic      Atomic             Coordinates (Angstroms)
 Number     Number       Type             X           Y           Z
 ---------------------------------------------------------------------
      1          6           0       12.289071    0.496482   -0.671761
      2          6           0      -12.252617   -0.157532    0.825484
      3          6           0       13.620216   -0.171374   -0.541717
      4          6           0      -13.147559    1.024911    1.351905
      5          6           0       13.263071   -1.746743   -0.552259
      6          6           0      -13.487400    2.074726    0.198111
      7          6           0       11.052180   -0.005615    0.226603
      8          6           0      -11.037916    0.343740   -0.133068
      9          6           0       12.491996   -2.086763    0.780031
     10          6           0      -12.226523    2.559424   -0.392485
     11          6           0       11.285426   -1.204516    0.921536
     12          6           0      -11.087609    1.551343   -0.685656
     13          6           0       11.726282    0.528088   -2.136797
     14          6           0       12.604913    1.985846   -0.318005
     15          6           0      -13.137547   -1.153887   -0.069378
     16          6           0      -11.668688   -0.906780    1.996386
     17          6           0        9.832557    0.783893    0.252777
     18          6           0       -9.954880   -0.567703   -0.329725
     19          6           0       10.310432   -1.707760    1.919602
     20          6           0      -10.013425    2.206464   -1.640262
     21          6           0        8.576187    0.329661    0.191237
     22          6           0       -8.639352   -0.262810   -0.261749
     23          6           0        7.443378    1.146549    0.193635
     24          6           0       -7.569271   -1.256101   -0.483164
     25          6           0        7.606183    2.701302    0.514671
     26          6           0       -7.768972   -2.715982   -0.688464
     27          6           0        6.178375    0.664044    0.224565
     28          6           0       -6.243400   -0.782866   -0.309383
     29          6           0        4.867448    1.313464    0.440821
     30          6           0       -5.039739   -1.543866   -0.387666
     31          6           0        3.708029    0.775882    0.176068
     32          6           0       -3.824576   -1.021065   -0.261845
     33          6           0        2.365713    1.302886    0.439925
     34          6           0       -2.629057   -1.694281   -0.397438
     35          6           0        2.453526    2.779958    0.794252
     36          6           0       -2.653943   -3.146483   -0.609912
     37          6           0        1.227843    0.590955    0.273694
     38          6           0       -1.402548   -0.990114   -0.406944
     39          6           0        1.054363   -0.796555   -0.112126
     40          6           0       -0.034148   -1.465673   -0.302172
     41          1           0       13.995078   -0.020470    0.564239
     42          1           0       14.266690   -0.183268   -1.484025
     43          1           0      -12.549503    1.585852    2.146385
     44          1           0      -14.001252    0.920589    1.900718
     45          1           0       14.161118   -2.425634   -0.659334
     46          1           0       12.524471   -1.919383   -1.420088
     47          1           0      -14.105230    2.760576    0.710546
     48          1           0      -14.122962    1.516287   -0.593077
     49          1           0       13.124020   -2.045397    1.544133
     50          1           0       12.012514   -3.202112    0.384494
     51          1           0      -11.993365    3.633027    0.123350
     52          1           0      -12.584113    2.874776   -1.355491
     53          1           0       11.605795   -0.469100   -2.660024
     54          1           0       12.336078    1.094489   -2.897887
     55          1           0       10.700555    1.017249   -2.450336
     56          1           0       12.548766    2.019235    0.758585
     57          1           0       11.817750    2.888857   -0.769319
     58          1           0       13.663195    2.077689   -0.885972
     59          1           0      -13.744131   -0.545988   -0.873801
     60          1           0      -13.747938   -1.798787    0.704338
     61          1           0      -12.462048   -1.847707   -0.641860
     62          1           0      -10.758295   -0.381385    2.365498
     63          1           0      -11.379724   -2.100583    1.746644
     64          1           0      -12.328389   -1.081002    2.725113
     65          1           0        9.864513    1.816654    0.264687
     66          1           0      -10.354775   -1.551382   -0.502803
     67          1           0        9.512606   -0.932033    2.365303
     68          1           0       10.984516   -2.105373    2.725329
     69          1           0        9.802813   -2.634616    1.537276
     70          1           0       -9.433793    1.298610   -2.126976
     71          1           0       -9.225791    2.712342   -1.022828
     72          1           0      -10.604484    2.896331   -2.356048
     73          1           0        8.250869   -0.655455   -0.065170
     74          1           0       -8.422098    0.758401    0.026845
     75          1           0        8.197244    2.461610    1.604344
     76          1           0        6.685661    3.151619    0.641074
     77          1           0        8.272347    3.365719   -0.044831
     78          1           0       -8.112898   -2.822610   -1.760348
     79          1           0       -8.545045   -3.050786    0.116735
     80          1           0       -6.813106   -3.277259   -0.740684
     81          1           0        5.998991   -0.375206    0.191372
     82          1           0       -6.023043    0.358266   -0.183785
     83          1           0        4.750775    2.429722    0.900011
     84          1           0       -4.962287   -2.543707   -0.396730
     85          1           0        3.885972   -0.317174   -0.249789
     86          1           0       -3.671490    0.052993   -0.153619
     87          1           0        3.010524    2.995697    1.697752
     88          1           0        1.415665    3.167261    1.004321
     89          1           0        2.941893    3.205646   -0.139514
     90          1           0       -3.260446   -3.473810   -1.534863
     91          1           0       -3.271106   -3.784094    0.235680
     92          1           0       -1.667268   -3.572859   -0.754827
     93          1           0        0.203884    1.112570    0.427216
     94          1           0       -1.250881    0.056069   -0.217805
     95          1           0        2.012326   -1.191333   -0.095142
     96          1           0        0.020744   -2.570527   -0.550973
 ---------------------------------------------------------------------

 SCF Done:  E(RB3LYP) =  -1557.58418955     A.U. after   14 cycles

 Excitation energies and oscillator strengths:

 Excited State   1:      Singlet-A      2.3584 eV  525.71 nm  f=2.9933  <S**2>=0.000
     148 ->149         0.69454
 This state for optimization and/or second-order correction.
 Total Energy, E(TD-HF/TD-DFT) =  -1557.49752023
 Copying the excited state density for this state as the 1-particle RhoCI density.

 The electronic state is 1-A.
 Alpha  occ. eigenvalues --  -10.20825 -10.20713 -10.20649 -10.20480 -10.20088
 Alpha  occ. eigenvalues --  -10.19972 -10.19889 -10.19722 -10.19720 -10.19653
 Alpha  occ. eigenvalues --  -10.19636 -10.19509 -10.19445 -10.19440 -10.19405
 Alpha  occ. eigenvalues --  -10.19384 -10.19366 -10.19299 -10.19202 -10.19137
 Alpha  occ. eigenvalues --  -10.19111 -10.19076 -10.19061 -10.18993 -10.18940
 Alpha  occ. eigenvalues --  -10.18717 -10.18703 -10.18506 -10.18468 -10.18286
 Alpha  occ. eigenvalues --  -10.18202 -10.18134 -10.18068 -10.17896 -10.17788
 Alpha  occ. eigenvalues --  -10.17779 -10.17538 -10.17515 -10.17496 -10.17402
 Alpha  occ. eigenvalues --   -0.84672  -0.84453  -0.84085  -0.83575  -0.82525
 Alpha  occ. eigenvalues --   -0.81482  -0.80066  -0.78419  -0.77881  -0.77364
 Alpha  occ. eigenvalues --   -0.77148  -0.75287  -0.74370  -0.72127  -0.71822
 Alpha  occ. eigenvalues --   -0.70163  -0.68121  -0.68058  -0.67693  -0.67070
 Alpha  occ. eigenvalues --   -0.66858  -0.66703  -0.66667  -0.66169  -0.65867
 Alpha  occ. eigenvalues --   -0.62910  -0.61870  -0.59752  -0.58538  -0.57019
 Alpha  occ. eigenvalues --   -0.56681  -0.55313  -0.54452  -0.54048  -0.53424
 Alpha  occ. eigenvalues --   -0.52856  -0.52089  -0.51207  -0.50476  -0.49808
 Alpha  occ. eigenvalues --   -0.48353  -0.47458  -0.46812  -0.46202  -0.45765
 Alpha  occ. eigenvalues --   -0.45436  -0.45250  -0.44859  -0.44458  -0.44031
 Alpha  occ. eigenvalues --   -0.43467  -0.43100  -0.42795  -0.42339  -0.42268
 Alpha  occ. eigenvalues --   -0.41932  -0.41364  -0.41035  -0.40800  -0.40366
 Alpha  occ. eigenvalues --   -0.40202  -0.40114  -0.39951  -0.39864  -0.39417
 Alpha  occ. eigenvalues --   -0.39252  -0.38714  -0.38655  -0.38276  -0.38131
 Alpha  occ. eigenvalues --   -0.37907  -0.37826  -0.37433  -0.37275  -0.37036
 Alpha  occ. eigenvalues --   -0.36738  -0.35883  -0.35627  -0.35113  -0.34585
 Alpha  occ. eigenvalues --   -0.34340  -0.34294  -0.34228  -0.34003  -0.33807
 Alpha  occ. eigenvalues --   -0.33638  -0.33489  -0.33037  -0.32929  -0.32315
 Alpha  occ. eigenvalues --   -0.32097  -0.32017  -0.31307  -0.30834  -0.30412
 Alpha  occ. eigenvalues --   -0.30065  -0.29992  -0.29375  -0.29006  -0.28415
 Alpha  occ. eigenvalues --   -0.28041  -0.27160  -0.26272  -0.24441  -0.23146
 Alpha  occ. eigenvalues --   -0.21522  -0.19130  -0.16973
 Alpha virt. eigenvalues --   -0.07943  -0.05233  -0.01882   0.00636   0.03112
 Alpha virt. eigenvalues --    0.04271   0.06205   0.06660   0.07101   0.07542
 Alpha virt. eigenvalues --    0.07817   0.07978   0.08203   0.08786   0.09096

 Mulliken charges:
               1
     1  C    0.024700
     2  C    0.028928
     3  C   -0.191848
     4  C   -0.184712
     5  C   -0.205857
     6  C   -0.191113
     7  C    0.069219
     8  C    0.049319
     9  C   -0.211339
    10  C   -0.202037
    11  C    0.057289
    12  C    0.044889
    13  C   -0.310995
    14  C   -0.276941
    15  C   -0.293727
    16  C   -0.296053
    17  C   -0.131292
    18  C   -0.119531
    19  C   -0.346304
    20  C   -0.353264
    21  C   -0.067612
    22  C   -0.090032
    23  C    0.119527
    24  C    0.098994
    25  C   -0.359169
    26  C   -0.367082
    27  C   -0.158234
    28  C   -0.123850
    29  C   -0.065661
    30  C   -0.054498
    31  C   -0.104518
    32  C   -0.099796
    33  C    0.102717
    34  C    0.158231
    35  C   -0.378515
    36  C   -0.392723
    37  C   -0.136678
    38  C   -0.131872
    39  C   -0.049458
    40  C   -0.091291
    41  H    0.095354
    42  H    0.113792
    43  H    0.075252
    44  H    0.095209
    45  H    0.078444
    46  H    0.098239
    47  H    0.096103
    48  H    0.082145
    49  H    0.120305
    50  H    0.076497
    51  H    0.079250
    52  H    0.102613
    53  H    0.090273
    54  H    0.084893
    55  H    0.098018
    56  H    0.109260
    57  H    0.059173
    58  H    0.091672
    59  H    0.094162
    60  H    0.086181
    61  H    0.097862
    62  H    0.110877
    63  H    0.053088
    64  H    0.114205
    65  H    0.089621
    66  H    0.081060
    67  H    0.103706
    68  H    0.094756
    69  H    0.108708
    70  H    0.109107
    71  H    0.118559
    72  H    0.098846
    73  H    0.080875
    74  H    0.092277
    75  H    0.087391
    76  H    0.114728
    77  H    0.119096
    78  H    0.121100
    79  H    0.117512
    80  H    0.118153
    81  H    0.076748
    82  H    0.070627
    83  H    0.065222
    84  H    0.066175
    85  H    0.064215
    86  H    0.065996
    87  H    0.131621
    88  H    0.100583
    89  H    0.128933
    90  H    0.113489
    91  H    0.097748
    92  H    0.114477
    93  H    0.066827
    94  H    0.067286
    95  H    0.078565
    96  H    0.065314
 Sum of Mulliken charges =  -0.00000

 Dipole moment (field-independent basis, Debye):
    X=             -0.0059    Y=             -0.3701    Z=              0.3574  Tot=              0.5145
 Quadrupole moment (field-independent basis, Debye-Ang):
   XX=           -215.8966   YY=           -238.9841   ZZ=           -254.5487
   XY=             -6.2388   XZ=             -2.5905   YZ=              3.5496

 Normal termination of Gaussian 16 at Mon Jul 29 14:37:21 2019.
