 Gaussian 16, Revision A.03,
 Gaussian 16:  ES64L-G16RevA.03 25-Dec-2016

 ---------------------------------
 # td=(NStates=1) B3LYP/6-31G(d,p)
 ---------------------------------

 --
 TD
 --
 Symbolic Z-matrix:
 Charge =  0 Multiplicity = 1

                         Standard orientation:
 ---------------------------------------------------------------------
 Center     Atomic      Atomic             Coordinates (Angstroms)
 Number     Number       Type             X           Y           Z
 ---------------------------------------------------------------------
      1          6           0       12.066929    0.436117   -0.805135
      2          6           0      -12.127537   -0.170067    0.729841
      3          6           0       13.379423   -0.376790   -0.820915
      4          6           0      -12.946906    0.969507    1.175826
      5          6           0       12.922602   -1.889778   -0.747533
      6          6           0      -13.267443    1.981829    0.039470
      7          6           0       11.005097    0.040594    0.199889
      8          6           0      -11.009867    0.452081   -0.127251
      9          6           0       12.274583   -2.237823    0.657893
     10          6           0      -12.081839    2.690965   -0.455696
     11          6           0       11.122357   -1.207987    0.797245
     12          6           0      -10.958241    1.737080   -0.585086
     13          6           0       11.253685    0.449226   -2.222132
     14          6           0       12.483069    1.992755   -0.649219
     15          6           0      -12.904321   -1.251812   -0.208047
     16          6           0      -11.648597   -0.989179    1.876424
     17          6           0        9.864657    0.919532    0.488319
     18          6           0       -9.867418   -0.524529   -0.271940
     19          6           0       10.254092   -1.582956    2.022611
     20          6           0       -9.857467    2.321921   -1.562807
     21          6           0        8.516303    0.437257    0.271386
     22          6           0       -8.516893   -0.323177   -0.151250
     23          6           0        7.392720    1.387599    0.526148
     24          6           0       -7.435996   -1.196260   -0.405044
     25          6           0        7.665967    2.794113    0.808464
     26          6           0       -7.860895   -2.592441   -0.770442
     27          6           0        6.051702    0.863839    0.368117
     28          6           0       -6.089556   -0.829115   -0.225754
     29          6           0        4.767445    1.405697    0.517795
     30          6           0       -4.945628   -1.578535   -0.416116
     31          6           0        3.666904    0.701167    0.306427
     32          6           0       -3.704200   -1.099815   -0.087894
     33          6           0        2.322645    1.275874    0.353112
     34          6           0       -2.476801   -1.854429   -0.316191
     35          6           0        2.192638    2.780999    0.532959
     36          6           0       -2.460035   -3.286598   -0.603425
     37          6           0        1.216748    0.582008    0.262887
     38          6           0       -1.378823   -1.125559   -0.050856
     39          6           0        1.172191   -0.773431   -0.084696
     40          6           0        0.009718   -1.621979   -0.139422
     41          1           0       14.091250   -0.073033    0.048831
     42          1           0       13.987888   -0.127010   -1.702576
     43          1           0      -12.364657    1.543846    2.008977
     44          1           0      -13.810189    0.460809    1.648484
     45          1           0       13.961661   -2.503612   -0.811156
     46          1           0       12.387197   -2.160782   -1.608607
     47          1           0      -13.943879    2.602930    0.362670
     48          1           0      -13.924820    1.517934   -0.579116
     49          1           0       12.972211   -2.103426    1.386987
     50          1           0       11.785415   -3.267529    0.342124
     51          1           0      -11.717089    3.530612    0.045679
     52          1           0      -12.037482    3.053549   -1.533495
     53          1           0       11.122258   -0.593247   -2.557504
     54          1           0       11.877853    1.115829   -2.971482
     55          1           0       10.246712    0.796817   -2.034642
     56          1           0       12.895072    2.212580    0.429306
     57          1           0       11.709847    2.728903   -0.901046
     58          1           0       13.522355    2.137138   -1.176362
     59          1           0      -13.293677   -0.935402   -1.128637
     60          1           0      -13.689332   -1.640038    0.287075
     61          1           0      -12.139454   -1.995733   -0.457295
     62          1           0      -11.033599   -0.308963    2.503528
     63          1           0      -10.954361   -1.722961    1.690994
     64          1           0      -12.423079   -1.348901    2.507102
     65          1           0       10.064248    1.992559    0.697987
     66          1           0      -10.051776   -1.589872   -0.503379
     67          1           0        9.536081   -1.006087    2.358301
     68          1           0       10.908640   -1.629251    2.946758
     69          1           0        9.687667   -2.545079    1.978037
     70          1           0       -9.142479    1.705018   -1.932735
     71          1           0       -9.328955    3.189872   -1.191826
     72          1           0      -10.224758    2.646405   -2.485468
     73          1           0        8.436555   -0.699585    0.030743
     74          1           0       -8.158751    0.714086    0.260949
     75          1           0        8.053326    2.676641    1.799807
     76          1           0        6.679796    3.398584    0.987687
     77          1           0        8.344241    3.263485    0.013440
     78          1           0       -8.416962   -2.738144   -1.652356
     79          1           0       -8.500096   -2.739693    0.203655
     80          1           0       -7.020181   -3.308409   -0.783890
     81          1           0        5.976308   -0.250463    0.073325
     82          1           0       -6.091126    0.233789    0.106487
     83          1           0        4.750662    2.495330    0.759457
     84          1           0       -5.054955   -2.629233   -0.564563
     85          1           0        3.829011   -0.325676    0.072854
     86          1           0       -3.595655    0.025935    0.350806
     87          1           0        2.688405    3.067322    1.439509
     88          1           0        1.140708    3.238955    0.785326
     89          1           0        2.712401    3.418708   -0.411320
     90          1           0       -2.929470   -3.425609   -1.613413
     91          1           0       -3.030411   -3.921637    0.289827
     92          1           0       -1.569834   -3.772697   -0.720895
     93          1           0        0.176654    1.163460    0.224716
     94          1           0       -1.383382    0.082675    0.012011
     95          1           0        1.976899   -1.213867   -0.157683
     96          1           0       -0.068980   -2.685216   -0.541774
 ---------------------------------------------------------------------

 SCF Done:  E(RB3LYP) =  -1557.58549834     A.U. after   16 cycles

 Excitation energies and oscillator strengths:

 Excited State   1:      Singlet-A      2.1200 eV  584.83 nm  f=2.7475  <S**2>=0.000
     148 ->149         0.70486
 This state for optimization and/or second-order correction.
 Total Energy, E(TD-HF/TD-DFT) =  -1557.50758961
 Copying the excited state density for this state as the 1-particle RhoCI density.

 The electronic state is 1-A.
 Alpha  occ. eigenvalues --  -10.21214 -10.20858 -10.20445 -10.19950 -10.19857
 Alpha  occ. eigenvalues --  -10.19805 -10.19676 -10.19646 -10.19607 -10.19600
 Alpha  occ. eigenvalues --  -10.19531 -10.19486 -10.19396 -10.19264 -10.19259
 Alpha  occ. eigenvalues --  -10.19192 -10.19145 -10.19109 -10.18986 -10.18891
 Alpha  occ. eigenvalues --  -10.18849 -10.18731 -10.18703 -10.18597 -10.18584
 Alpha  occ. eigenvalues --  -10.18525 -10.18412 -10.18213 -10.18169 -10.18023
 Alpha  occ. eigenvalues --  -10.17960 -10.17875 -10.17809 -10.17662 -10.17612
 Alpha  occ. eigenvalues --  -10.16209 -10.16159 -10.15818 -10.15747 -10.15589
 Alpha  occ. eigenvalues --   -0.85375  -0.84256  -0.83801  -0.83379  -0.81943
 Alpha  occ. eigenvalues --   -0.81478  -0.79429  -0.78727  -0.77466  -0.76659
 Alpha  occ. eigenvalues --   -0.76063  -0.75542  -0.74438  -0.71753  -0.70934
 Alpha  occ. eigenvalues --   -0.70063  -0.68641  -0.68409  -0.68267  -0.68104
 Alpha  occ. eigenvalues --   -0.68027  -0.67354  -0.66384  -0.66080  -0.65954
 Alpha  occ. eigenvalues --   -0.63421  -0.61904  -0.61087  -0.58601  -0.57897
 Alpha  occ. eigenvalues --   -0.56240  -0.56079  -0.55067  -0.53508  -0.53036
 Alpha  occ. eigenvalues --   -0.52016  -0.51344  -0.49915  -0.49549  -0.49149
 Alpha  occ. eigenvalues --   -0.48671  -0.47845  -0.47258  -0.46180  -0.45808
 Alpha  occ. eigenvalues --   -0.45383  -0.44911  -0.44257  -0.44037  -0.44003
 Alpha  occ. eigenvalues --   -0.43675  -0.43634  -0.43061  -0.42484  -0.42193
 Alpha  occ. eigenvalues --   -0.42118  -0.41949  -0.41580  -0.41464  -0.41105
 Alpha  occ. eigenvalues --   -0.40990  -0.40567  -0.40036  -0.39651  -0.39198
 Alpha  occ. eigenvalues --   -0.38777  -0.38515  -0.38245  -0.37872  -0.37653
 Alpha  occ. eigenvalues --   -0.37574  -0.37481  -0.37074  -0.36965  -0.36730
 Alpha  occ. eigenvalues --   -0.36139  -0.35919  -0.35886  -0.35698  -0.35430
 Alpha  occ. eigenvalues --   -0.34862  -0.34709  -0.34473  -0.34384  -0.34249
 Alpha  occ. eigenvalues --   -0.34067  -0.33353  -0.33299  -0.33192  -0.32612
 Alpha  occ. eigenvalues --   -0.32225  -0.31986  -0.31524  -0.31033  -0.30832
 Alpha  occ. eigenvalues --   -0.30554  -0.30235  -0.29103  -0.28920  -0.28224
 Alpha  occ. eigenvalues --   -0.27952  -0.27386  -0.26308  -0.23543  -0.22575
 Alpha  occ. eigenvalues --   -0.20955  -0.18351  -0.16082
 Alpha virt. eigenvalues --   -0.08019  -0.05408  -0.01919   0.01106   0.02652
 Alpha virt. eigenvalues --    0.04011   0.05462   0.07295   0.07401   0.07649
 Alpha virt. eigenvalues --    0.07983   0.08071   0.08466   0.08950   0.09316

 Mulliken charges:
               1
     1  C    0.018859
     2  C    0.005946
     3  C   -0.178488
     4  C   -0.193216
     5  C   -0.206106
     6  C   -0.177895
     7  C    0.095557
     8  C    0.084654
     9  C   -0.192880
    10  C   -0.209388
    11  C    0.019586
    12  C    0.042446
    13  C   -0.307592
    14  C   -0.318371
    15  C   -0.311725
    16  C   -0.295740
    17  C   -0.161765
    18  C   -0.163248
    19  C   -0.347995
    20  C   -0.379085
    21  C   -0.088306
    22  C   -0.094554
    23  C    0.085598
    24  C    0.112035
    25  C   -0.370620
    26  C   -0.377336
    27  C   -0.134203
    28  C   -0.111005
    29  C   -0.043798
    30  C   -0.090051
    31  C   -0.109094
    32  C   -0.105095
    33  C    0.126987
    34  C    0.130995
    35  C   -0.365227
    36  C   -0.367648
    37  C   -0.118710
    38  C   -0.106097
    39  C   -0.052470
    40  C   -0.126432
    41  H    0.080741
    42  H    0.096282
    43  H    0.078672
    44  H    0.074703
    45  H    0.052353
    46  H    0.114391
    47  H    0.093484
    48  H    0.105887
    49  H    0.126927
    50  H    0.103779
    51  H    0.116754
    52  H    0.099017
    53  H    0.094714
    54  H    0.084485
    55  H    0.118212
    56  H    0.079019
    57  H    0.104713
    58  H    0.087105
    59  H    0.102641
    60  H    0.103956
    61  H    0.100949
    62  H    0.092510
    63  H    0.108482
    64  H    0.099817
    65  H    0.098515
    66  H    0.078637
    67  H    0.119059
    68  H    0.089181
    69  H    0.089709
    70  H    0.126152
    71  H    0.107445
    72  H    0.109581
    73  H    0.102046
    74  H    0.058800
    75  H    0.142130
    76  H    0.099781
    77  H    0.123802
    78  H    0.129348
    79  H    0.110027
    80  H    0.098041
    81  H    0.058655
    82  H    0.065316
    83  H    0.075347
    84  H    0.086438
    85  H    0.088030
    86  H    0.077850
    87  H    0.125540
    88  H    0.097154
    89  H    0.090825
    90  H    0.122138
    91  H    0.100623
    92  H    0.124727
    93  H    0.071887
    94  H    0.065917
    95  H    0.056970
    96  H    0.072216
 Sum of Mulliken charges =  -0.00000

 Dipole moment (field-independent basis, Debye):
    X=             -0.0661    Y=              0.2522    Z=             -0.1626  Tot=              0.3073
 Quadrupole moment (field-independent basis, Debye-Ang):
   XX=           -219.9121   YY=           -233.9233   ZZ=           -254.0622
   XY=              0.9897   XZ=              4.8952   YZ=              4.1839

 Normal termination of Gaussian 16 at Mon Jul 29 04:42:11 2019.
