 Gaussian 16, Revision A.03,
 Gaussian 16:  ES64L-G16RevA.03 25-Dec-2016

 ---------------------------------
 # td=(NStates=1) B3LYP/6-31G(d,p)
 ---------------------------------

 --
 TD
 --
 Symbolic Z-matrix:
 Charge =  0 Multiplicity = 1

                         Standard orientation:
 ---------------------------------------------------------------------
 Center     Atomic      Atomic             Coordinates (Angstroms)
 Number     Number       Type             X           Y           Z
 ---------------------------------------------------------------------
      1          6           0      -12.168237   -0.476952   -0.702452
      2          6           0       12.064382   -0.008739    0.839157
      3          6           0      -13.460517    0.229146   -0.587464
      4          6           0       13.051542   -1.229650    1.220821
      5          6           0      -13.175093    1.715981   -0.544906
      6          6           0       13.438838   -2.098359    0.032957
      7          6           0      -10.921809   -0.006724    0.154386
      8          6           0       11.020129   -0.485451   -0.062385
      9          6           0      -12.337908    1.975644    0.762118
     10          6           0       12.228373   -2.692556   -0.636563
     11          6           0      -11.203782    1.081293    0.945697
     12          6           0       11.114565   -1.564984   -0.914326
     13          6           0      -11.702575   -0.392925   -2.204293
     14          6           0      -12.474961   -2.098912   -0.363014
     15          6           0       12.753604    1.115249    0.241753
     16          6           0       11.425716    0.402284    2.158406
     17          6           0       -9.819751   -0.831285    0.398727
     18          6           0        9.974961    0.567985   -0.282872
     19          6           0      -10.080112    1.672088    1.856620
     20          6           0       10.020019   -1.950858   -1.980560
     21          6           0       -8.560336   -0.589406    0.235654
     22          6           0        8.628538    0.263069   -0.140767
     23          6           0       -7.333642   -1.418114    0.367584
     24          6           0        7.546452    1.359110   -0.226457
     25          6           0       -7.641493   -2.833885    0.764702
     26          6           0        8.002750    2.760493   -0.479229
     27          6           0       -6.191609   -0.742823    0.180541
     28          6           0        6.230626    0.865574   -0.139221
     29          6           0       -4.891812   -1.433585    0.500689
     30          6           0        4.998660    1.650610   -0.390799
     31          6           0       -3.677987   -0.762104    0.180292
     32          6           0        3.753335    1.107699   -0.160861
     33          6           0       -2.417820   -1.239239    0.306788
     34          6           0        2.548211    1.903550   -0.415973
     35          6           0       -2.241004   -2.743137    0.611863
     36          6           0        2.674391    3.431698   -0.706619
     37          6           0       -1.273529   -0.472720    0.092937
     38          6           0        1.271118    1.222319   -0.255017
     39          6           0       -1.160867    1.048197   -0.131177
     40          6           0       -0.049739    1.810868   -0.378360
     41          1           0      -14.096423   -0.088314    0.345580
     42          1           0      -14.119252   -0.049731   -1.619642
     43          1           0       12.548173   -1.789842    1.892365
     44          1           0       13.829873   -0.841414    1.807172
     45          1           0      -14.155237    2.494775   -0.439228
     46          1           0      -12.687903    2.221397   -1.414404
     47          1           0       14.198118   -2.740043    0.408880
     48          1           0       14.004073   -1.511642   -0.773719
     49          1           0      -13.061724    2.136503    1.586673
     50          1           0      -11.912889    2.964788    0.613818
     51          1           0       11.677733   -3.538723   -0.130718
     52          1           0       12.338441   -3.128585   -1.796784
     53          1           0      -11.569395    0.699164   -2.471674
     54          1           0      -12.304652   -0.815258   -2.915994
     55          1           0      -10.734076   -0.732745   -2.264512
     56          1           0      -12.632972   -2.448573    0.620091
     57          1           0      -11.712180   -2.775602   -0.768310
     58          1           0      -13.299002   -2.286887   -1.014525
     59          1           0       13.447208    0.909627   -0.537841
     60          1           0       13.461613    1.520707    1.039726
     61          1           0       12.218432    2.051958    0.066182
     62          1           0       10.720059   -0.412788    2.486920
     63          1           0       10.904860    1.479428    2.044366
     64          1           0       12.167680    0.425017    3.094119
     65          1           0      -10.055236   -1.868207    0.541782
     66          1           0       10.349768    1.614713   -0.523157
     67          1           0       -9.436316    0.980992    2.259453
     68          1           0      -10.587381    2.194949    2.632034
     69          1           0       -9.640114    2.471527    1.181321
     70          1           0        9.081231   -1.294616   -2.234091
     71          1           0        9.722031   -2.924536   -1.689018
     72          1           0       10.728153   -2.110493   -2.796125
     73          1           0       -8.535176    0.484087   -0.002894
     74          1           0        8.269213   -0.486999    0.280468
     75          1           0       -8.275904   -3.031013    1.783639
     76          1           0       -6.612114   -3.306097    0.795773
     77          1           0       -8.048456   -3.509913   -0.169449
     78          1           0        8.662759    2.919003   -1.479126
     79          1           0        8.491788    3.013757    0.317641
     80          1           0        7.193478    3.525449   -0.624718
     81          1           0       -6.127213    0.388856   -0.098379
     82          1           0        6.095203   -0.113220   -0.096392
     83          1           0       -4.800388   -2.527813    0.625374
     84          1           0        5.061504    2.813338   -0.576801
     85          1           0       -3.898158    0.392504    0.030402
     86          1           0        3.697056    0.119578    0.134720
     87          1           0       -2.860980   -2.976600    1.517257
     88          1           0       -1.211252   -3.015886    0.778429
     89          1           0       -2.622396   -3.105676   -0.242498
     90          1           0        3.234298    3.505434   -1.735954
     91          1           0        2.986534    3.879677    0.293590
     92          1           0        1.755542    3.889180   -1.110441
     93          1           0       -0.405024   -0.929842    0.001893
     94          1           0        1.105791    0.168877    0.079629
     95          1           0       -2.125236    1.542858   -0.139086
     96          1           0       -0.193325    2.890219   -0.484064
 ---------------------------------------------------------------------

 SCF Done:  E(RB3LYP) =  -1557.56448895     A.U. after   15 cycles

 Excitation energies and oscillator strengths:

 Excited State   1:      Singlet-A      2.2203 eV  558.42 nm  f=2.6694  <S**2>=0.000
     148 ->149         0.70408
 This state for optimization and/or second-order correction.
 Total Energy, E(TD-HF/TD-DFT) =  -1557.48289517
 Copying the excited state density for this state as the 1-particle RhoCI density.

 The electronic state is 1-A.
 Alpha  occ. eigenvalues --  -10.21281 -10.21103 -10.20763 -10.20494 -10.20347
 Alpha  occ. eigenvalues --  -10.20306 -10.20217 -10.20176 -10.19908 -10.19785
 Alpha  occ. eigenvalues --  -10.19678 -10.19590 -10.19445 -10.19433 -10.19396
 Alpha  occ. eigenvalues --  -10.19194 -10.19153 -10.18937 -10.18918 -10.18885
 Alpha  occ. eigenvalues --  -10.18809 -10.18656 -10.18604 -10.18476 -10.18248
 Alpha  occ. eigenvalues --  -10.18209 -10.18157 -10.18002 -10.17870 -10.17715
 Alpha  occ. eigenvalues --  -10.17699 -10.17501 -10.17266 -10.16922 -10.16763
 Alpha  occ. eigenvalues --  -10.16727 -10.16627 -10.16547 -10.16345 -10.15529
 Alpha  occ. eigenvalues --   -0.85278  -0.84861  -0.83238  -0.82015  -0.81627
 Alpha  occ. eigenvalues --   -0.80323  -0.78465  -0.78140  -0.77858  -0.77300
 Alpha  occ. eigenvalues --   -0.76476  -0.74020  -0.73367  -0.71794  -0.71669
 Alpha  occ. eigenvalues --   -0.69681  -0.68800  -0.68368  -0.68021  -0.67925
 Alpha  occ. eigenvalues --   -0.67552  -0.67448  -0.66764  -0.66158  -0.65612
 Alpha  occ. eigenvalues --   -0.62478  -0.61432  -0.59553  -0.59030  -0.56574
 Alpha  occ. eigenvalues --   -0.56174  -0.56103  -0.54433  -0.53438  -0.53250
 Alpha  occ. eigenvalues --   -0.52312  -0.52194  -0.50746  -0.49392  -0.48980
 Alpha  occ. eigenvalues --   -0.47859  -0.47124  -0.47035  -0.46261  -0.45542
 Alpha  occ. eigenvalues --   -0.45107  -0.44598  -0.44370  -0.44058  -0.43753
 Alpha  occ. eigenvalues --   -0.43702  -0.43347  -0.42629  -0.42559  -0.42369
 Alpha  occ. eigenvalues --   -0.42115  -0.41954  -0.41557  -0.41014  -0.40722
 Alpha  occ. eigenvalues --   -0.40571  -0.40523  -0.40199  -0.39918  -0.39680
 Alpha  occ. eigenvalues --   -0.39334  -0.38579  -0.38384  -0.38094  -0.37767
 Alpha  occ. eigenvalues --   -0.37591  -0.37381  -0.37090  -0.37060  -0.36855
 Alpha  occ. eigenvalues --   -0.36369  -0.35929  -0.35900  -0.35361  -0.35303
 Alpha  occ. eigenvalues --   -0.34691  -0.34516  -0.33956  -0.33899  -0.33759
 Alpha  occ. eigenvalues --   -0.33283  -0.33183  -0.33071  -0.32507  -0.32346
 Alpha  occ. eigenvalues --   -0.31943  -0.31834  -0.31376  -0.31223  -0.30687
 Alpha  occ. eigenvalues --   -0.30512  -0.30141  -0.29756  -0.29306  -0.27854
 Alpha  occ. eigenvalues --   -0.27146  -0.26993  -0.25592  -0.23651  -0.21974
 Alpha  occ. eigenvalues --   -0.20796  -0.18819  -0.16227
 Alpha virt. eigenvalues --   -0.07799  -0.04630  -0.00915   0.00764   0.02629
 Alpha virt. eigenvalues --    0.03527   0.05341   0.06847   0.06989   0.07444
 Alpha virt. eigenvalues --    0.07689   0.08063   0.08248   0.08273   0.08614

 Mulliken charges:
               1
     1  C    0.007357
     2  C   -0.000824
     3  C   -0.144924
     4  C   -0.183628
     5  C   -0.185485
     6  C   -0.182267
     7  C    0.062999
     8  C    0.078932
     9  C   -0.227795
    10  C   -0.202641
    11  C    0.050273
    12  C    0.016426
    13  C   -0.307597
    14  C   -0.333080
    15  C   -0.297330
    16  C   -0.289421
    17  C   -0.132924
    18  C   -0.146685
    19  C   -0.355807
    20  C   -0.345764
    21  C   -0.077892
    22  C   -0.060841
    23  C    0.137490
    24  C    0.083372
    25  C   -0.368016
    26  C   -0.365114
    27  C   -0.116466
    28  C   -0.125126
    29  C   -0.119316
    30  C   -0.096197
    31  C   -0.106459
    32  C   -0.078734
    33  C    0.089053
    34  C    0.063996
    35  C   -0.368507
    36  C   -0.370992
    37  C   -0.108469
    38  C   -0.117279
    39  C   -0.097230
    40  C   -0.080761
    41  H    0.088223
    42  H    0.062397
    43  H    0.104933
    44  H    0.090338
    45  H    0.045877
    46  H    0.106286
    47  H    0.098322
    48  H    0.094060
    49  H    0.107326
    50  H    0.102393
    51  H    0.108208
    52  H    0.062676
    53  H    0.088429
    54  H    0.102534
    55  H    0.112955
    56  H    0.108916
    57  H    0.094920
    58  H    0.099318
    59  H    0.109173
    60  H    0.079723
    61  H    0.102814
    62  H    0.101833
    63  H    0.082702
    64  H    0.073814
    65  H    0.069003
    66  H    0.091353
    67  H    0.126184
    68  H    0.102394
    69  H    0.108970
    70  H    0.119700
    71  H    0.117979
    72  H    0.110823
    73  H    0.058153
    74  H    0.069187
    75  H    0.119877
    76  H    0.101390
    77  H    0.107924
    78  H    0.100712
    79  H    0.141551
    80  H    0.100752
    81  H    0.098269
    82  H    0.072258
    83  H    0.090212
    84  H    0.079918
    85  H    0.068952
    86  H    0.079247
    87  H    0.117641
    88  H    0.109780
    89  H    0.142457
    90  H    0.119380
    91  H    0.137166
    92  H    0.113381
    93  H    0.066219
    94  H    0.078898
    95  H    0.072491
    96  H    0.083280
 Sum of Mulliken charges =  -0.00000

 Dipole moment (field-independent basis, Debye):
    X=              1.3724    Y=             -0.1490    Z=              0.3680  Tot=              1.4286
 Quadrupole moment (field-independent basis, Debye-Ang):
   XX=           -229.7064   YY=           -231.9324   ZZ=           -254.0228
   XY=             -0.8516   XZ=              1.3437   YZ=             -4.3036

 Normal termination of Gaussian 16 at Sat Jul 27 12:12:15 2019.
