 Gaussian 16, Revision A.03,
 Gaussian 16:  ES64L-G16RevA.03 25-Dec-2016

 ---------------------------------
 # td=(NStates=1) B3LYP/6-31G(d,p)
 ---------------------------------

 --
 TD
 --
 Symbolic Z-matrix:
 Charge =  0 Multiplicity = 1

                         Standard orientation:
 ---------------------------------------------------------------------
 Center     Atomic      Atomic             Coordinates (Angstroms)
 Number     Number       Type             X           Y           Z
 ---------------------------------------------------------------------
      1          6           0      -12.146215   -0.575707   -0.774421
      2          6           0       12.093781   -0.053674    0.938004
      3          6           0      -13.439520    0.265661   -0.637885
      4          6           0       13.034848   -1.251190    1.269043
      5          6           0      -13.131334    1.755370   -0.565842
      6          6           0       13.430284   -2.115731    0.014395
      7          6           0      -11.058936   -0.060500    0.234791
      8          6           0       10.971668   -0.447411   -0.075728
      9          6           0      -12.307057    2.100168    0.627482
     10          6           0       12.121675   -2.585892   -0.674310
     11          6           0      -11.183981    1.150083    0.840369
     12          6           0       10.966980   -1.505294   -0.771712
     13          6           0      -11.625339   -0.512010   -2.164381
     14          6           0      -12.447326   -2.083307   -0.345276
     15          6           0       12.930990    1.091894    0.269519
     16          6           0       11.481292    0.596792    2.245650
     17          6           0       -9.815272   -0.944775    0.354359
     18          6           0        9.858806    0.542369   -0.246395
     19          6           0      -10.178833    1.715450    1.920963
     20          6           0        9.912266   -1.968726   -1.831167
     21          6           0       -8.551268   -0.499970    0.314435
     22          6           0        8.568274    0.358179   -0.203961
     23          6           0       -7.339452   -1.303016    0.407737
     24          6           0        7.515726    1.276379   -0.448027
     25          6           0       -7.509464   -2.821255    0.690536
     26          6           0        7.744850    2.767177   -0.661782
     27          6           0       -6.089513   -0.724438    0.264521
     28          6           0        6.231548    0.889053   -0.417731
     29          6           0       -4.818426   -1.374028    0.303022
     30          6           0        5.000727    1.691102   -0.561796
     31          6           0       -3.723030   -0.691352    0.223604
     32          6           0        3.777472    1.037527   -0.475558
     33          6           0       -2.342799   -1.207055    0.335706
     34          6           0        2.446364    1.793819   -0.464595
     35          6           0       -2.222379   -2.652520    0.672499
     36          6           0        2.565177    3.309121   -0.682641
     37          6           0       -1.188302   -0.545477    0.207489
     38          6           0        1.413382    1.130598   -0.219192
     39          6           0       -1.103840    0.893155    0.099147
     40          6           0        0.052717    1.709483   -0.126351
     41          1           0      -13.637678    0.110089    0.451205
     42          1           0      -14.303071    0.198104   -1.350789
     43          1           0       12.486482   -1.681203    2.178904
     44          1           0       13.885940   -0.960593    1.842212
     45          1           0      -14.055803    2.266550   -0.508527
     46          1           0      -12.553678    2.035831   -1.596688
     47          1           0       14.044513   -2.821087    0.330280
     48          1           0       13.925008   -1.516855   -0.846195
     49          1           0      -12.978467    2.148487    1.534280
     50          1           0      -11.741439    3.093733    0.415857
     51          1           0       11.883730   -3.410452   -0.068633
     52          1           0       12.160982   -2.824802   -1.762603
     53          1           0      -11.598166    0.638959   -2.455675
     54          1           0      -12.315664   -0.939304   -2.766955
     55          1           0      -10.553621   -0.978166   -2.494203
     56          1           0      -12.779149   -2.262732    0.678622
     57          1           0      -11.487220   -2.820029   -0.534051
     58          1           0      -13.235267   -2.441960   -1.039133
     59          1           0       13.661421    0.627214   -0.440646
     60          1           0       13.588425    1.591661    0.985325
     61          1           0       12.400850    1.851315   -0.241585
     62          1           0       10.723178   -0.022109    2.628069
     63          1           0       11.225097    1.651844    1.857619
     64          1           0       12.225353    0.599228    2.909323
     65          1           0       -9.882352   -1.915488    0.552923
     66          1           0       10.051368    1.703758   -0.102154
     67          1           0       -9.470149    0.982642    2.202137
     68          1           0      -10.745480    1.990630    2.879031
     69          1           0       -9.670857    2.593815    1.776459
     70          1           0        8.944177   -1.104789   -1.906430
     71          1           0        9.313030   -2.971005   -1.435790
     72          1           0       10.446044   -2.337393   -2.669778
     73          1           0       -8.323630    0.486525    0.119113
     74          1           0        8.170239   -0.702252   -0.186353
     75          1           0       -8.310887   -2.836647    1.585908
     76          1           0       -6.459400   -3.252303    0.941594
     77          1           0       -7.821099   -3.351801   -0.199984
     78          1           0        8.949084    2.852894   -1.136614
     79          1           0        7.920608    3.341440    0.546074
     80          1           0        6.902917    3.165104   -1.093774
     81          1           0       -5.906195    0.347742   -0.090368
     82          1           0        5.918948   -0.121453   -0.409830
     83          1           0       -4.897336   -2.576416    0.396630
     84          1           0        5.042842    2.615842   -0.903916
     85          1           0       -3.955375    0.372234    0.121088
     86          1           0        3.663451    0.090342   -0.211183
     87          1           0       -2.760174   -2.823756    1.563561
     88          1           0       -1.172788   -2.883215    0.876662
     89          1           0       -2.859647   -3.178492    0.031070
     90          1           0        2.818720    3.753918   -1.711571
     91          1           0        3.266943    3.635799    0.135684
     92          1           0        1.270998    3.757460   -0.766867
     93          1           0       -0.180253   -1.067048    0.229569
     94          1           0        1.562857    0.105055   -0.148709
     95          1           0       -1.919282    1.506324    0.051870
     96          1           0       -0.258318    2.786496   -0.049179
 ---------------------------------------------------------------------

 SCF Done:  E(RB3LYP) =  -1557.52599152     A.U. after   14 cycles

 Excitation energies and oscillator strengths:

 Excited State   1:      Singlet-A      2.6068 eV  475.62 nm  f=2.6153  <S**2>=0.000
     148 ->149         0.70580
 This state for optimization and/or second-order correction.
 Total Energy, E(TD-HF/TD-DFT) =  -1557.43019396
 Copying the excited state density for this state as the 1-particle RhoCI density.

 The electronic state is 1-A.
 Alpha  occ. eigenvalues --  -10.21218 -10.21131 -10.20565 -10.20478 -10.20258
 Alpha  occ. eigenvalues --  -10.20055 -10.19982 -10.19833 -10.19722 -10.19593
 Alpha  occ. eigenvalues --  -10.19476 -10.19279 -10.19152 -10.19005 -10.18981
 Alpha  occ. eigenvalues --  -10.18967 -10.18822 -10.18808 -10.18734 -10.18614
 Alpha  occ. eigenvalues --  -10.18611 -10.18401 -10.18385 -10.18360 -10.18339
 Alpha  occ. eigenvalues --  -10.18259 -10.18249 -10.18036 -10.17961 -10.17942
 Alpha  occ. eigenvalues --  -10.17899 -10.17823 -10.17731 -10.17724 -10.17691
 Alpha  occ. eigenvalues --  -10.17566 -10.16899 -10.16875 -10.16366 -10.16261
 Alpha  occ. eigenvalues --   -0.85030  -0.84531  -0.84251  -0.83585  -0.82367
 Alpha  occ. eigenvalues --   -0.81862  -0.79100  -0.78240  -0.78200  -0.77407
 Alpha  occ. eigenvalues --   -0.76478  -0.75663  -0.74540  -0.72312  -0.71938
 Alpha  occ. eigenvalues --   -0.69232  -0.68192  -0.68098  -0.67789  -0.67561
 Alpha  occ. eigenvalues --   -0.67459  -0.67432  -0.66740  -0.66521  -0.66124
 Alpha  occ. eigenvalues --   -0.62800  -0.62217  -0.60020  -0.58668  -0.57276
 Alpha  occ. eigenvalues --   -0.56715  -0.56003  -0.55531  -0.55166  -0.53311
 Alpha  occ. eigenvalues --   -0.52953  -0.51573  -0.50999  -0.49979  -0.49327
 Alpha  occ. eigenvalues --   -0.48352  -0.47647  -0.47037  -0.46219  -0.45953
 Alpha  occ. eigenvalues --   -0.45629  -0.45550  -0.45154  -0.44410  -0.43961
 Alpha  occ. eigenvalues --   -0.43224  -0.42766  -0.42668  -0.42196  -0.41897
 Alpha  occ. eigenvalues --   -0.41851  -0.41669  -0.41453  -0.41180  -0.40872
 Alpha  occ. eigenvalues --   -0.40854  -0.40426  -0.39986  -0.39901  -0.39315
 Alpha  occ. eigenvalues --   -0.39174  -0.38925  -0.38750  -0.38188  -0.38113
 Alpha  occ. eigenvalues --   -0.37962  -0.37645  -0.37315  -0.37062  -0.36794
 Alpha  occ. eigenvalues --   -0.36667  -0.35890  -0.35686  -0.35510  -0.35211
 Alpha  occ. eigenvalues --   -0.35031  -0.34962  -0.34199  -0.33901  -0.33871
 Alpha  occ. eigenvalues --   -0.33543  -0.33196  -0.33102  -0.32670  -0.32494
 Alpha  occ. eigenvalues --   -0.31847  -0.31689  -0.30914  -0.30646  -0.30414
 Alpha  occ. eigenvalues --   -0.30219  -0.29834  -0.29432  -0.29296  -0.28660
 Alpha  occ. eigenvalues --   -0.28334  -0.27647  -0.26800  -0.24294  -0.23634
 Alpha  occ. eigenvalues --   -0.21527  -0.19519  -0.17454
 Alpha virt. eigenvalues --   -0.07108  -0.04714  -0.01440   0.01710   0.02971
 Alpha virt. eigenvalues --    0.04543   0.05610   0.05802   0.06259   0.06382
 Alpha virt. eigenvalues --    0.07451   0.07661   0.08384   0.08498   0.08895

 Mulliken charges:
               1
     1  C    0.011171
     2  C   -0.014705
     3  C   -0.186188
     4  C   -0.193999
     5  C   -0.169958
     6  C   -0.183969
     7  C    0.051945
     8  C    0.111427
     9  C   -0.219319
    10  C   -0.212065
    11  C    0.060637
    12  C    0.042835
    13  C   -0.277095
    14  C   -0.303388
    15  C   -0.310851
    16  C   -0.300766
    17  C   -0.122826
    18  C   -0.159185
    19  C   -0.367427
    20  C   -0.339522
    21  C   -0.057591
    22  C   -0.080134
    23  C    0.082441
    24  C    0.139382
    25  C   -0.364562
    26  C   -0.327215
    27  C   -0.141265
    28  C   -0.127714
    29  C   -0.032919
    30  C   -0.080565
    31  C   -0.110985
    32  C   -0.112647
    33  C    0.118998
    34  C    0.154045
    35  C   -0.374642
    36  C   -0.354638
    37  C   -0.138168
    38  C   -0.108665
    39  C   -0.080038
    40  C   -0.133551
    41  H    0.095100
    42  H    0.093020
    43  H    0.078908
    44  H    0.092999
    45  H    0.092115
    46  H    0.068810
    47  H    0.102886
    48  H    0.093927
    49  H    0.103122
    50  H    0.098385
    51  H    0.114227
    52  H    0.084220
    53  H    0.081031
    54  H    0.109422
    55  H    0.087018
    56  H    0.109518
    57  H    0.075748
    58  H    0.094581
    59  H    0.091753
    60  H    0.092360
    61  H    0.107127
    62  H    0.110579
    63  H    0.097018
    64  H    0.108313
    65  H    0.075497
    66  H    0.063577
    67  H    0.118728
    68  H    0.086871
    69  H    0.118878
    70  H    0.095545
    71  H    0.083158
    72  H    0.115106
    73  H    0.074290
    74  H    0.076106
    75  H    0.107410
    76  H    0.096712
    77  H    0.134656
    78  H    0.084896
    79  H    0.061912
    80  H    0.122435
    81  H    0.074926
    82  H    0.071675
    83  H    0.062516
    84  H    0.079995
    85  H    0.080236
    86  H    0.068272
    87  H    0.125389
    88  H    0.106922
    89  H    0.122661
    90  H    0.123372
    91  H    0.126729
    92  H    0.049147
    93  H    0.081866
    94  H    0.077583
    95  H    0.071711
    96  H    0.092716
 Sum of Mulliken charges =  -0.00000

 Dipole moment (field-independent basis, Debye):
    X=             -1.2682    Y=             -0.7083    Z=              0.3443  Tot=              1.4928
 Quadrupole moment (field-independent basis, Debye-Ang):
   XX=           -215.0598   YY=           -239.0655   ZZ=           -254.7771
   XY=             -7.9107   XZ=              4.4511   YZ=             -1.9566

 Normal termination of Gaussian 16 at Thu Aug  1 22:16:08 2019.
