 Gaussian 16, Revision A.03,
 Gaussian 16:  ES64L-G16RevA.03 25-Dec-2016

 ---------------------------------
 # td=(NStates=1) B3LYP/6-31G(d,p)
 ---------------------------------

 --
 TD
 --
 Symbolic Z-matrix:
 Charge =  0 Multiplicity = 1

                         Standard orientation:
 ---------------------------------------------------------------------
 Center     Atomic      Atomic             Coordinates (Angstroms)
 Number     Number       Type             X           Y           Z
 ---------------------------------------------------------------------
      1          6           0       12.293215    0.488603   -0.721168
      2          6           0      -12.239607   -0.077865    0.800444
      3          6           0       13.521211   -0.431053   -0.679652
      4          6           0      -13.207054    1.102061    1.123440
      5          6           0       13.085395   -1.892748   -0.476142
      6          6           0      -13.455065    2.185924    0.004658
      7          6           0       11.158772    0.113897    0.279465
      8          6           0      -11.059822    0.383889   -0.102820
      9          6           0       12.322948   -2.096305    0.783201
     10          6           0      -12.165746    2.667943   -0.540442
     11          6           0       11.232718   -1.107279    0.972756
     12          6           0      -11.080723    1.602463   -0.863289
     13          6           0       11.795779    0.463300   -2.173089
     14          6           0       12.703079    1.877461   -0.393108
     15          6           0      -13.101264   -1.105295    0.090497
     16          6           0      -11.724037   -0.635154    2.186049
     17          6           0        9.890547    0.944105    0.404753
     18          6           0       -9.986598   -0.632411   -0.172621
     19          6           0       10.228461   -1.540629    1.897456
     20          6           0       -9.962062    2.030916   -1.776563
     21          6           0        8.636232    0.497151    0.259735
     22          6           0       -8.627670   -0.315755   -0.253638
     23          6           0        7.432758    1.303963    0.233959
     24          6           0       -7.578911   -1.299868   -0.387486
     25          6           0        7.582492    2.911257    0.383557
     26          6           0       -7.983452   -2.718918   -0.742028
     27          6           0        6.186478    0.753478    0.196578
     28          6           0       -6.259687   -0.914780   -0.185735
     29          6           0        4.874384    1.378214    0.371070
     30          6           0       -5.089471   -1.734587   -0.297928
     31          6           0        3.785729    0.712749    0.209839
     32          6           0       -3.821732   -1.171170   -0.191280
     33          6           0        2.416759    1.257657    0.450264
     34          6           0       -2.481257   -1.837224   -0.326982
     35          6           0        2.335029    2.698624    0.794925
     36          6           0       -2.524595   -3.358952   -0.653229
     37          6           0        1.298551    0.487080    0.259905
     38          6           0       -1.431054   -1.069971   -0.141667
     39          6           0        1.149534   -0.880713   -0.161058
     40          6           0       -0.065169   -1.522085   -0.309102
     41          1           0       14.137338   -0.006020    0.196126
     42          1           0       14.087903   -0.004786   -1.573782
     43          1           0      -12.719533    1.656559    2.084646
     44          1           0      -14.052934    0.595917    1.434482
     45          1           0       14.020160   -2.565322   -0.516030
     46          1           0       12.527682   -2.316754   -1.421041
     47          1           0      -13.987145    3.126960    0.513405
     48          1           0      -14.019101    1.593127   -0.701278
     49          1           0       13.032626   -2.184606    1.600975
     50          1           0       12.079585   -3.308467    0.540877
     51          1           0      -11.847701    3.472486    0.300578
     52          1           0      -12.209400    3.478661   -1.331434
     53          1           0       11.613951   -0.624810   -2.390806
     54          1           0       12.570869    0.862719   -2.765048
     55          1           0       10.919655    1.246610   -2.375876
     56          1           0       12.853530    2.141349    0.712205
     57          1           0       12.140317    2.709331   -0.560164
     58          1           0       13.786129    2.153505   -0.848996
     59          1           0      -13.439945   -0.767249   -1.038555
     60          1           0      -13.869423   -1.574251    0.805205
     61          1           0      -12.435281   -1.979946   -0.195388
     62          1           0      -11.274834    0.126660    2.437910
     63          1           0      -11.075307   -1.452917    2.172658
     64          1           0      -12.502712   -0.741361    2.934103
     65          1           0       10.226813    2.026673    0.324172
     66          1           0      -10.467768   -1.570841   -0.241160
     67          1           0        9.640195   -0.795434    2.424032
     68          1           0       10.662732   -2.186186    2.814971
     69          1           0        9.568639   -2.249639    1.090207
     70          1           0       -9.248849    1.146981   -1.814273
     71          1           0       -9.352979    2.969682   -1.315587
     72          1           0      -10.752919    2.352777   -2.569121
     73          1           0        8.400031   -0.579077    0.455919
     74          1           0       -8.398610    0.721899    0.006109
     75          1           0        8.346764    3.397131    1.174529
     76          1           0        6.442603    3.346830    0.586940
     77          1           0        7.901889    3.385389   -0.577990
     78          1           0       -8.547000   -2.647656   -1.697612
     79          1           0       -8.696947   -3.120557   -0.015013
     80          1           0       -7.166281   -3.417352   -0.818595
     81          1           0        6.132649   -0.317292   -0.075858
     82          1           0       -6.053539    0.198969   -0.179042
     83          1           0        4.784842    2.324544    0.837399
     84          1           0       -5.297796   -2.747282   -0.842057
     85          1           0        4.020614   -0.335279   -0.099241
     86          1           0       -3.653057   -0.125397    0.072182
     87          1           0        2.975099    2.995507    1.681852
     88          1           0        1.449331    3.120784    1.073770
     89          1           0        2.833373    3.279703   -0.110730
     90          1           0       -2.920424   -3.423856   -1.654047
     91          1           0       -3.305950   -3.779148   -0.001223
     92          1           0       -1.567804   -3.760705   -0.675704
     93          1           0        0.505610    0.974517    0.415193
     94          1           0       -1.390618    0.078753    0.143844
     95          1           0        2.029798   -1.386330   -0.485603
     96          1           0        0.052554   -2.623360   -0.864186
 ---------------------------------------------------------------------

 SCF Done:  E(RB3LYP) =  -1557.57386168     A.U. after   14 cycles

 Excitation energies and oscillator strengths:

 Excited State   1:      Singlet-A      2.3649 eV  524.28 nm  f=2.8243  <S**2>=0.000
     148 ->149         0.69988
 This state for optimization and/or second-order correction.
 Total Energy, E(TD-HF/TD-DFT) =  -1557.48695500
 Copying the excited state density for this state as the 1-particle RhoCI density.

 The electronic state is 1-A.
 Alpha  occ. eigenvalues --  -10.20866 -10.20602 -10.20464 -10.20451 -10.20448
 Alpha  occ. eigenvalues --  -10.20235 -10.20224 -10.20190 -10.19884 -10.19782
 Alpha  occ. eigenvalues --  -10.19733 -10.19654 -10.19652 -10.19500 -10.19415
 Alpha  occ. eigenvalues --  -10.19394 -10.19390 -10.19319 -10.19295 -10.19262
 Alpha  occ. eigenvalues --  -10.19194 -10.19110 -10.19103 -10.19064 -10.19044
 Alpha  occ. eigenvalues --  -10.19029 -10.19020 -10.19003 -10.18837 -10.18772
 Alpha  occ. eigenvalues --  -10.18536 -10.18515 -10.18341 -10.18328 -10.17918
 Alpha  occ. eigenvalues --  -10.17744 -10.17449 -10.17365 -10.17344 -10.14888
 Alpha  occ. eigenvalues --   -0.85046  -0.84203  -0.83842  -0.83013  -0.81924
 Alpha  occ. eigenvalues --   -0.81226  -0.79531  -0.78879  -0.78340  -0.77584
 Alpha  occ. eigenvalues --   -0.76557  -0.75398  -0.74482  -0.72039  -0.71849
 Alpha  occ. eigenvalues --   -0.70730  -0.69438  -0.68789  -0.68062  -0.67797
 Alpha  occ. eigenvalues --   -0.66856  -0.66592  -0.66397  -0.66368  -0.65759
 Alpha  occ. eigenvalues --   -0.62326  -0.61636  -0.59390  -0.58970  -0.56794
 Alpha  occ. eigenvalues --   -0.56193  -0.55233  -0.55165  -0.54185  -0.53568
 Alpha  occ. eigenvalues --   -0.52232  -0.51981  -0.50473  -0.49820  -0.49025
 Alpha  occ. eigenvalues --   -0.48136  -0.47323  -0.46961  -0.46755  -0.45979
 Alpha  occ. eigenvalues --   -0.45479  -0.45171  -0.44750  -0.44400  -0.43819
 Alpha  occ. eigenvalues --   -0.43548  -0.43241  -0.42722  -0.42535  -0.42191
 Alpha  occ. eigenvalues --   -0.41722  -0.41433  -0.41342  -0.40913  -0.40735
 Alpha  occ. eigenvalues --   -0.40648  -0.40316  -0.39862  -0.39650  -0.39536
 Alpha  occ. eigenvalues --   -0.39396  -0.39258  -0.38809  -0.38520  -0.38318
 Alpha  occ. eigenvalues --   -0.37824  -0.37549  -0.37277  -0.37196  -0.36482
 Alpha  occ. eigenvalues --   -0.36234  -0.35882  -0.35783  -0.35492  -0.35245
 Alpha  occ. eigenvalues --   -0.34936  -0.34823  -0.34635  -0.34277  -0.33732
 Alpha  occ. eigenvalues --   -0.33275  -0.33195  -0.32960  -0.32769  -0.32612
 Alpha  occ. eigenvalues --   -0.32086  -0.31896  -0.31357  -0.31046  -0.30883
 Alpha  occ. eigenvalues --   -0.30494  -0.29959  -0.29484  -0.29119  -0.28670
 Alpha  occ. eigenvalues --   -0.28562  -0.28048  -0.26596  -0.23845  -0.22485
 Alpha  occ. eigenvalues --   -0.20697  -0.18840  -0.17080
 Alpha virt. eigenvalues --   -0.07802  -0.05216  -0.02584   0.00206   0.01932
 Alpha virt. eigenvalues --    0.03558   0.05578   0.06626   0.06753   0.06925
 Alpha virt. eigenvalues --    0.06990   0.07724   0.07924   0.08270   0.08896

 Mulliken charges:
               1
     1  C    0.007100
     2  C   -0.022823
     3  C   -0.168507
     4  C   -0.158326
     5  C   -0.193172
     6  C   -0.179773
     7  C    0.067784
     8  C    0.035222
     9  C   -0.202545
    10  C   -0.189932
    11  C    0.075124
    12  C    0.040737
    13  C   -0.275294
    14  C   -0.315885
    15  C   -0.286816
    16  C   -0.297643
    17  C   -0.138875
    18  C   -0.104807
    19  C   -0.341232
    20  C   -0.337484
    21  C   -0.080621
    22  C   -0.145926
    23  C    0.121536
    24  C    0.113911
    25  C   -0.359265
    26  C   -0.372741
    27  C   -0.153125
    28  C   -0.123195
    29  C   -0.042213
    30  C   -0.104161
    31  C   -0.101972
    32  C   -0.109911
    33  C    0.091373
    34  C    0.113026
    35  C   -0.379987
    36  C   -0.362772
    37  C   -0.073070
    38  C   -0.112575
    39  C   -0.081395
    40  C   -0.103545
    41  H    0.085407
    42  H    0.087186
    43  H    0.052895
    44  H    0.092848
    45  H    0.079592
    46  H    0.087796
    47  H    0.081999
    48  H    0.103647
    49  H    0.117899
    50  H    0.071861
    51  H    0.080093
    52  H    0.083376
    53  H    0.098066
    54  H    0.103047
    55  H    0.082774
    56  H    0.088223
    57  H    0.113187
    58  H    0.066100
    59  H    0.082217
    60  H    0.096916
    61  H    0.083842
    62  H    0.125263
    63  H    0.103023
    64  H    0.092534
    65  H    0.074982
    66  H    0.088950
    67  H    0.125576
    68  H    0.080882
    69  H    0.090024
    70  H    0.123791
    71  H    0.097372
    72  H    0.109596
    73  H    0.084470
    74  H    0.105903
    75  H    0.099932
    76  H    0.082329
    77  H    0.123106
    78  H    0.124070
    79  H    0.121941
    80  H    0.106768
    81  H    0.075393
    82  H    0.078691
    83  H    0.079086
    84  H    0.084721
    85  H    0.074884
    86  H    0.080600
    87  H    0.113736
    88  H    0.116275
    89  H    0.111616
    90  H    0.128859
    91  H    0.128320
    92  H    0.117159
    93  H    0.040433
    94  H    0.084005
    95  H    0.086243
    96  H    0.054268
 Sum of Mulliken charges =  -0.00000

 Dipole moment (field-independent basis, Debye):
    X=             -0.3159    Y=              0.0289    Z=             -0.0191  Tot=              0.3177
 Quadrupole moment (field-independent basis, Debye-Ang):
   XX=           -237.5529   YY=           -235.0594   ZZ=           -256.4471
   XY=              2.7700   XZ=              0.0817   YZ=              4.6413

 Normal termination of Gaussian 16 at Tue Jul 30 14:15:14 2019.
