 Gaussian 16, Revision A.03,
 Gaussian 16:  ES64L-G16RevA.03 25-Dec-2016

 ---------------------------------
 # td=(NStates=1) B3LYP/6-31G(d,p)
 ---------------------------------

 --
 TD
 --
 Symbolic Z-matrix:
 Charge =  0 Multiplicity = 1

                         Standard orientation:
 ---------------------------------------------------------------------
 Center     Atomic      Atomic             Coordinates (Angstroms)
 Number     Number       Type             X           Y           Z
 ---------------------------------------------------------------------
      1          6           0       12.250153    0.421951   -0.667951
      2          6           0      -12.083146    0.068765    0.983528
      3          6           0       13.479707   -0.550487   -0.419138
      4          6           0      -12.864511    1.265646    1.394625
      5          6           0       12.983001   -2.066979   -0.254852
      6          6           0      -13.459669    1.982091    0.209587
      7          6           0       11.103235    0.072322    0.287591
      8          6           0      -10.926132    0.519559    0.018035
      9          6           0       12.149342   -2.163856    0.937070
     10          6           0      -12.245402    2.558596   -0.629490
     11          6           0       11.079692   -1.031807    1.133662
     12          6           0      -11.053391    1.606647   -0.771952
     13          6           0       11.774643    0.399147   -2.119368
     14          6           0       12.746749    1.922330   -0.428735
     15          6           0      -12.946692   -1.143894    0.527825
     16          6           0      -11.215272   -0.562773    2.240353
     17          6           0        9.902507    1.078956    0.218890
     18          6           0       -9.938118   -0.550445   -0.155819
     19          6           0       10.028297   -1.426005    2.100033
     20          6           0      -10.052277    1.902243   -1.862647
     21          6           0        8.619026    0.690862    0.117832
     22          6           0       -8.584509   -0.355561   -0.216682
     23          6           0        7.377821    1.499713    0.280671
     24          6           0       -7.467754   -1.256162   -0.457078
     25          6           0        7.556472    3.063482    0.361270
     26          6           0       -7.872513   -2.735007   -0.749767
     27          6           0        6.134988    0.892741    0.270967
     28          6           0       -6.250025   -0.897205   -0.374589
     29          6           0        4.793324    1.495372    0.415347
     30          6           0       -5.059276   -1.751414   -0.574852
     31          6           0        3.742463    0.733050    0.150747
     32          6           0       -3.804123   -1.263654   -0.413968
     33          6           0        2.282050    1.253182    0.229552
     34          6           0       -2.476622   -1.847269   -0.464259
     35          6           0        2.165587    2.691437    0.450296
     36          6           0       -2.502405   -3.375445   -0.935000
     37          6           0        1.181391    0.387029    0.028729
     38          6           0       -1.402358   -1.090295   -0.266494
     39          6           0        1.137687   -0.968851   -0.181350
     40          6           0       -0.070440   -1.678478   -0.535149
     41          1           0       13.998354   -0.295426    0.464041
     42          1           0       14.190775   -0.445304   -1.086066
     43          1           0      -12.190724    2.041195    1.838377
     44          1           0      -13.771618    1.048760    2.173428
     45          1           0       13.883053   -2.722001   -0.289040
     46          1           0       12.521464   -2.376034   -1.213538
     47          1           0      -14.322902    2.819869    0.447033
     48          1           0      -14.109310    1.363913   -0.353075
     49          1           0       12.878319   -2.087608    1.786769
     50          1           0       11.790915   -3.190293    1.099117
     51          1           0      -11.842785    3.473737   -0.269651
     52          1           0      -12.811783    2.958716   -1.602834
     53          1           0       11.634466   -0.702519   -2.320392
     54          1           0       12.505169    0.592602   -2.893002
     55          1           0       10.899675    1.037209   -2.373697
     56          1           0       12.757091    2.107141    0.760822
     57          1           0       12.191612    2.673616   -0.762382
     58          1           0       13.895515    2.275298   -0.824736
     59          1           0      -13.601679   -0.909686   -0.348634
     60          1           0      -13.612762   -1.718500    1.260847
     61          1           0      -11.974507   -1.687017    0.211177
     62          1           0      -10.478841    0.206302    2.760726
     63          1           0      -10.836979   -1.471996    1.835552
     64          1           0      -12.103670   -0.534972    2.982356
     65          1           0       10.093020    2.137464    0.039743
     66          1           0      -10.372268   -1.587754   -0.010625
     67          1           0        9.350547   -0.703198    2.652915
     68          1           0       10.363282   -1.981402    3.097908
     69          1           0        9.571256   -2.171611    1.554818
     70          1           0       -9.610804    0.985668   -2.225780
     71          1           0       -9.392220    2.501120   -1.562960
     72          1           0      -10.572732    2.505021   -2.567757
     73          1           0        8.192650   -0.382569    0.025092
     74          1           0       -8.395901    0.669434    0.050144
     75          1           0        7.948511    3.518941    1.268066
     76          1           0        6.448954    3.410451   -0.038149
     77          1           0        8.280891    3.371902   -0.419548
     78          1           0       -8.487650   -2.833512   -1.596531
     79          1           0       -8.833027   -3.111307    0.075327
     80          1           0       -6.902366   -3.412798   -0.726507
     81          1           0        6.059500   -0.146565    0.103860
     82          1           0       -5.968892    0.001342    0.086409
     83          1           0        4.659379    2.549961    0.572517
     84          1           0       -5.136517   -2.874609   -0.781100
     85          1           0        3.838893   -0.466990    0.055919
     86          1           0       -3.674527   -0.184027    0.168945
     87          1           0        2.864364    2.923890    1.154344
     88          1           0        1.013993    3.021853    0.823407
     89          1           0        2.350522    3.366919   -0.479335
     90          1           0       -3.123456   -3.330145   -1.798528
     91          1           0       -2.822049   -3.727874   -0.015409
     92          1           0       -1.501611   -3.729376   -1.181574
     93          1           0        0.269929    0.903981    0.132344
     94          1           0       -1.517486   -0.167802    0.085509
     95          1           0        2.182951   -1.447451   -0.356915
     96          1           0        0.053029   -2.803158   -0.734562
 ---------------------------------------------------------------------

 SCF Done:  E(RB3LYP) =  -1557.53994404     A.U. after   14 cycles

 Excitation energies and oscillator strengths:

 Excited State   1:      Singlet-A      2.3561 eV  526.23 nm  f=2.8137  <S**2>=0.000
     148 ->149         0.70163
 This state for optimization and/or second-order correction.
 Total Energy, E(TD-HF/TD-DFT) =  -1557.45335917
 Copying the excited state density for this state as the 1-particle RhoCI density.

 The electronic state is 1-A.
 Alpha  occ. eigenvalues --  -10.20966 -10.20826 -10.20691 -10.20668 -10.20495
 Alpha  occ. eigenvalues --  -10.20411 -10.20303 -10.20083 -10.20023 -10.19982
 Alpha  occ. eigenvalues --  -10.19981 -10.19917 -10.19685 -10.19664 -10.19624
 Alpha  occ. eigenvalues --  -10.19514 -10.19463 -10.19436 -10.19344 -10.19207
 Alpha  occ. eigenvalues --  -10.19176 -10.19096 -10.18987 -10.18791 -10.18683
 Alpha  occ. eigenvalues --  -10.18601 -10.18587 -10.18569 -10.18410 -10.18375
 Alpha  occ. eigenvalues --  -10.18365 -10.18363 -10.18228 -10.18150 -10.18020
 Alpha  occ. eigenvalues --  -10.17982 -10.17956 -10.16856 -10.16440 -10.15405
 Alpha  occ. eigenvalues --   -0.85022  -0.83832  -0.83741  -0.83017  -0.82287
 Alpha  occ. eigenvalues --   -0.80772  -0.78625  -0.78284  -0.77987  -0.77634
 Alpha  occ. eigenvalues --   -0.76464  -0.75248  -0.74291  -0.72390  -0.71709
 Alpha  occ. eigenvalues --   -0.70766  -0.68587  -0.68004  -0.67771  -0.67480
 Alpha  occ. eigenvalues --   -0.67148  -0.67027  -0.66760  -0.66645  -0.65853
 Alpha  occ. eigenvalues --   -0.62481  -0.61306  -0.59915  -0.58899  -0.57397
 Alpha  occ. eigenvalues --   -0.56724  -0.56221  -0.55062  -0.53948  -0.52940
 Alpha  occ. eigenvalues --   -0.52673  -0.52161  -0.50154  -0.49572  -0.49052
 Alpha  occ. eigenvalues --   -0.48439  -0.47272  -0.46928  -0.46419  -0.46075
 Alpha  occ. eigenvalues --   -0.45602  -0.45132  -0.44973  -0.44377  -0.44170
 Alpha  occ. eigenvalues --   -0.43800  -0.43339  -0.42941  -0.42605  -0.42433
 Alpha  occ. eigenvalues --   -0.42103  -0.41819  -0.41099  -0.40985  -0.40858
 Alpha  occ. eigenvalues --   -0.40723  -0.40594  -0.40518  -0.39912  -0.39308
 Alpha  occ. eigenvalues --   -0.39007  -0.38901  -0.38661  -0.38253  -0.38182
 Alpha  occ. eigenvalues --   -0.37838  -0.37427  -0.37052  -0.36750  -0.36712
 Alpha  occ. eigenvalues --   -0.36654  -0.36161  -0.35954  -0.35862  -0.35521
 Alpha  occ. eigenvalues --   -0.35288  -0.35049  -0.34566  -0.33967  -0.33691
 Alpha  occ. eigenvalues --   -0.33117  -0.32773  -0.32615  -0.32470  -0.32112
 Alpha  occ. eigenvalues --   -0.31773  -0.31731  -0.31628  -0.31191  -0.30554
 Alpha  occ. eigenvalues --   -0.30150  -0.29572  -0.29264  -0.28927  -0.28601
 Alpha  occ. eigenvalues --   -0.27888  -0.27347  -0.26674  -0.24214  -0.23064
 Alpha  occ. eigenvalues --   -0.20893  -0.19460  -0.17029
 Alpha virt. eigenvalues --   -0.07983  -0.04726  -0.02411   0.00527   0.02225
 Alpha virt. eigenvalues --    0.04198   0.05120   0.05452   0.06401   0.07060
 Alpha virt. eigenvalues --    0.07156   0.08109   0.08245   0.08770   0.08902

 Mulliken charges:
               1
     1  C    0.006521
     2  C   -0.035263
     3  C   -0.176661
     4  C   -0.168658
     5  C   -0.203997
     6  C   -0.174152
     7  C    0.060610
     8  C    0.087672
     9  C   -0.212512
    10  C   -0.233542
    11  C    0.069915
    12  C    0.055143
    13  C   -0.297864
    14  C   -0.293804
    15  C   -0.274546
    16  C   -0.278486
    17  C   -0.158570
    18  C   -0.148792
    19  C   -0.361542
    20  C   -0.354073
    21  C   -0.060319
    22  C   -0.121419
    23  C    0.098343
    24  C    0.165561
    25  C   -0.369226
    26  C   -0.350367
    27  C   -0.130767
    28  C   -0.125721
    29  C   -0.074314
    30  C   -0.105455
    31  C   -0.094311
    32  C   -0.108034
    33  C    0.078344
    34  C    0.074615
    35  C   -0.366130
    36  C   -0.355415
    37  C   -0.079719
    38  C   -0.080181
    39  C   -0.095308
    40  C   -0.122092
    41  H    0.098655
    42  H    0.090873
    43  H    0.090406
    44  H    0.056236
    45  H    0.084918
    46  H    0.094495
    47  H    0.057319
    48  H    0.107680
    49  H    0.104366
    50  H    0.098015
    51  H    0.119766
    52  H    0.079679
    53  H    0.089226
    54  H    0.099275
    55  H    0.105003
    56  H    0.075388
    57  H    0.115717
    58  H    0.062225
    59  H    0.100730
    60  H    0.105041
    61  H    0.079498
    62  H    0.090705
    63  H    0.102179
    64  H    0.086622
    65  H    0.083934
    66  H    0.077447
    67  H    0.120444
    68  H    0.082843
    69  H    0.137391
    70  H    0.126322
    71  H    0.131360
    72  H    0.100057
    73  H    0.067997
    74  H    0.081844
    75  H    0.128207
    76  H    0.086477
    77  H    0.115984
    78  H    0.137486
    79  H    0.064639
    80  H    0.099206
    81  H    0.075777
    82  H    0.083535
    83  H    0.088428
    84  H    0.084965
    85  H    0.073882
    86  H    0.046455
    87  H    0.136151
    88  H    0.079160
    89  H    0.118066
    90  H    0.132078
    91  H    0.143886
    92  H    0.103883
    93  H    0.070139
    94  H    0.079958
    95  H    0.073406
    96  H    0.089093
 Sum of Mulliken charges =  -0.00000

 Dipole moment (field-independent basis, Debye):
    X=              0.2378    Y=              0.0648    Z=             -0.1604  Tot=              0.2940
 Quadrupole moment (field-independent basis, Debye-Ang):
   XX=           -233.5974   YY=           -235.1761   ZZ=           -256.9033
   XY=             -8.0655   XZ=              3.4997   YZ=              0.9570

 Normal termination of Gaussian 16 at Sun Jul 28 13:44:15 2019.
