 Gaussian 16, Revision A.03,
 Gaussian 16:  ES64L-G16RevA.03 25-Dec-2016

 ---------------------------------
 # td=(NStates=1) B3LYP/6-31G(d,p)
 ---------------------------------

 --
 TD
 --
 Symbolic Z-matrix:
 Charge =  0 Multiplicity = 1

                         Standard orientation:
 ---------------------------------------------------------------------
 Center     Atomic      Atomic             Coordinates (Angstroms)
 Number     Number       Type             X           Y           Z
 ---------------------------------------------------------------------
      1          6           0       12.129385    0.545344   -0.649845
      2          6           0      -12.000330   -0.117345    1.010826
      3          6           0       13.489323   -0.332043   -0.418894
      4          6           0      -12.933910    1.117762    1.424551
      5          6           0       13.220859   -1.888561   -0.304800
      6          6           0      -13.439696    1.876936    0.352402
      7          6           0       11.014068    0.078718    0.332312
      8          6           0      -10.936946    0.443896   -0.049814
      9          6           0       12.240887   -2.190955    0.839961
     10          6           0      -12.264892    2.535787   -0.418792
     11          6           0       11.072098   -1.180348    0.984192
     12          6           0      -11.090573    1.584295   -0.713401
     13          6           0       11.655020    0.427325   -2.034574
     14          6           0       12.491431    1.925735   -0.459715
     15          6           0      -12.875494   -1.249537    0.265987
     16          6           0      -11.320681   -0.590183    2.260960
     17          6           0        9.786073    0.854865    0.479595
     18          6           0       -9.800175   -0.538841   -0.248423
     19          6           0       10.155192   -1.678228    2.119806
     20          6           0      -10.077923    2.025306   -1.743338
     21          6           0        8.531098    0.514894    0.332806
     22          6           0       -8.528426   -0.269911   -0.251412
     23          6           0        7.322892    1.378137    0.338692
     24          6           0       -7.563929   -1.361286   -0.414960
     25          6           0        7.566728    2.886391    0.651635
     26          6           0       -7.883147   -2.743139   -0.596064
     27          6           0        6.153735    0.742907    0.302611
     28          6           0       -6.159836   -0.862315   -0.334835
     29          6           0        4.844705    1.502362    0.246521
     30          6           0       -4.997231   -1.603150   -0.603073
     31          6           0        3.722131    0.825248    0.015232
     32          6           0       -3.796687   -1.110271   -0.400451
     33          6           0        2.321494    1.288016    0.124794
     34          6           0       -2.496971   -1.733212   -0.529998
     35          6           0        2.228153    2.751738    0.386355
     36          6           0       -2.482302   -3.208715   -0.824099
     37          6           0        1.266261    0.527444   -0.067741
     38          6           0       -1.369948   -0.990151   -0.357097
     39          6           0        1.150889   -0.807268   -0.494217
     40          6           0        0.044354   -1.578035   -0.547269
     41          1           0       13.926888   -0.139925    0.320440
     42          1           0       14.170596   -0.111344   -1.352372
     43          1           0      -12.618396    1.719860    2.118971
     44          1           0      -13.818096    0.739271    2.086929
     45          1           0       14.256657   -2.406377   -0.339363
     46          1           0       12.782646   -2.153505   -1.271205
     47          1           0      -14.007418    2.777727    0.690137
     48          1           0      -14.213166    1.590330   -0.313586
     49          1           0       12.865146   -2.202647    1.842388
     50          1           0       11.893200   -3.296088    0.854916
     51          1           0      -11.978140    3.540034    0.056629
     52          1           0      -12.698230    2.995090   -1.295138
     53          1           0       11.187974   -0.710434   -2.387851
     54          1           0       12.245558    0.871141   -3.037520
     55          1           0       10.776240    0.910777   -1.988860
     56          1           0       12.805384    2.291768    0.406729
     57          1           0       11.658857    2.442520   -0.810854
     58          1           0       13.170550    2.208286   -1.273589
     59          1           0      -13.244165   -1.352793   -0.870008
     60          1           0      -13.769530   -1.313636    0.847502
     61          1           0      -12.325683   -2.273663    0.384078
     62          1           0      -10.752514    0.135736    2.708057
     63          1           0      -10.705578   -1.470105    2.090461
     64          1           0      -12.099706   -0.991535    2.909003
     65          1           0        9.894939    1.986513    0.710623
     66          1           0      -10.263935   -1.538827   -0.416160
     67          1           0        9.531250   -0.826551    2.543070
     68          1           0       10.657659   -2.359320    2.847810
     69          1           0        9.148588   -2.450444    1.522953
     70          1           0       -9.353887    1.291978   -2.316654
     71          1           0       -9.433976    2.852218   -1.541302
     72          1           0      -10.525133    2.491268   -2.803792
     73          1           0        8.335136   -0.534482    0.212214
     74          1           0       -8.282253    0.839355   -0.225039
     75          1           0        7.711281    2.890084    1.877873
     76          1           0        6.625829    3.357697    0.435605
     77          1           0        8.252816    3.510813   -0.021835
     78          1           0       -8.506286   -2.699238   -1.471618
     79          1           0       -8.466268   -3.197759    0.256848
     80          1           0       -7.108246   -3.419706   -1.005102
     81          1           0        5.930207   -0.364434    0.249724
     82          1           0       -6.107642    0.238177    0.003978
     83          1           0        4.972302    2.595186    0.469423
     84          1           0       -4.996215   -2.753407   -0.650208
     85          1           0        3.827572   -0.217441   -0.346219
     86          1           0       -3.906559   -0.016393   -0.163017
     87          1           0        2.872981    3.269487    1.224220
     88          1           0        1.249910    3.080149    0.597124
     89          1           0        2.488589    3.354211   -0.281793
     90          1           0       -2.809958   -3.496128   -1.852902
     91          1           0       -2.864589   -3.686289   -0.024068
     92          1           0       -1.519526   -3.765882   -0.819809
     93          1           0        0.192397    0.804363    0.131828
     94          1           0       -1.586002    0.125108   -0.236289
     95          1           0        2.113632   -1.256001   -0.634028
     96          1           0        0.090249   -2.702474   -0.687898
 ---------------------------------------------------------------------

 SCF Done:  E(RB3LYP) =  -1557.49469953     A.U. after   15 cycles

 Excitation energies and oscillator strengths:

 Excited State   1:      Singlet-A      2.5095 eV  494.07 nm  f=2.6508  <S**2>=0.000
     148 ->149         0.69450
     148 ->150        -0.10903
 This state for optimization and/or second-order correction.
 Total Energy, E(TD-HF/TD-DFT) =  -1557.40247854
 Copying the excited state density for this state as the 1-particle RhoCI density.

 The electronic state is 1-A.
 Alpha  occ. eigenvalues --  -10.21196 -10.21018 -10.20699 -10.20593 -10.20486
 Alpha  occ. eigenvalues --  -10.20217 -10.20188 -10.19973 -10.19812 -10.19749
 Alpha  occ. eigenvalues --  -10.19724 -10.19689 -10.19536 -10.19512 -10.19328
 Alpha  occ. eigenvalues --  -10.19212 -10.19208 -10.19001 -10.18890 -10.18790
 Alpha  occ. eigenvalues --  -10.18529 -10.18398 -10.18298 -10.18286 -10.18281
 Alpha  occ. eigenvalues --  -10.18250 -10.18158 -10.18119 -10.18068 -10.18066
 Alpha  occ. eigenvalues --  -10.17904 -10.17860 -10.17846 -10.17638 -10.16910
 Alpha  occ. eigenvalues --  -10.16732 -10.16408 -10.16292 -10.16031 -10.14851
 Alpha  occ. eigenvalues --   -0.84774  -0.84521  -0.83748  -0.83155  -0.82123
 Alpha  occ. eigenvalues --   -0.81699  -0.79167  -0.78585  -0.77883  -0.77572
 Alpha  occ. eigenvalues --   -0.76979  -0.75972  -0.74292  -0.73037  -0.72078
 Alpha  occ. eigenvalues --   -0.70610  -0.68895  -0.68517  -0.68312  -0.68135
 Alpha  occ. eigenvalues --   -0.67489  -0.67403  -0.67005  -0.66287  -0.65960
 Alpha  occ. eigenvalues --   -0.62132  -0.61075  -0.59371  -0.58535  -0.57187
 Alpha  occ. eigenvalues --   -0.56483  -0.55562  -0.55213  -0.53921  -0.52701
 Alpha  occ. eigenvalues --   -0.52610  -0.52394  -0.50662  -0.49819  -0.49260
 Alpha  occ. eigenvalues --   -0.48614  -0.47737  -0.47526  -0.46363  -0.45966
 Alpha  occ. eigenvalues --   -0.45624  -0.45131  -0.44482  -0.44190  -0.44136
 Alpha  occ. eigenvalues --   -0.44016  -0.43616  -0.43127  -0.42847  -0.42398
 Alpha  occ. eigenvalues --   -0.42064  -0.41968  -0.41330  -0.40972  -0.40695
 Alpha  occ. eigenvalues --   -0.40652  -0.40284  -0.39969  -0.39815  -0.39399
 Alpha  occ. eigenvalues --   -0.39060  -0.38534  -0.38166  -0.37957  -0.37721
 Alpha  occ. eigenvalues --   -0.37444  -0.37344  -0.37118  -0.36582  -0.36392
 Alpha  occ. eigenvalues --   -0.36067  -0.35949  -0.35393  -0.35245  -0.34892
 Alpha  occ. eigenvalues --   -0.34794  -0.34582  -0.34013  -0.33572  -0.33333
 Alpha  occ. eigenvalues --   -0.33213  -0.32986  -0.32667  -0.32490  -0.32423
 Alpha  occ. eigenvalues --   -0.32269  -0.32019  -0.31464  -0.31261  -0.30990
 Alpha  occ. eigenvalues --   -0.30363  -0.29993  -0.29899  -0.29026  -0.28365
 Alpha  occ. eigenvalues --   -0.27471  -0.27059  -0.26459  -0.23856  -0.22769
 Alpha  occ. eigenvalues --   -0.21241  -0.19169  -0.16867
 Alpha virt. eigenvalues --   -0.07128  -0.04535  -0.01577   0.00833   0.02511
 Alpha virt. eigenvalues --    0.04008   0.06255   0.06639   0.07305   0.07380
 Alpha virt. eigenvalues --    0.07759   0.08019   0.08282   0.08640   0.09102

 Mulliken charges:
               1
     1  C   -0.005338
     2  C   -0.001204
     3  C   -0.134280
     4  C   -0.149436
     5  C   -0.203213
     6  C   -0.193945
     7  C    0.054161
     8  C    0.033309
     9  C   -0.222112
    10  C   -0.235014
    11  C    0.081894
    12  C    0.109019
    13  C   -0.278460
    14  C   -0.286537
    15  C   -0.315084
    16  C   -0.299475
    17  C   -0.168921
    18  C   -0.130007
    19  C   -0.322724
    20  C   -0.385691
    21  C   -0.051813
    22  C   -0.072822
    23  C    0.087112
    24  C    0.099913
    25  C   -0.363157
    26  C   -0.384260
    27  C   -0.113264
    28  C   -0.141507
    29  C   -0.071042
    30  C   -0.064621
    31  C   -0.130573
    32  C   -0.111979
    33  C    0.137917
    34  C    0.124763
    35  C   -0.376705
    36  C   -0.386106
    37  C   -0.126693
    38  C   -0.139277
    39  C   -0.056277
    40  C   -0.117618
    41  H    0.091436
    42  H    0.063570
    43  H    0.107983
    44  H    0.053967
    45  H    0.075325
    46  H    0.103551
    47  H    0.077787
    48  H    0.106369
    49  H    0.087494
    50  H    0.097616
    51  H    0.089384
    52  H    0.097333
    53  H    0.060951
    54  H    0.075370
    55  H    0.123948
    56  H    0.107471
    57  H    0.096525
    58  H    0.094701
    59  H    0.101837
    60  H    0.112803
    61  H    0.084454
    62  H    0.121003
    63  H    0.098896
    64  H    0.096902
    65  H    0.068958
    66  H    0.083988
    67  H    0.122541
    68  H    0.117160
    69  H    0.035866
    70  H    0.111825
    71  H    0.122214
    72  H    0.061080
    73  H    0.072599
    74  H    0.096418
    75  H    0.116712
    76  H    0.110651
    77  H    0.121886
    78  H    0.128408
    79  H    0.123184
    80  H    0.117340
    81  H    0.088603
    82  H    0.076386
    83  H    0.080617
    84  H    0.075385
    85  H    0.075586
    86  H    0.065214
    87  H    0.084407
    88  H    0.104986
    89  H    0.140746
    90  H    0.123708
    91  H    0.137914
    92  H    0.097791
    93  H    0.071168
    94  H    0.090954
    95  H    0.066664
    96  H    0.093424
 Sum of Mulliken charges =  -0.00000

 Dipole moment (field-independent basis, Debye):
    X=             -1.5142    Y=              0.1070    Z=              0.4939  Tot=              1.5963
 Quadrupole moment (field-independent basis, Debye-Ang):
   XX=           -229.6976   YY=           -230.5985   ZZ=           -253.5387
   XY=              8.4693   XZ=              0.7242   YZ=              1.8447

 Normal termination of Gaussian 16 at Sun Jul 28 00:10:14 2019.
