 Gaussian 16, Revision A.03,
 Gaussian 16:  ES64L-G16RevA.03 25-Dec-2016

 ---------------------------------
 # td=(NStates=1) B3LYP/6-31G(d,p)
 ---------------------------------

 --
 TD
 --
 Symbolic Z-matrix:
 Charge =  0 Multiplicity = 1

                         Standard orientation:
 ---------------------------------------------------------------------
 Center     Atomic      Atomic             Coordinates (Angstroms)
 Number     Number       Type             X           Y           Z
 ---------------------------------------------------------------------
      1          6           0       12.286486    0.600551   -0.589880
      2          6           0      -12.158426   -0.011349    0.913479
      3          6           0       13.477385   -0.247174   -0.506313
      4          6           0      -13.036878    1.198335    1.321342
      5          6           0       13.189977   -1.822240   -0.582845
      6          6           0      -13.443743    2.038213    0.053627
      7          6           0       11.145646    0.080431    0.297652
      8          6           0      -10.935827    0.374009   -0.041829
      9          6           0       12.290813   -2.218008    0.603612
     10          6           0      -12.160970    2.626602   -0.454137
     11          6           0       11.181192   -1.190842    0.886895
     12          6           0      -11.164423    1.556784   -0.789008
     13          6           0       11.772482    0.620914   -2.090092
     14          6           0       12.596610    2.094989   -0.192234
     15          6           0      -12.961874   -1.096146    0.130862
     16          6           0      -11.585491   -0.640228    2.137767
     17          6           0        9.879318    0.874274    0.337176
     18          6           0      -10.004444   -0.635580   -0.245231
     19          6           0       10.151175   -1.709462    1.863572
     20          6           0      -10.095440    2.065302   -1.716382
     21          6           0        8.608793    0.423883    0.210458
     22          6           0       -8.672429   -0.367861   -0.132557
     23          6           0        7.415304    1.233730    0.335840
     24          6           0       -7.561146   -1.334719   -0.344280
     25          6           0        7.499343    2.696503    0.637905
     26          6           0       -7.844031   -2.768601   -0.711159
     27          6           0        6.108837    0.682791    0.280515
     28          6           0       -6.330604   -0.920359   -0.160569
     29          6           0        4.979574    1.238539    0.331633
     30          6           0       -5.019932   -1.622384   -0.252653
     31          6           0        3.709014    0.565335    0.170091
     32          6           0       -3.831289   -1.003292   -0.366150
     33          6           0        2.471289    1.292439    0.213847
     34          6           0       -2.511880   -1.777553   -0.572198
     35          6           0        2.319526    2.798692    0.345708
     36          6           0       -2.578363   -3.230722   -0.873066
     37          6           0        1.254380    0.607891    0.108114
     38          6           0       -1.388741   -1.084034   -0.299923
     39          6           0        1.073903   -0.808534   -0.162507
     40          6           0       -0.089196   -1.531174   -0.287812
     41          1           0       13.917498   -0.247155    0.551875
     42          1           0       14.277405    0.029626   -1.171414
     43          1           0      -12.499206    1.875539    2.047639
     44          1           0      -13.854689    0.938645    1.897019
     45          1           0       14.153644   -2.498728   -0.627591
     46          1           0       12.794101   -1.982906   -1.413865
     47          1           0      -13.958989    2.934640    0.252390
     48          1           0      -13.879096    1.339840   -0.688244
     49          1           0       12.960619   -2.148992    1.389977
     50          1           0       11.946361   -3.210550    0.310351
     51          1           0      -11.723040    3.447190    0.242347
     52          1           0      -12.388252    3.056523   -1.420399
     53          1           0       11.444370   -0.368628   -2.522247
     54          1           0       12.526955    1.255389   -2.531442
     55          1           0       10.963355    1.160364   -2.152135
     56          1           0       12.664164    2.140822    0.938300
     57          1           0       12.035036    2.802581   -0.403350
     58          1           0       13.580309    2.459121   -0.674352
     59          1           0      -13.214036   -0.639974   -0.743072
     60          1           0      -13.968133   -1.379133    0.812184
     61          1           0      -12.380925   -2.052294    0.049774
     62          1           0      -10.640003    0.073534    2.269597
     63          1           0      -11.154062   -1.734728    2.079789
     64          1           0      -12.457570   -0.823355    2.734684
     65          1           0        9.896290    1.952936    0.552073
     66          1           0      -10.267355   -1.775421   -0.326751
     67          1           0        9.608394   -1.096707    2.539068
     68          1           0       10.799740   -2.388822    2.649708
     69          1           0        9.434941   -2.419933    1.456095
     70          1           0       -9.592906    1.113261   -2.240240
     71          1           0       -9.265943    2.745517   -1.281652
     72          1           0      -10.590943    2.650571   -2.467743
     73          1           0        8.667800   -0.705827    0.448137
     74          1           0       -8.366445    0.593479    0.046776
     75          1           0        8.148837    2.881348    1.536775
     76          1           0        6.563789    3.218460    0.998712
     77          1           0        8.121195    3.074167   -0.276020
     78          1           0       -8.547784   -3.059443   -1.489393
     79          1           0       -8.423432   -3.076728    0.199460
     80          1           0       -6.765616   -3.340623   -0.740314
     81          1           0        5.969577   -0.472606    0.202624
     82          1           0       -6.222422    0.280448    0.143370
     83          1           0        4.862299    2.342480    0.436158
     84          1           0       -5.001313   -2.506967   -0.470383
     85          1           0        3.672009   -0.433302    0.080518
     86          1           0       -3.748381   -0.048103   -0.169904
     87          1           0        2.818625    3.255753    1.382777
     88          1           0        1.237607    3.012651    0.321893
     89          1           0        2.810111    3.269015   -0.467866
     90          1           0       -3.029628   -3.297926   -1.876358
     91          1           0       -3.409371   -3.640215   -0.103584
     92          1           0       -1.535068   -3.572991   -0.725512
     93          1           0        0.447460    1.181486    0.252610
     94          1           0       -1.491280    0.076250   -0.062194
     95          1           0        1.916174   -1.414043   -0.238388
     96          1           0       -0.078310   -2.725214   -0.393882
 ---------------------------------------------------------------------

 SCF Done:  E(RB3LYP) =  -1557.51903188     A.U. after   16 cycles

 Excitation energies and oscillator strengths:

 Excited State   1:      Singlet-A      2.1054 eV  588.89 nm  f=2.9983  <S**2>=0.000
     147 ->149         0.13700
     148 ->149         0.69445
     148 <-149        -0.13825
 This state for optimization and/or second-order correction.
 Total Energy, E(TD-HF/TD-DFT) =  -1557.44165984
 Copying the excited state density for this state as the 1-particle RhoCI density.

 The electronic state is 1-A.
 Alpha  occ. eigenvalues --  -10.20811 -10.20198 -10.20196 -10.20156 -10.20025
 Alpha  occ. eigenvalues --  -10.19875 -10.19788 -10.19702 -10.19630 -10.19622
 Alpha  occ. eigenvalues --  -10.19516 -10.19433 -10.19316 -10.19014 -10.18904
 Alpha  occ. eigenvalues --  -10.18904 -10.18846 -10.18793 -10.18790 -10.18729
 Alpha  occ. eigenvalues --  -10.18726 -10.18608 -10.18384 -10.18277 -10.18263
 Alpha  occ. eigenvalues --  -10.18237 -10.18122 -10.18122 -10.18081 -10.17873
 Alpha  occ. eigenvalues --  -10.17840 -10.17715 -10.17609 -10.17482 -10.17471
 Alpha  occ. eigenvalues --  -10.17440 -10.17265 -10.16954 -10.16899 -10.16013
 Alpha  occ. eigenvalues --   -0.84844  -0.84778  -0.83984  -0.83584  -0.82447
 Alpha  occ. eigenvalues --   -0.81620  -0.79304  -0.78686  -0.78454  -0.78223
 Alpha  occ. eigenvalues --   -0.77172  -0.75574  -0.74692  -0.72416  -0.72099
 Alpha  occ. eigenvalues --   -0.70207  -0.69018  -0.68439  -0.68289  -0.68078
 Alpha  occ. eigenvalues --   -0.67718  -0.67396  -0.66879  -0.66433  -0.65811
 Alpha  occ. eigenvalues --   -0.63307  -0.62188  -0.60326  -0.59911  -0.56932
 Alpha  occ. eigenvalues --   -0.56762  -0.56012  -0.55078  -0.53965  -0.53700
 Alpha  occ. eigenvalues --   -0.52422  -0.52207  -0.50494  -0.50400  -0.49788
 Alpha  occ. eigenvalues --   -0.48588  -0.48247  -0.47226  -0.46740  -0.46187
 Alpha  occ. eigenvalues --   -0.45749  -0.45543  -0.45126  -0.44672  -0.44394
 Alpha  occ. eigenvalues --   -0.43543  -0.43343  -0.43239  -0.43021  -0.42152
 Alpha  occ. eigenvalues --   -0.41863  -0.41807  -0.41321  -0.41193  -0.40852
 Alpha  occ. eigenvalues --   -0.40760  -0.40198  -0.40090  -0.39869  -0.39618
 Alpha  occ. eigenvalues --   -0.39196  -0.38914  -0.38698  -0.38595  -0.38554
 Alpha  occ. eigenvalues --   -0.38117  -0.37907  -0.37696  -0.37400  -0.37011
 Alpha  occ. eigenvalues --   -0.36555  -0.36412  -0.35769  -0.35683  -0.35584
 Alpha  occ. eigenvalues --   -0.35437  -0.35217  -0.35009  -0.34740  -0.33761
 Alpha  occ. eigenvalues --   -0.33591  -0.33346  -0.32962  -0.32814  -0.32491
 Alpha  occ. eigenvalues --   -0.31836  -0.31756  -0.31427  -0.31174  -0.31025
 Alpha  occ. eigenvalues --   -0.30392  -0.30074  -0.29639  -0.29628  -0.28759
 Alpha  occ. eigenvalues --   -0.28227  -0.27142  -0.26282  -0.23648  -0.22364
 Alpha  occ. eigenvalues --   -0.21077  -0.19095  -0.16083
 Alpha virt. eigenvalues --   -0.08767  -0.05138  -0.02351   0.00222   0.01644
 Alpha virt. eigenvalues --    0.04242   0.05773   0.06794   0.06874   0.07483
 Alpha virt. eigenvalues --    0.07832   0.08273   0.08455   0.08983   0.09354

 Mulliken charges:
               1
     1  C    0.009268
     2  C   -0.006527
     3  C   -0.176427
     4  C   -0.169872
     5  C   -0.193187
     6  C   -0.185893
     7  C    0.065074
     8  C    0.050649
     9  C   -0.221427
    10  C   -0.200221
    11  C    0.044626
    12  C    0.037846
    13  C   -0.293379
    14  C   -0.305864
    15  C   -0.275217
    16  C   -0.281922
    17  C   -0.138977
    18  C   -0.128909
    19  C   -0.373541
    20  C   -0.349234
    21  C   -0.082466
    22  C   -0.076613
    23  C    0.079867
    24  C    0.156288
    25  C   -0.376050
    26  C   -0.379240
    27  C   -0.091433
    28  C   -0.147852
    29  C   -0.052489
    30  C   -0.040715
    31  C   -0.107988
    32  C   -0.068077
    33  C    0.114345
    34  C    0.076689
    35  C   -0.368546
    36  C   -0.359071
    37  C   -0.118442
    38  C   -0.073500
    39  C   -0.075428
    40  C   -0.117273
    41  H    0.076350
    42  H    0.087117
    43  H    0.082794
    44  H    0.090611
    45  H    0.066084
    46  H    0.111855
    47  H    0.091984
    48  H    0.100589
    49  H    0.124084
    50  H    0.107099
    51  H    0.098864
    52  H    0.094063
    53  H    0.098707
    54  H    0.094072
    55  H    0.115674
    56  H    0.095869
    57  H    0.116205
    58  H    0.081109
    59  H    0.112351
    60  H    0.054315
    61  H    0.100122
    62  H    0.095586
    63  H    0.073319
    64  H    0.098581
    65  H    0.071343
    66  H    0.076613
    67  H    0.133414
    68  H    0.072259
    69  H    0.124280
    70  H    0.096420
    71  H    0.101494
    72  H    0.096977
    73  H    0.078172
    74  H    0.083109
    75  H    0.119179
    76  H    0.115706
    77  H    0.116539
    78  H    0.127451
    79  H    0.119785
    80  H    0.092797
    81  H    0.061604
    82  H    0.048913
    83  H    0.068324
    84  H    0.031902
    85  H    0.073209
    86  H    0.062491
    87  H    0.087902
    88  H    0.111209
    89  H    0.135221
    90  H    0.136442
    91  H    0.108721
    92  H    0.109540
    93  H    0.066574
    94  H    0.065665
    95  H    0.078783
    96  H    0.061687
 Sum of Mulliken charges =  -0.00000

 Dipole moment (field-independent basis, Debye):
    X=              0.9939    Y=              0.3410    Z=              0.0295  Tot=              1.0512
 Quadrupole moment (field-independent basis, Debye-Ang):
   XX=           -233.7813   YY=           -232.9473   ZZ=           -256.6734
   XY=             -1.2417   XZ=              2.6431   YZ=              2.8955

 Normal termination of Gaussian 16 at Wed Jul 31 01:15:31 2019.
