 Gaussian 16, Revision A.03,
 Gaussian 16:  ES64L-G16RevA.03 25-Dec-2016

 ---------------------------------
 # td=(NStates=1) B3LYP/6-31G(d,p)
 ---------------------------------

 --
 TD
 --
 Symbolic Z-matrix:
 Charge =  0 Multiplicity = 1

                         Standard orientation:
 ---------------------------------------------------------------------
 Center     Atomic      Atomic             Coordinates (Angstroms)
 Number     Number       Type             X           Y           Z
 ---------------------------------------------------------------------
      1          6           0      -12.154321   -0.516860   -0.588800
      2          6           0       12.049508   -0.091201    0.994125
      3          6           0      -13.482930    0.278198   -0.405214
      4          6           0       12.833061   -1.319501    1.462744
      5          6           0      -13.140321    1.845537   -0.324054
      6          6           0       13.209046   -2.197266    0.244291
      7          6           0      -10.938842   -0.072124    0.233871
      8          6           0       10.869855   -0.466993   -0.014315
      9          6           0      -12.282437    2.106875    0.875975
     10          6           0       11.967299   -2.607354   -0.521992
     11          6           0      -11.057273    1.126304    0.892621
     12          6           0       10.927240   -1.609971   -0.811931
     13          6           0      -11.724927   -0.521479   -2.154139
     14          6           0      -12.607124   -2.031437   -0.257567
     15          6           0       13.058010    0.983924    0.440150
     16          6           0       11.267723    0.395616    2.241817
     17          6           0       -9.840212   -0.914951    0.450992
     18          6           0        9.913815    0.564690   -0.304565
     19          6           0       -9.992178    1.564102    1.944988
     20          6           0        9.948493   -1.945113   -1.895323
     21          6           0       -8.551161   -0.519897    0.291658
     22          6           0        8.535802    0.395719   -0.245715
     23          6           0       -7.307213   -1.383009    0.318262
     24          6           0        7.573469    1.438447   -0.466424
     25          6           0       -7.452029   -2.849937    0.448564
     26          6           0        7.967167    2.845395   -0.791834
     27          6           0       -6.090653   -0.688044    0.342761
     28          6           0        6.256310    1.121247   -0.346229
     29          6           0       -4.742740   -1.376521    0.330735
     30          6           0        5.036606    1.837639   -0.445681
     31          6           0       -3.624346   -0.761251    0.140969
     32          6           0        3.802830    1.380180   -0.364974
     33          6           0       -2.286549   -1.332892    0.057347
     34          6           0        2.552060    1.979158   -0.444927
     35          6           0       -2.188780   -2.721359    0.320485
     36          6           0        2.416196    3.429531   -0.582723
     37          6           0       -1.158607   -0.542016   -0.106096
     38          6           0        1.397937    1.193941   -0.306128
     39          6           0       -1.089461    0.860248   -0.354494
     40          6           0       -0.008032    1.663754   -0.368425
     41          1           0      -13.882654    0.124853    0.755441
     42          1           0      -13.974426    0.029719   -1.247204
     43          1           0       12.446540   -1.867606    2.142095
     44          1           0       13.685237   -0.985688    2.039355
     45          1           0      -14.249518    2.341171   -0.266043
     46          1           0      -12.821117    2.264857   -1.458085
     47          1           0       13.548151   -3.236809    0.531538
     48          1           0       14.073917   -1.418570   -0.353111
     49          1           0      -12.858759    2.081387    1.780308
     50          1           0      -11.838104    3.211105    0.657312
     51          1           0       11.475311   -3.415856    0.068545
     52          1           0       12.453302   -3.056059   -1.539609
     53          1           0      -11.465301    0.508648   -2.375490
     54          1           0      -12.661626   -0.803447   -2.918988
     55          1           0      -10.816230   -1.187562   -2.351709
     56          1           0      -12.597790   -2.121269    0.788171
     57          1           0      -11.775302   -2.819518   -0.646808
     58          1           0      -13.494635   -2.279431   -0.926122
     59          1           0       13.522370    0.571657   -0.416863
     60          1           0       13.952031    0.867893    1.086269
     61          1           0       12.482946    1.797491    0.040080
     62          1           0       10.273684   -0.057479    2.606551
     63          1           0       10.824613    1.243901    1.889835
     64          1           0       12.034184    0.707701    2.935442
     65          1           0       -9.885436   -1.923963    0.696993
     66          1           0       10.296757    1.627172   -0.356138
     67          1           0       -9.341978    0.747987    2.432981
     68          1           0      -10.429241    1.704504    2.737225
     69          1           0       -9.379306    2.471097    1.542950
     70          1           0        9.433798   -1.080966   -2.157553
     71          1           0        9.226936   -2.812456   -1.501090
     72          1           0       10.497036   -2.282469   -2.750950
     73          1           0       -8.199856    0.377346   -0.029215
     74          1           0        8.374028   -0.690085   -0.171624
     75          1           0       -7.971382   -2.834363    1.468481
     76          1           0       -6.619846   -3.446656    0.503815
     77          1           0       -8.261364   -3.209889   -0.210888
     78          1           0        8.662747    2.674369   -1.593649
     79          1           0        8.521117    3.325643    0.104889
     80          1           0        7.037787    3.488687   -0.947548
     81          1           0       -6.143861    0.406051    0.209067
     82          1           0        5.898298    0.014237   -0.049709
     83          1           0       -4.763657   -2.458658    0.507428
     84          1           0        5.174875    2.920634   -0.385072
     85          1           0       -3.393573    0.416332    0.064837
     86          1           0        3.494393    0.157248   -0.220129
     87          1           0       -2.514398   -3.165336    1.284906
     88          1           0       -1.179137   -3.060893    0.212504
     89          1           0       -2.555169   -3.480219   -0.513832
     90          1           0        2.696269    3.713901   -1.625932
     91          1           0        3.122588    3.906133    0.039456
     92          1           0        1.400673    3.937938   -0.360528
     93          1           0       -0.282170   -1.312531   -0.173073
     94          1           0        1.631964    0.105467   -0.073617
     95          1           0       -2.075728    1.368637   -0.527644
     96          1           0        0.016267    2.646040   -0.563078
 ---------------------------------------------------------------------

 SCF Done:  E(RB3LYP) =  -1557.52677134     A.U. after   15 cycles

 Excitation energies and oscillator strengths:

 Excited State   1:      Singlet-A      2.3121 eV  536.25 nm  f=2.8683  <S**2>=0.000
     148 ->149         0.70034
 This state for optimization and/or second-order correction.
 Total Energy, E(TD-HF/TD-DFT) =  -1557.44180445
 Copying the excited state density for this state as the 1-particle RhoCI density.

 The electronic state is 1-A.
 Alpha  occ. eigenvalues --  -10.20466 -10.20357 -10.20290 -10.20217 -10.19954
 Alpha  occ. eigenvalues --  -10.19894 -10.19788 -10.19757 -10.19748 -10.19626
 Alpha  occ. eigenvalues --  -10.19624 -10.19538 -10.19465 -10.19411 -10.19318
 Alpha  occ. eigenvalues --  -10.19255 -10.19003 -10.18983 -10.18953 -10.18918
 Alpha  occ. eigenvalues --  -10.18816 -10.18757 -10.18715 -10.18648 -10.18632
 Alpha  occ. eigenvalues --  -10.18570 -10.18527 -10.18403 -10.18393 -10.18389
 Alpha  occ. eigenvalues --  -10.18383 -10.18364 -10.18151 -10.17917 -10.17823
 Alpha  occ. eigenvalues --  -10.17548 -10.17436 -10.16624 -10.15877 -10.15600
 Alpha  occ. eigenvalues --   -0.84705  -0.84464  -0.84069  -0.83542  -0.82162
 Alpha  occ. eigenvalues --   -0.81566  -0.79260  -0.78715  -0.77769  -0.77292
 Alpha  occ. eigenvalues --   -0.76926  -0.75585  -0.74824  -0.72244  -0.72113
 Alpha  occ. eigenvalues --   -0.70226  -0.69274  -0.69039  -0.68637  -0.68409
 Alpha  occ. eigenvalues --   -0.67877  -0.67280  -0.66424  -0.66145  -0.65936
 Alpha  occ. eigenvalues --   -0.62836  -0.61712  -0.59785  -0.58280  -0.56782
 Alpha  occ. eigenvalues --   -0.56122  -0.55329  -0.55137  -0.54173  -0.52274
 Alpha  occ. eigenvalues --   -0.52015  -0.51440  -0.51057  -0.50195  -0.49343
 Alpha  occ. eigenvalues --   -0.48994  -0.47812  -0.47519  -0.47005  -0.46299
 Alpha  occ. eigenvalues --   -0.45551  -0.45050  -0.44752  -0.44277  -0.43596
 Alpha  occ. eigenvalues --   -0.43361  -0.43157  -0.42885  -0.42849  -0.42657
 Alpha  occ. eigenvalues --   -0.42084  -0.41995  -0.41712  -0.41639  -0.41418
 Alpha  occ. eigenvalues --   -0.40877  -0.40614  -0.40501  -0.40084  -0.39863
 Alpha  occ. eigenvalues --   -0.39617  -0.39498  -0.38842  -0.38365  -0.38107
 Alpha  occ. eigenvalues --   -0.37917  -0.37320  -0.37095  -0.36866  -0.36247
 Alpha  occ. eigenvalues --   -0.36075  -0.36032  -0.35885  -0.35365  -0.35208
 Alpha  occ. eigenvalues --   -0.35054  -0.34461  -0.34307  -0.34063  -0.33595
 Alpha  occ. eigenvalues --   -0.33581  -0.33471  -0.32901  -0.32724  -0.32099
 Alpha  occ. eigenvalues --   -0.31952  -0.31258  -0.30962  -0.30626  -0.30503
 Alpha  occ. eigenvalues --   -0.30000  -0.29647  -0.29474  -0.28810  -0.28137
 Alpha  occ. eigenvalues --   -0.27547  -0.27320  -0.26056  -0.24239  -0.22721
 Alpha  occ. eigenvalues --   -0.20897  -0.18908  -0.16735
 Alpha virt. eigenvalues --   -0.07857  -0.04645  -0.01923   0.00519   0.02369
 Alpha virt. eigenvalues --    0.03579   0.06096   0.06256   0.06480   0.06711
 Alpha virt. eigenvalues --    0.07532   0.07799   0.08494   0.08580   0.08773

 Mulliken charges:
               1
     1  C   -0.020605
     2  C   -0.014820
     3  C   -0.139199
     4  C   -0.160896
     5  C   -0.179734
     6  C   -0.163821
     7  C    0.111713
     8  C    0.055174
     9  C   -0.204025
    10  C   -0.205976
    11  C    0.018012
    12  C    0.061698
    13  C   -0.300315
    14  C   -0.291258
    15  C   -0.315802
    16  C   -0.297109
    17  C   -0.152106
    18  C   -0.165892
    19  C   -0.328898
    20  C   -0.348486
    21  C   -0.052588
    22  C   -0.082534
    23  C    0.095859
    24  C    0.098978
    25  C   -0.374486
    26  C   -0.366633
    27  C   -0.140411
    28  C   -0.104595
    29  C   -0.113744
    30  C   -0.107908
    31  C   -0.053213
    32  C   -0.091284
    33  C    0.136870
    34  C    0.165515
    35  C   -0.402384
    36  C   -0.391302
    37  C   -0.114655
    38  C   -0.139400
    39  C   -0.100148
    40  C   -0.067811
    41  H    0.071978
    42  H    0.098263
    43  H    0.097586
    44  H    0.076592
    45  H    0.062733
    46  H    0.071833
    47  H    0.084620
    48  H    0.049582
    49  H    0.122657
    50  H    0.092149
    51  H    0.106974
    52  H    0.075867
    53  H    0.109982
    54  H    0.062999
    55  H    0.106509
    56  H    0.110931
    57  H    0.063387
    58  H    0.100364
    59  H    0.115463
    60  H    0.109633
    61  H    0.110872
    62  H    0.102303
    63  H    0.103427
    64  H    0.088064
    65  H    0.081574
    66  H    0.071788
    67  H    0.095153
    68  H    0.115869
    69  H    0.097247
    70  H    0.127206
    71  H    0.093729
    72  H    0.110161
    73  H    0.073097
    74  H    0.092049
    75  H    0.119776
    76  H    0.117619
    77  H    0.124059
    78  H    0.130145
    79  H    0.112473
    80  H    0.109461
    81  H    0.078817
    82  H    0.058549
    83  H    0.085660
    84  H    0.070879
    85  H    0.053715
    86  H    0.046387
    87  H    0.125390
    88  H    0.104160
    89  H    0.097561
    90  H    0.120759
    91  H    0.125088
    92  H    0.105709
    93  H    0.074929
    94  H    0.072089
    95  H    0.093163
    96  H    0.069188
 Sum of Mulliken charges =  -0.00000

 Dipole moment (field-independent basis, Debye):
    X=             -0.4010    Y=             -0.0761    Z=              0.4578  Tot=              0.6133
 Quadrupole moment (field-independent basis, Debye-Ang):
   XX=           -226.9943   YY=           -234.2908   ZZ=           -254.5589
   XY=              1.1307   XZ=             -6.0376   YZ=             -3.0413

 Normal termination of Gaussian 16 at Sun Jul 28 14:21:26 2019.
