 Gaussian 16, Revision A.03,
 Gaussian 16:  ES64L-G16RevA.03 25-Dec-2016

 ---------------------------------
 # td=(NStates=1) B3LYP/6-31G(d,p)
 ---------------------------------

 --
 TD
 --
 Symbolic Z-matrix:
 Charge =  0 Multiplicity = 1

                         Standard orientation:
 ---------------------------------------------------------------------
 Center     Atomic      Atomic             Coordinates (Angstroms)
 Number     Number       Type             X           Y           Z
 ---------------------------------------------------------------------
      1          6           0       12.204748    0.484442   -0.827323
      2          6           0      -12.071607   -0.036038    0.900904
      3          6           0       13.425822   -0.395562   -0.547750
      4          6           0      -12.894907    1.243169    1.265735
      5          6           0       13.220857   -1.905559   -0.437050
      6          6           0      -13.349626    2.146736    0.095308
      7          6           0       11.109958    0.079298    0.229048
      8          6           0      -10.959933    0.346982   -0.058095
      9          6           0       12.251048   -2.160509    0.739149
     10          6           0      -12.047830    2.474408   -0.610554
     11          6           0       11.096241   -1.133466    0.925748
     12          6           0      -11.017908    1.505548   -0.823633
     13          6           0       11.483728    0.317994   -2.233854
     14          6           0       12.551656    1.980077   -0.633106
     15          6           0      -12.961873   -1.141610    0.254691
     16          6           0      -11.440484   -0.550654    2.247443
     17          6           0        9.883316    0.901810    0.298116
     18          6           0       -9.909299   -0.609434   -0.167999
     19          6           0       10.178643   -1.622312    1.963999
     20          6           0       -9.962543    1.841561   -1.904002
     21          6           0        8.530886    0.556552    0.316525
     22          6           0       -8.554358   -0.287806   -0.257797
     23          6           0        7.411966    1.415808    0.403857
     24          6           0       -7.573034   -1.286039   -0.408159
     25          6           0        7.553784    2.970931    0.518217
     26          6           0       -7.995092   -2.701901   -0.521590
     27          6           0        6.196739    0.772845    0.458233
     28          6           0       -6.276493   -0.908013   -0.394733
     29          6           0        4.875557    1.385288    0.392107
     30          6           0       -5.082589   -1.591917   -0.650720
     31          6           0        3.665721    0.654817    0.323234
     32          6           0       -3.847235   -1.016520   -0.415255
     33          6           0        2.382350    1.185843    0.401276
     34          6           0       -2.612412   -1.741169   -0.466001
     35          6           0        2.343188    2.737774    0.758150
     36          6           0       -2.649783   -3.240157   -0.726764
     37          6           0        1.184091    0.529260    0.287477
     38          6           0       -1.350855   -1.149329   -0.215297
     39          6           0        1.096424   -0.877442   -0.183221
     40          6           0       -0.080812   -1.515075   -0.218699
     41          1           0       13.817789    0.078837    0.207375
     42          1           0       14.165035   -0.182365   -1.398806
     43          1           0      -12.227381    1.747344    1.908952
     44          1           0      -13.838284    1.032806    1.909115
     45          1           0       14.088745   -2.230178   -0.363009
     46          1           0       12.683032   -2.263117   -1.393084
     47          1           0      -13.847731    2.908678    0.418831
     48          1           0      -13.731859    1.585431   -0.657941
     49          1           0       12.929764   -2.160108    1.738340
     50          1           0       11.726236   -3.157299    0.578189
     51          1           0      -11.451106    3.353418   -0.166434
     52          1           0      -12.212867    2.958311   -1.506417
     53          1           0       11.065783   -0.785980   -2.406849
     54          1           0       12.141033    0.707969   -3.149520
     55          1           0       10.620603    0.964496   -2.239755
     56          1           0       13.097561    2.119854    0.298891
     57          1           0       11.683606    2.624217   -0.660723
     58          1           0       13.255947    2.257304   -1.447513
     59          1           0      -13.296921   -0.673739   -0.764463
     60          1           0      -13.688482   -1.245796    1.055905
     61          1           0      -12.289696   -2.002130    0.148291
     62          1           0      -10.364529    0.087053    2.368908
     63          1           0      -11.196008   -1.482072    1.980573
     64          1           0      -12.052889   -0.552997    3.048440
     65          1           0       10.198151    1.980302    0.465458
     66          1           0      -10.098106   -1.705241   -0.470543
     67          1           0        9.636680   -0.950770    2.472756
     68          1           0       10.693644   -2.252744    2.714634
     69          1           0        9.375720   -2.254385    1.526849
     70          1           0       -9.300926    0.938771   -2.294515
     71          1           0       -9.307403    2.695359   -1.513114
     72          1           0      -10.511602    2.430933   -2.707728
     73          1           0        8.387550   -0.636219    0.436439
     74          1           0       -8.150230    0.616703   -0.238819
     75          1           0        8.040985    3.140615    1.469082
     76          1           0        6.541799    3.370698    0.754076
     77          1           0        7.988809    3.448742   -0.355851
     78          1           0       -8.730395   -2.726874   -1.357630
     79          1           0       -8.503715   -3.157510    0.327555
     80          1           0       -7.119767   -3.431643   -0.855306
     81          1           0        6.175929   -0.284785    0.272541
     82          1           0       -6.164533    0.138154   -0.234966
     83          1           0        4.720845    2.440109    0.551830
     84          1           0       -5.273385   -2.675918   -0.707221
     85          1           0        3.899982   -0.478665    0.200476
     86          1           0       -3.752959   -0.119481   -0.190420
     87          1           0        2.888725    2.943003    1.565680
     88          1           0        1.343858    3.053386    0.729829
     89          1           0        2.819185    3.335527   -0.174061
     90          1           0       -3.012186   -3.613493   -1.810450
     91          1           0       -3.198167   -3.565858    0.071881
     92          1           0       -1.641389   -3.609000   -0.475908
     93          1           0        0.146986    0.969240    0.358676
     94          1           0       -1.743776    0.076029    0.149209
     95          1           0        2.164820   -1.296458   -0.182178
     96          1           0        0.359191   -2.472266   -0.471238
 ---------------------------------------------------------------------

 SCF Done:  E(RB3LYP) =  -1557.55988791     A.U. after   16 cycles

 Excitation energies and oscillator strengths:

 Excited State   1:      Singlet-A      1.9785 eV  626.67 nm  f=3.2794  <S**2>=0.000
     148 ->149         0.70995
     148 <-149        -0.12523
 This state for optimization and/or second-order correction.
 Total Energy, E(TD-HF/TD-DFT) =  -1557.48718084
 Copying the excited state density for this state as the 1-particle RhoCI density.

 The electronic state is 1-A.
 Alpha  occ. eigenvalues --  -10.20635 -10.20293 -10.20286 -10.20273 -10.19812
 Alpha  occ. eigenvalues --  -10.19645 -10.19632 -10.19603 -10.19447 -10.19403
 Alpha  occ. eigenvalues --  -10.19248 -10.19232 -10.19199 -10.19144 -10.18980
 Alpha  occ. eigenvalues --  -10.18970 -10.18915 -10.18885 -10.18849 -10.18831
 Alpha  occ. eigenvalues --  -10.18756 -10.18742 -10.18614 -10.18591 -10.18124
 Alpha  occ. eigenvalues --  -10.17963 -10.17902 -10.17714 -10.17653 -10.17623
 Alpha  occ. eigenvalues --  -10.17494 -10.17437 -10.17362 -10.17335 -10.17260
 Alpha  occ. eigenvalues --  -10.16957 -10.16951 -10.16551 -10.16495 -10.16292
 Alpha  occ. eigenvalues --   -0.85506  -0.84160  -0.84058  -0.83214  -0.82387
 Alpha  occ. eigenvalues --   -0.81314  -0.79626  -0.79108  -0.78234  -0.77452
 Alpha  occ. eigenvalues --   -0.76978  -0.75352  -0.74165  -0.72043  -0.71741
 Alpha  occ. eigenvalues --   -0.69867  -0.69216  -0.68866  -0.68195  -0.67804
 Alpha  occ. eigenvalues --   -0.67742  -0.66953  -0.66932  -0.66700  -0.66185
 Alpha  occ. eigenvalues --   -0.64022  -0.62841  -0.61075  -0.59731  -0.57346
 Alpha  occ. eigenvalues --   -0.56067  -0.55677  -0.54994  -0.54642  -0.53167
 Alpha  occ. eigenvalues --   -0.52630  -0.51986  -0.50776  -0.49377  -0.48649
 Alpha  occ. eigenvalues --   -0.48319  -0.48064  -0.47185  -0.46510  -0.46099
 Alpha  occ. eigenvalues --   -0.46012  -0.45306  -0.44956  -0.44291  -0.43879
 Alpha  occ. eigenvalues --   -0.43725  -0.43127  -0.42879  -0.42741  -0.42496
 Alpha  occ. eigenvalues --   -0.42136  -0.41954  -0.41862  -0.41736  -0.41322
 Alpha  occ. eigenvalues --   -0.41005  -0.40888  -0.39819  -0.39669  -0.39434
 Alpha  occ. eigenvalues --   -0.39427  -0.39123  -0.38987  -0.38498  -0.38127
 Alpha  occ. eigenvalues --   -0.37865  -0.37394  -0.37250  -0.37079  -0.36593
 Alpha  occ. eigenvalues --   -0.36576  -0.36199  -0.36122  -0.35820  -0.35133
 Alpha  occ. eigenvalues --   -0.34925  -0.34540  -0.34466  -0.34146  -0.34079
 Alpha  occ. eigenvalues --   -0.33730  -0.33577  -0.33526  -0.33213  -0.32695
 Alpha  occ. eigenvalues --   -0.32382  -0.32088  -0.31679  -0.31467  -0.30755
 Alpha  occ. eigenvalues --   -0.30277  -0.29990  -0.29315  -0.29094  -0.28927
 Alpha  occ. eigenvalues --   -0.27983  -0.27833  -0.25794  -0.23834  -0.22324
 Alpha  occ. eigenvalues --   -0.20802  -0.18459  -0.15878
 Alpha virt. eigenvalues --   -0.08759  -0.05546  -0.01736   0.00486   0.02596
 Alpha virt. eigenvalues --    0.04047   0.05407   0.05851   0.07504   0.07635
 Alpha virt. eigenvalues --    0.08140   0.08357   0.08688   0.09150   0.09312

 Mulliken charges:
               1
     1  C    0.003121
     2  C   -0.042630
     3  C   -0.171213
     4  C   -0.181701
     5  C   -0.153388
     6  C   -0.155404
     7  C    0.052729
     8  C    0.066892
     9  C   -0.223698
    10  C   -0.243847
    11  C    0.069977
    12  C    0.092091
    13  C   -0.288064
    14  C   -0.316764
    15  C   -0.281118
    16  C   -0.290101
    17  C   -0.156489
    18  C   -0.169120
    19  C   -0.368296
    20  C   -0.363549
    21  C   -0.098018
    22  C   -0.063654
    23  C    0.119228
    24  C    0.155938
    25  C   -0.370611
    26  C   -0.395134
    27  C   -0.129528
    28  C   -0.136362
    29  C   -0.088485
    30  C   -0.082211
    31  C   -0.110843
    32  C   -0.055925
    33  C    0.100547
    34  C    0.095280
    35  C   -0.363304
    36  C   -0.366340
    37  C   -0.126238
    38  C   -0.086021
    39  C   -0.117024
    40  C   -0.075734
    41  H    0.101480
    42  H    0.065057
    43  H    0.103139
    44  H    0.056731
    45  H    0.099402
    46  H    0.089659
    47  H    0.098631
    48  H    0.113710
    49  H    0.078243
    50  H    0.095088
    51  H    0.088384
    52  H    0.093222
    53  H    0.087028
    54  H    0.074723
    55  H    0.116313
    56  H    0.103132
    57  H    0.107548
    58  H    0.097965
    59  H    0.094238
    60  H    0.106663
    61  H    0.100667
    62  H    0.080517
    63  H    0.107226
    64  H    0.106498
    65  H    0.074178
    66  H    0.080012
    67  H    0.131170
    68  H    0.104976
    69  H    0.111933
    70  H    0.120947
    71  H    0.106283
    72  H    0.095126
    73  H    0.067964
    74  H    0.070184
    75  H    0.130140
    76  H    0.109284
    77  H    0.129939
    78  H    0.118156
    79  H    0.131796
    80  H    0.089426
    81  H    0.079555
    82  H    0.061317
    83  H    0.076928
    84  H    0.078952
    85  H    0.069092
    86  H    0.048651
    87  H    0.134153
    88  H    0.111514
    89  H    0.091310
    90  H    0.103064
    91  H    0.135163
    92  H    0.104627
    93  H    0.084811
    94  H    0.025369
    95  H    0.084260
    96  H    0.089465
 Sum of Mulliken charges =  -0.00000

 Dipole moment (field-independent basis, Debye):
    X=             -0.4454    Y=              0.4422    Z=              0.4738  Tot=              0.7864
 Quadrupole moment (field-independent basis, Debye-Ang):
   XX=           -209.9501   YY=           -234.6466   ZZ=           -254.9490
   XY=             -3.9608   XZ=              5.0986   YZ=              0.4383

 Normal termination of Gaussian 16 at Sun Jul 28 01:18:57 2019.
