 Gaussian 16, Revision A.03,
 Gaussian 16:  ES64L-G16RevA.03 25-Dec-2016

 ---------------------------------
 # td=(NStates=1) B3LYP/6-31G(d,p)
 ---------------------------------

 --
 TD
 --
 Symbolic Z-matrix:
 Charge =  0 Multiplicity = 1

                         Standard orientation:
 ---------------------------------------------------------------------
 Center     Atomic      Atomic             Coordinates (Angstroms)
 Number     Number       Type             X           Y           Z
 ---------------------------------------------------------------------
      1          6           0       12.152596    0.543919   -0.831575
      2          6           0      -12.127831   -0.130294    0.806600
      3          6           0       13.473905   -0.328658   -0.640760
      4          6           0      -13.173812    1.029048    1.232685
      5          6           0       13.095479   -1.798292   -0.630315
      6          6           0      -13.548836    1.930031    0.043142
      7          6           0       11.046646    0.017237    0.117784
      8          6           0      -11.067550    0.425612   -0.151924
      9          6           0       12.347520   -2.103141    0.664183
     10          6           0      -12.260841    2.545029   -0.572644
     11          6           0       11.204811   -1.100739    0.964903
     12          6           0      -11.118736    1.597818   -0.755802
     13          6           0       11.586926    0.313777   -2.338526
     14          6           0       12.488498    2.013986   -0.611619
     15          6           0      -13.086174   -1.204105   -0.055022
     16          6           0      -11.625728   -0.796798    2.106432
     17          6           0        9.892329    0.822262    0.237644
     18          6           0       -9.766047   -0.426031   -0.203353
     19          6           0       10.281558   -1.592640    2.013925
     20          6           0       -9.955150    2.100243   -1.816475
     21          6           0        8.575034    0.501435    0.253422
     22          6           0       -8.444113   -0.093613   -0.270266
     23          6           0        7.358459    1.406532    0.482046
     24          6           0       -7.433744   -1.218902   -0.397751
     25          6           0        7.629139    2.935129    0.635444
     26          6           0       -7.903005   -2.681392   -0.685441
     27          6           0        6.133216    0.785063    0.426459
     28          6           0       -6.126781   -0.850708   -0.286854
     29          6           0        4.870444    1.379124    0.497375
     30          6           0       -4.996511   -1.612427   -0.487082
     31          6           0        3.708321    0.627033    0.396359
     32          6           0       -3.764031   -1.047978   -0.298612
     33          6           0        2.389716    1.184600    0.447193
     34          6           0       -2.489836   -1.720323   -0.326330
     35          6           0        2.215057    2.667055    0.886404
     36          6           0       -2.492390   -3.294091   -0.606362
     37          6           0        1.257155    0.437511    0.301749
     38          6           0       -1.356024   -1.104197   -0.261688
     39          6           0        1.183814   -0.902221   -0.007995
     40          6           0        0.031304   -1.563475   -0.266070
     41          1           0       13.920007   -0.277870    0.448852
     42          1           0       14.064165   -0.195271   -1.514470
     43          1           0      -12.645976    1.673582    1.793219
     44          1           0      -13.818329    0.512000    1.895250
     45          1           0       13.995943   -2.399726   -0.848438
     46          1           0       12.553816   -2.011571   -1.480468
     47          1           0      -14.220253    2.722834    0.439660
     48          1           0      -14.092101    1.387249   -0.643725
     49          1           0       13.135179   -2.197003    1.353226
     50          1           0       12.017549   -3.100916    0.700187
     51          1           0      -11.792954    3.361235    0.257265
     52          1           0      -12.331532    3.072930   -1.545539
     53          1           0       11.514517   -0.786806   -2.682092
     54          1           0       12.338274    0.704149   -3.084048
     55          1           0       10.825181    0.882224   -2.489511
     56          1           0       12.483268    2.200023    0.550852
     57          1           0       11.765235    2.728691   -1.124640
     58          1           0       13.475918    2.376960   -0.936296
     59          1           0      -13.268607   -0.532269   -0.975025
     60          1           0      -14.050771   -1.304261    0.424909
     61          1           0      -12.567497   -2.236173   -0.209430
     62          1           0      -10.832785   -0.043094    2.481919
     63          1           0      -11.268992   -2.010046    2.034442
     64          1           0      -12.469841   -0.927537    2.841918
     65          1           0       10.208148    1.819191    0.360797
     66          1           0       -9.910656   -1.537133   -0.431924
     67          1           0        9.847156   -0.652494    2.550214
     68          1           0       10.859160   -1.985727    2.886066
     69          1           0        9.363508   -2.255947    1.619047
     70          1           0       -9.262970    1.328808   -2.009921
     71          1           0       -9.563644    2.913404   -1.325574
     72          1           0      -10.771264    2.690195   -2.555008
     73          1           0        8.202490   -0.579629    0.457514
     74          1           0       -7.973316    0.855131   -0.011974
     75          1           0        8.119766    3.009104    1.452864
     76          1           0        6.652945    3.577863    0.681752
     77          1           0        8.147250    3.175069   -0.192196
     78          1           0       -8.680578   -2.674136   -1.538843
     79          1           0       -8.542753   -2.925222    0.097696
     80          1           0       -7.025677   -3.325745   -0.798651
     81          1           0        6.234518   -0.341728    0.139783
     82          1           0       -6.274867    0.087093    0.002125
     83          1           0        4.773857    2.381659    0.545844
     84          1           0       -4.998633   -2.659713   -0.572088
     85          1           0        3.943916   -0.485212    0.332739
     86          1           0       -3.740040    0.064462    0.019992
     87          1           0        2.604749    2.813945    1.974992
     88          1           0        1.363877    3.158249    0.740704
     89          1           0        2.941675    3.313950    0.223278
     90          1           0       -2.805646   -3.377738   -1.436135
     91          1           0       -3.109635   -3.625507    0.123243
     92          1           0       -1.550425   -3.434281   -0.713760
     93          1           0        0.117012    0.986323    0.419110
     94          1           0       -1.364142   -0.038253   -0.316320
     95          1           0        2.208483   -1.433002   -0.096726
     96          1           0        0.147611   -2.596827   -0.384349
 ---------------------------------------------------------------------

 SCF Done:  E(RB3LYP) =  -1557.51037996     A.U. after   14 cycles

 Excitation energies and oscillator strengths:

 Excited State   1:      Singlet-A      2.3129 eV  536.05 nm  f=3.1086  <S**2>=0.000
     148 ->149         0.70725
 This state for optimization and/or second-order correction.
 Total Energy, E(TD-HF/TD-DFT) =  -1557.42538137
 Copying the excited state density for this state as the 1-particle RhoCI density.

 The electronic state is 1-A.
 Alpha  occ. eigenvalues --  -10.20842 -10.20563 -10.20545 -10.20424 -10.20237
 Alpha  occ. eigenvalues --  -10.19726 -10.19689 -10.19624 -10.19582 -10.19449
 Alpha  occ. eigenvalues --  -10.19332 -10.19323 -10.19310 -10.19178 -10.19042
 Alpha  occ. eigenvalues --  -10.19038 -10.18884 -10.18882 -10.18837 -10.18820
 Alpha  occ. eigenvalues --  -10.18817 -10.18813 -10.18603 -10.18594 -10.18421
 Alpha  occ. eigenvalues --  -10.18421 -10.18409 -10.18392 -10.18271 -10.17941
 Alpha  occ. eigenvalues --  -10.17876 -10.17596 -10.17411 -10.17213 -10.16992
 Alpha  occ. eigenvalues --  -10.16964 -10.16875 -10.16677 -10.16130 -10.14158
 Alpha  occ. eigenvalues --   -0.84363  -0.84202  -0.83925  -0.83134  -0.82137
 Alpha  occ. eigenvalues --   -0.81075  -0.78858  -0.77866  -0.77590  -0.77102
 Alpha  occ. eigenvalues --   -0.76773  -0.75348  -0.74534  -0.72310  -0.71752
 Alpha  occ. eigenvalues --   -0.71286  -0.69688  -0.69193  -0.68140  -0.68053
 Alpha  occ. eigenvalues --   -0.67588  -0.66949  -0.66709  -0.66340  -0.66181
 Alpha  occ. eigenvalues --   -0.62904  -0.61580  -0.60367  -0.58985  -0.57156
 Alpha  occ. eigenvalues --   -0.56464  -0.55697  -0.54914  -0.54443  -0.53607
 Alpha  occ. eigenvalues --   -0.52719  -0.52112  -0.49876  -0.49325  -0.49031
 Alpha  occ. eigenvalues --   -0.48395  -0.47688  -0.47259  -0.47078  -0.46231
 Alpha  occ. eigenvalues --   -0.45471  -0.44951  -0.44881  -0.44591  -0.44479
 Alpha  occ. eigenvalues --   -0.44212  -0.43377  -0.42910  -0.42481  -0.41983
 Alpha  occ. eigenvalues --   -0.41751  -0.41642  -0.41581  -0.41387  -0.40954
 Alpha  occ. eigenvalues --   -0.40708  -0.40090  -0.39973  -0.39829  -0.39807
 Alpha  occ. eigenvalues --   -0.39483  -0.39110  -0.38804  -0.38629  -0.38490
 Alpha  occ. eigenvalues --   -0.37784  -0.37545  -0.37490  -0.37204  -0.36955
 Alpha  occ. eigenvalues --   -0.36579  -0.36241  -0.35884  -0.35431  -0.35283
 Alpha  occ. eigenvalues --   -0.35059  -0.34557  -0.34435  -0.34285  -0.33922
 Alpha  occ. eigenvalues --   -0.33866  -0.33513  -0.33021  -0.32870  -0.32528
 Alpha  occ. eigenvalues --   -0.32398  -0.32060  -0.31597  -0.31117  -0.30850
 Alpha  occ. eigenvalues --   -0.30355  -0.30048  -0.29333  -0.28723  -0.28302
 Alpha  occ. eigenvalues --   -0.27839  -0.27570  -0.26558  -0.24068  -0.22622
 Alpha  occ. eigenvalues --   -0.21199  -0.18934  -0.16513
 Alpha virt. eigenvalues --   -0.07711  -0.04745  -0.01530   0.00653   0.02634
 Alpha virt. eigenvalues --    0.04813   0.05968   0.06291   0.06967   0.07410
 Alpha virt. eigenvalues --    0.07866   0.08465   0.08594   0.08850   0.09292

 Mulliken charges:
               1
     1  C    0.015009
     2  C   -0.014027
     3  C   -0.165218
     4  C   -0.175498
     5  C   -0.195663
     6  C   -0.195454
     7  C    0.061949
     8  C    0.069272
     9  C   -0.227681
    10  C   -0.211535
    11  C    0.073186
    12  C    0.037285
    13  C   -0.306493
    14  C   -0.316677
    15  C   -0.304082
    16  C   -0.287576
    17  C   -0.140849
    18  C   -0.133496
    19  C   -0.364701
    20  C   -0.335974
    21  C   -0.098759
    22  C   -0.111995
    23  C    0.072504
    24  C    0.070158
    25  C   -0.350830
    26  C   -0.384342
    27  C   -0.128895
    28  C   -0.056994
    29  C   -0.048114
    30  C   -0.091495
    31  C   -0.114416
    32  C   -0.101850
    33  C    0.090005
    34  C    0.054715
    35  C   -0.353643
    36  C   -0.316603
    37  C   -0.108574
    38  C   -0.103390
    39  C   -0.074711
    40  C   -0.103709
    41  H    0.081066
    42  H    0.089758
    43  H    0.104236
    44  H    0.093477
    45  H    0.074622
    46  H    0.098854
    47  H    0.094527
    48  H    0.113638
    49  H    0.103443
    50  H    0.102551
    51  H    0.077360
    52  H    0.093993
    53  H    0.100786
    54  H    0.081574
    55  H    0.120392
    56  H    0.092975
    57  H    0.094101
    58  H    0.108732
    59  H    0.096904
    60  H    0.101285
    61  H    0.091063
    62  H    0.103611
    63  H    0.067331
    64  H    0.095763
    65  H    0.085151
    66  H    0.069749
    67  H    0.105272
    68  H    0.109010
    69  H    0.109036
    70  H    0.135097
    71  H    0.132189
    72  H    0.074023
    73  H    0.073039
    74  H    0.092043
    75  H    0.139543
    76  H    0.091802
    77  H    0.136354
    78  H    0.113735
    79  H    0.139774
    80  H    0.108567
    81  H    0.069183
    82  H    0.050196
    83  H    0.070576
    84  H    0.082583
    85  H    0.082404
    86  H    0.069860
    87  H    0.113358
    88  H    0.120247
    89  H    0.089645
    90  H    0.130342
    91  H    0.122581
    92  H    0.099389
    93  H    0.060150
    94  H    0.067847
    95  H    0.081897
    96  H    0.072480
 Sum of Mulliken charges =  -0.00000

 Dipole moment (field-independent basis, Debye):
    X=             -0.0585    Y=              0.6925    Z=              0.4509  Tot=              0.8284
 Quadrupole moment (field-independent basis, Debye-Ang):
   XX=           -211.7111   YY=           -234.2065   ZZ=           -254.4103
   XY=             -2.7333   XZ=             -5.3892   YZ=              1.6476

 Normal termination of Gaussian 16 at Sat Jul 27 05:54:39 2019.
