 Gaussian 16, Revision A.03,
 Gaussian 16:  ES64L-G16RevA.03 25-Dec-2016

 ---------------------------------
 # td=(NStates=1) B3LYP/6-31G(d,p)
 ---------------------------------

 --
 TD
 --
 Symbolic Z-matrix:
 Charge =  0 Multiplicity = 1

                         Standard orientation:
 ---------------------------------------------------------------------
 Center     Atomic      Atomic             Coordinates (Angstroms)
 Number     Number       Type             X           Y           Z
 ---------------------------------------------------------------------
      1          6           0       12.163030    0.577910   -0.470595
      2          6           0      -12.130815    0.025499    0.857818
      3          6           0       13.433311   -0.327073   -0.450740
      4          6           0      -12.912710    1.096917    1.468935
      5          6           0       13.152616   -1.797348   -0.515052
      6          6           0      -13.355707    2.098789    0.306614
      7          6           0       11.054531    0.010412    0.223142
      8          6           0      -10.970148    0.412011   -0.084105
      9          6           0       12.239092   -2.150769    0.631968
     10          6           0      -12.065576    2.644686   -0.342988
     11          6           0       11.118182   -1.184729    0.771351
     12          6           0      -11.042811    1.659096   -0.677362
     13          6           0       11.710464    0.838721   -1.929880
     14          6           0       12.669420    1.982017   -0.117456
     15          6           0      -13.040240   -0.961025    0.096751
     16          6           0      -11.538503   -0.898612    2.081719
     17          6           0        9.832132    0.955298    0.399970
     18          6           0       -9.901794   -0.610772   -0.147698
     19          6           0       10.092831   -1.682223    1.789612
     20          6           0      -10.166380    2.215182   -1.794576
     21          6           0        8.541269    0.412358    0.265213
     22          6           0       -8.579390   -0.370402   -0.254944
     23          6           0        7.399594    1.259666    0.425406
     24          6           0       -7.499941   -1.221152   -0.321875
     25          6           0        7.561247    2.639527    0.662576
     26          6           0       -7.818302   -2.650988   -0.457001
     27          6           0        6.171493    0.631034    0.266549
     28          6           0       -6.250907   -0.848228   -0.314072
     29          6           0        4.943784    1.342351    0.333459
     30          6           0       -5.103362   -1.573952   -0.581087
     31          6           0        3.769050    0.660964    0.004484
     32          6           0       -3.808170   -1.060807   -0.292668
     33          6           0        2.414301    1.237565    0.097513
     34          6           0       -2.606992   -1.819271   -0.448955
     35          6           0        2.245914    2.722679    0.450268
     36          6           0       -2.654340   -3.338522   -0.730371
     37          6           0        1.272661    0.470133   -0.010013
     38          6           0       -1.325216   -1.249547   -0.353898
     39          6           0        1.160490   -0.890920   -0.347613
     40          6           0       -0.028214   -1.679777   -0.473492
     41          1           0       13.980146   -0.206522    0.484824
     42          1           0       14.251390   -0.018549   -1.186351
     43          1           0      -12.484727    1.443604    2.157386
     44          1           0      -13.999115    0.783701    1.867202
     45          1           0       14.100735   -2.220489   -0.479048
     46          1           0       12.795379   -2.035771   -1.411371
     47          1           0      -13.975328    2.947736    0.814857
     48          1           0      -13.841912    1.627381   -0.671617
     49          1           0       12.766025   -2.294656    1.646614
     50          1           0       11.929630   -3.127485    0.508158
     51          1           0      -11.537573    3.311765    0.331622
     52          1           0      -12.393756    3.314633   -1.404579
     53          1           0       11.243281   -0.089432   -2.545309
     54          1           0       12.430642    1.260438   -2.597825
     55          1           0       10.841175    1.585701   -2.038230
     56          1           0       12.850825    2.033360    1.018386
     57          1           0       11.974507    2.876114   -0.305098
     58          1           0       13.621082    2.222468   -0.729747
     59          1           0      -13.481063   -0.406755   -0.801660
     60          1           0      -13.869534   -1.374277    0.576188
     61          1           0      -12.456721   -1.793718   -0.467222
     62          1           0      -10.585006   -0.618586    2.565707
     63          1           0      -10.912681   -1.764728    1.724933
     64          1           0      -12.297842   -1.214160    2.709567
     65          1           0        9.833512    1.942955    0.489705
     66          1           0      -10.388670   -1.523779   -0.137404
     67          1           0        9.360589   -0.850945    2.122550
     68          1           0       10.564094   -2.055291    2.633096
     69          1           0        9.536523   -2.469976    1.143006
     70          1           0       -9.205284    1.619925   -2.114542
     71          1           0       -9.693679    3.096303   -1.341490
     72          1           0      -10.618944    2.456347   -2.718930
     73          1           0        8.191252   -0.670156    0.231919
     74          1           0       -8.141254    0.804161   -0.254255
     75          1           0        8.238463    2.855547    1.684789
     76          1           0        6.616375    3.114077    1.003145
     77          1           0        8.041528    3.289120   -0.217928
     78          1           0       -8.355798   -2.609378   -1.347934
     79          1           0       -8.474542   -3.318519    0.283615
     80          1           0       -6.966192   -3.182509   -0.444447
     81          1           0        6.135612   -0.462969    0.016798
     82          1           0       -5.951399    0.210374   -0.167243
     83          1           0        4.780824    2.347337    0.706288
     84          1           0       -5.415540   -2.724458   -0.748181
     85          1           0        3.880339   -0.483510   -0.174799
     86          1           0       -3.662112   -0.080736   -0.276201
     87          1           0        2.868510    3.191959    1.406150
     88          1           0        1.270938    2.989482    0.545471
     89          1           0        2.733134    3.156922   -0.369803
     90          1           0       -2.982370   -3.393078   -1.773797
     91          1           0       -3.298731   -3.919931    0.046564
     92          1           0       -1.696552   -3.757872   -0.925763
     93          1           0        0.475070    1.167439    0.145660
     94          1           0       -1.524435   -0.182780   -0.083864
     95          1           0        2.069937   -1.464174   -0.368831
     96          1           0       -0.046121   -2.793845   -0.862160
 ---------------------------------------------------------------------

 SCF Done:  E(RB3LYP) =  -1557.53288233     A.U. after   17 cycles

 Excitation energies and oscillator strengths:

 Excited State   1:      Singlet-A      1.9166 eV  646.89 nm  f=3.3379  <S**2>=0.000
     148 ->149         0.71277
     148 <-149        -0.14889
 This state for optimization and/or second-order correction.
 Total Energy, E(TD-HF/TD-DFT) =  -1557.46244761
 Copying the excited state density for this state as the 1-particle RhoCI density.

 The electronic state is 1-A.
 Alpha  occ. eigenvalues --  -10.20521 -10.20217 -10.20152 -10.20125 -10.20100
 Alpha  occ. eigenvalues --  -10.19954 -10.19913 -10.19786 -10.19769 -10.19411
 Alpha  occ. eigenvalues --  -10.19386 -10.19272 -10.19244 -10.19211 -10.19205
 Alpha  occ. eigenvalues --  -10.19040 -10.18874 -10.18843 -10.18754 -10.18738
 Alpha  occ. eigenvalues --  -10.18733 -10.18546 -10.18474 -10.18414 -10.18357
 Alpha  occ. eigenvalues --  -10.18321 -10.18183 -10.18062 -10.17862 -10.17852
 Alpha  occ. eigenvalues --  -10.17780 -10.17561 -10.17557 -10.17481 -10.17427
 Alpha  occ. eigenvalues --  -10.17355 -10.16997 -10.16975 -10.16525 -10.15584
 Alpha  occ. eigenvalues --   -0.85955  -0.85507  -0.84625  -0.83852  -0.82688
 Alpha  occ. eigenvalues --   -0.81679  -0.78808  -0.78644  -0.78518  -0.77820
 Alpha  occ. eigenvalues --   -0.76988  -0.75769  -0.74361  -0.72076  -0.71712
 Alpha  occ. eigenvalues --   -0.70466  -0.69135  -0.68465  -0.68425  -0.67863
 Alpha  occ. eigenvalues --   -0.67765  -0.67338  -0.67006  -0.66000  -0.65764
 Alpha  occ. eigenvalues --   -0.63922  -0.62438  -0.60328  -0.59489  -0.57985
 Alpha  occ. eigenvalues --   -0.57110  -0.56325  -0.55679  -0.54825  -0.53027
 Alpha  occ. eigenvalues --   -0.52615  -0.51374  -0.50711  -0.49860  -0.49278
 Alpha  occ. eigenvalues --   -0.49136  -0.47840  -0.47733  -0.46881  -0.46245
 Alpha  occ. eigenvalues --   -0.45874  -0.45548  -0.44789  -0.44526  -0.44279
 Alpha  occ. eigenvalues --   -0.43760  -0.43454  -0.42871  -0.42734  -0.42321
 Alpha  occ. eigenvalues --   -0.41955  -0.41815  -0.41681  -0.41563  -0.41305
 Alpha  occ. eigenvalues --   -0.40830  -0.40529  -0.40165  -0.39610  -0.39472
 Alpha  occ. eigenvalues --   -0.39335  -0.38914  -0.38728  -0.38473  -0.38141
 Alpha  occ. eigenvalues --   -0.37760  -0.37625  -0.37197  -0.36914  -0.36761
 Alpha  occ. eigenvalues --   -0.36221  -0.35878  -0.35419  -0.35242  -0.35184
 Alpha  occ. eigenvalues --   -0.34892  -0.34712  -0.34427  -0.34155  -0.33955
 Alpha  occ. eigenvalues --   -0.33351  -0.33157  -0.33040  -0.32655  -0.32404
 Alpha  occ. eigenvalues --   -0.32275  -0.31505  -0.31390  -0.30901  -0.30574
 Alpha  occ. eigenvalues --   -0.30490  -0.30290  -0.29762  -0.28921  -0.28649
 Alpha  occ. eigenvalues --   -0.28143  -0.27420  -0.26617  -0.24139  -0.22757
 Alpha  occ. eigenvalues --   -0.20953  -0.18772  -0.15744
 Alpha virt. eigenvalues --   -0.09142  -0.05392  -0.02097   0.01006   0.02698
 Alpha virt. eigenvalues --    0.04565   0.05992   0.06340   0.06980   0.07619
 Alpha virt. eigenvalues --    0.07741   0.07880   0.08262   0.08809   0.08989

 Mulliken charges:
               1
     1  C   -0.015583
     2  C   -0.013158
     3  C   -0.185041
     4  C   -0.120700
     5  C   -0.184147
     6  C   -0.194277
     7  C    0.139874
     8  C    0.076666
     9  C   -0.219923
    10  C   -0.210960
    11  C    0.032641
    12  C    0.056213
    13  C   -0.289143
    14  C   -0.292392
    15  C   -0.289758
    16  C   -0.323716
    17  C   -0.153954
    18  C   -0.127599
    19  C   -0.348720
    20  C   -0.356680
    21  C   -0.086358
    22  C   -0.108976
    23  C    0.180100
    24  C    0.161309
    25  C   -0.393682
    26  C   -0.359428
    27  C   -0.137343
    28  C   -0.112743
    29  C   -0.072177
    30  C   -0.092117
    31  C   -0.118418
    32  C   -0.118656
    33  C    0.074696
    34  C    0.100980
    35  C   -0.362319
    36  C   -0.367146
    37  C   -0.085550
    38  C   -0.090411
    39  C   -0.096618
    40  C   -0.104335
    41  H    0.091165
    42  H    0.071696
    43  H    0.092655
    44  H    0.070806
    45  H    0.091047
    46  H    0.111143
    47  H    0.080677
    48  H    0.100027
    49  H    0.089662
    50  H    0.106650
    51  H    0.117007
    52  H    0.051185
    53  H    0.066230
    54  H    0.097207
    55  H    0.090780
    56  H    0.085682
    57  H    0.087553
    58  H    0.098772
    59  H    0.084107
    60  H    0.109318
    61  H    0.084731
    62  H    0.098268
    63  H    0.083020
    64  H    0.103070
    65  H    0.086212
    66  H    0.099592
    67  H    0.110526
    68  H    0.110084
    69  H    0.097085
    70  H    0.094065
    71  H    0.111004
    72  H    0.121837
    73  H    0.081319
    74  H    0.054731
    75  H    0.089442
    76  H    0.107963
    77  H    0.115907
    78  H    0.132339
    79  H    0.093656
    80  H    0.101060
    81  H    0.084451
    82  H    0.064638
    83  H    0.089196
    84  H    0.074745
    85  H    0.074511
    86  H    0.081948
    87  H    0.089294
    88  H    0.116116
    89  H    0.138589
    90  H    0.122441
    91  H    0.112339
    92  H    0.104652
    93  H    0.070969
    94  H    0.056789
    95  H    0.088350
    96  H    0.071241
 Sum of Mulliken charges =  -0.00000

 Dipole moment (field-independent basis, Debye):
    X=              0.4020    Y=              0.4616    Z=              0.2118  Tot=              0.6477
 Quadrupole moment (field-independent basis, Debye-Ang):
   XX=           -224.7184   YY=           -234.8085   ZZ=           -254.5657
   XY=             -2.5858   XZ=              0.7590   YZ=              2.7030

 Normal termination of Gaussian 16 at Sun Jul 28 19:03:34 2019.
