 Gaussian 16, Revision A.03,
 Gaussian 16:  ES64L-G16RevA.03 25-Dec-2016

 ---------------------------------
 # td=(NStates=1) B3LYP/6-31G(d,p)
 ---------------------------------

 --
 TD
 --
 Symbolic Z-matrix:
 Charge =  0 Multiplicity = 1

                         Standard orientation:
 ---------------------------------------------------------------------
 Center     Atomic      Atomic             Coordinates (Angstroms)
 Number     Number       Type             X           Y           Z
 ---------------------------------------------------------------------
      1          6           0       12.161878    0.379817   -0.780299
      2          6           0      -12.085289   -0.080580    0.849748
      3          6           0       13.432428   -0.456251   -0.505802
      4          6           0      -12.963404    1.094012    1.285021
      5          6           0       13.176474   -1.956874   -0.304966
      6          6           0      -13.415910    2.030121    0.200885
      7          6           0       11.080004    0.016507    0.317779
      8          6           0      -11.011065    0.385336   -0.091094
      9          6           0       12.308558   -2.073548    0.913174
     10          6           0      -12.182357    2.593463   -0.373378
     11          6           0       11.204817   -1.074970    1.033023
     12          6           0      -11.037924    1.613756   -0.653911
     13          6           0       11.461872    0.200557   -2.141454
     14          6           0       12.578233    1.908042   -0.659558
     15          6           0      -12.946402   -1.085170    0.220699
     16          6           0      -11.475366   -0.713845    2.158798
     17          6           0        9.910588    0.940029    0.383167
     18          6           0       -9.939223   -0.598434   -0.343025
     19          6           0       10.223306   -1.489031    2.188801
     20          6           0      -10.049748    2.149730   -1.570377
     21          6           0        8.559744    0.566292    0.343359
     22          6           0       -8.599220   -0.390454   -0.152198
     23          6           0        7.380676    1.414556    0.328257
     24          6           0       -7.473155   -1.381399   -0.480222
     25          6           0        7.534382    2.868198    0.338927
     26          6           0       -7.817228   -2.805154   -0.749891
     27          6           0        6.184677    0.828364    0.215655
     28          6           0       -6.203574   -0.944576   -0.308656
     29          6           0        4.890797    1.509210    0.467245
     30          6           0       -5.035752   -1.758176   -0.365357
     31          6           0        3.680390    0.780079    0.291315
     32          6           0       -3.795188   -1.191171   -0.273055
     33          6           0        2.360676    1.335909    0.200645
     34          6           0       -2.447124   -1.845666   -0.553358
     35          6           0        2.204488    2.881357    0.346944
     36          6           0       -2.508618   -3.426464   -0.825633
     37          6           0        1.266116    0.642281    0.048432
     38          6           0       -1.383462   -1.012157   -0.414086
     39          6           0        1.146861   -0.813472   -0.234665
     40          6           0       -0.097029   -1.482812   -0.390037
     41          1           0       13.922764    0.063833    0.407582
     42          1           0       14.109491   -0.457443   -1.378591
     43          1           0      -12.579866    1.755297    2.004546
     44          1           0      -13.839591    0.585060    1.888061
     45          1           0       14.126023   -2.327001   -0.179001
     46          1           0       12.590508   -2.157414   -1.364749
     47          1           0      -13.965545    2.829942    0.678408
     48          1           0      -14.132788    1.536999   -0.460469
     49          1           0       12.908000   -1.845394    2.030442
     50          1           0       11.967947   -3.253489    1.229733
     51          1           0      -11.875064    3.396040    0.209169
     52          1           0      -12.387536    3.322420   -1.311174
     53          1           0       11.453422   -1.129171   -2.421449
     54          1           0       12.200609    0.609826   -3.042341
     55          1           0       10.445330    0.669041   -2.296210
     56          1           0       12.569135    2.262437    0.478695
     57          1           0       11.962800    2.625724   -1.018161
     58          1           0       13.468260    2.139024   -1.183841
     59          1           0      -13.529322   -0.676229   -0.642561
     60          1           0      -13.778449   -1.361935    0.798497
     61          1           0      -12.432656   -2.008073   -0.199399
     62          1           0      -10.871991    0.184483    2.667585
     63          1           0      -10.969131   -1.589548    1.923634
     64          1           0      -12.293167   -0.990805    2.900772
     65          1           0       10.151409    1.900900    0.152136
     66          1           0      -10.047573   -1.585598   -0.520277
     67          1           0        9.668507   -0.618978    2.703334
     68          1           0       10.989484   -1.565838    3.088251
     69          1           0        9.574040   -2.260628    1.852129
     70          1           0       -9.186367    1.284372   -1.879863
     71          1           0       -9.724773    3.004779   -1.254050
     72          1           0      -10.443430    2.592272   -2.653003
     73          1           0        8.333892   -0.437628    0.346412
     74          1           0       -8.191406    0.587231    0.171580
     75          1           0        8.196226    3.219280    1.117355
     76          1           0        6.689679    3.602606    0.438568
     77          1           0        8.087831    3.114246   -0.610150
     78          1           0       -8.540022   -2.748841   -1.653743
     79          1           0       -8.301433   -3.351200    0.205468
     80          1           0       -6.984094   -3.405912   -0.953991
     81          1           0        6.053630   -0.255880    0.050260
     82          1           0       -6.021958    0.176096    0.046418
     83          1           0        4.847994    2.446637    0.785028
     84          1           0       -5.302146   -2.871967   -0.452343
     85          1           0        3.762701   -0.284220   -0.052738
     86          1           0       -3.726754   -0.027258   -0.100621
     87          1           0        2.140147    3.156734    1.576280
     88          1           0        1.185484    3.317353   -0.070676
     89          1           0        3.038237    3.291427   -0.238988
     90          1           0       -2.828137   -3.723490   -1.957858
     91          1           0       -2.994954   -3.796275   -0.049917
     92          1           0       -1.587476   -3.705985   -0.793322
     93          1           0        0.209302    1.192160   -0.009184
     94          1           0       -1.693277    0.046570   -0.146630
     95          1           0        2.016745   -1.296248    0.075117
     96          1           0       -0.120259   -2.524799   -0.695270
 ---------------------------------------------------------------------

 SCF Done:  E(RB3LYP) =  -1557.54747559     A.U. after   15 cycles

 Excitation energies and oscillator strengths:

 Excited State   1:      Singlet-A      2.2708 eV  545.98 nm  f=2.9067  <S**2>=0.000
     148 ->149         0.70608
 This state for optimization and/or second-order correction.
 Total Energy, E(TD-HF/TD-DFT) =  -1557.46402373
 Copying the excited state density for this state as the 1-particle RhoCI density.

 The electronic state is 1-A.
 Alpha  occ. eigenvalues --  -10.21233 -10.21146 -10.21130 -10.20802 -10.20384
 Alpha  occ. eigenvalues --  -10.20214 -10.19922 -10.19708 -10.19552 -10.19491
 Alpha  occ. eigenvalues --  -10.19400 -10.19146 -10.19142 -10.19106 -10.19065
 Alpha  occ. eigenvalues --  -10.19045 -10.18969 -10.18899 -10.18888 -10.18879
 Alpha  occ. eigenvalues --  -10.18804 -10.18737 -10.18717 -10.18561 -10.18507
 Alpha  occ. eigenvalues --  -10.18478 -10.18419 -10.18411 -10.18398 -10.18356
 Alpha  occ. eigenvalues --  -10.18350 -10.18200 -10.18055 -10.17945 -10.17753
 Alpha  occ. eigenvalues --  -10.17742 -10.17276 -10.17266 -10.17172 -10.16659
 Alpha  occ. eigenvalues --   -0.85866  -0.84745  -0.83430  -0.83045  -0.82274
 Alpha  occ. eigenvalues --   -0.81516  -0.79084  -0.78678  -0.77576  -0.77454
 Alpha  occ. eigenvalues --   -0.76845  -0.75296  -0.74093  -0.72649  -0.71870
 Alpha  occ. eigenvalues --   -0.70696  -0.68689  -0.68362  -0.68004  -0.67679
 Alpha  occ. eigenvalues --   -0.67610  -0.66712  -0.66418  -0.65929  -0.65605
 Alpha  occ. eigenvalues --   -0.62980  -0.61798  -0.59812  -0.58881  -0.57603
 Alpha  occ. eigenvalues --   -0.57016  -0.56242  -0.54441  -0.53641  -0.53218
 Alpha  occ. eigenvalues --   -0.52517  -0.51498  -0.50956  -0.50084  -0.48691
 Alpha  occ. eigenvalues --   -0.48138  -0.47376  -0.46811  -0.46399  -0.45942
 Alpha  occ. eigenvalues --   -0.45542  -0.45076  -0.45034  -0.44524  -0.43788
 Alpha  occ. eigenvalues --   -0.43410  -0.43354  -0.43066  -0.42599  -0.42489
 Alpha  occ. eigenvalues --   -0.41998  -0.41762  -0.41456  -0.41082  -0.40913
 Alpha  occ. eigenvalues --   -0.40814  -0.40405  -0.40023  -0.39635  -0.39155
 Alpha  occ. eigenvalues --   -0.39036  -0.38877  -0.38579  -0.38311  -0.37598
 Alpha  occ. eigenvalues --   -0.37491  -0.37321  -0.37090  -0.36556  -0.36410
 Alpha  occ. eigenvalues --   -0.36152  -0.36098  -0.35792  -0.35480  -0.35176
 Alpha  occ. eigenvalues --   -0.34978  -0.34668  -0.34529  -0.34257  -0.34062
 Alpha  occ. eigenvalues --   -0.33548  -0.33289  -0.32834  -0.32743  -0.32067
 Alpha  occ. eigenvalues --   -0.31967  -0.31945  -0.31776  -0.31171  -0.30838
 Alpha  occ. eigenvalues --   -0.30275  -0.29566  -0.29225  -0.29061  -0.28882
 Alpha  occ. eigenvalues --   -0.28111  -0.27297  -0.26505  -0.24162  -0.22820
 Alpha  occ. eigenvalues --   -0.21104  -0.18980  -0.16623
 Alpha virt. eigenvalues --   -0.07924  -0.04916  -0.01733   0.00769   0.02353
 Alpha virt. eigenvalues --    0.04615   0.04883   0.05495   0.06831   0.07005
 Alpha virt. eigenvalues --    0.07396   0.07537   0.08245   0.08585   0.08746

 Mulliken charges:
               1
     1  C    0.022562
     2  C   -0.012798
     3  C   -0.188472
     4  C   -0.172718
     5  C   -0.166457
     6  C   -0.188017
     7  C    0.076596
     8  C    0.090616
     9  C   -0.183391
    10  C   -0.227854
    11  C    0.053564
    12  C    0.109127
    13  C   -0.261993
    14  C   -0.319998
    15  C   -0.295312
    16  C   -0.280375
    17  C   -0.137716
    18  C   -0.143513
    19  C   -0.348806
    20  C   -0.358315
    21  C   -0.087196
    22  C   -0.087771
    23  C    0.155742
    24  C    0.098448
    25  C   -0.390049
    26  C   -0.366099
    27  C   -0.142391
    28  C   -0.109852
    29  C   -0.073515
    30  C   -0.075595
    31  C   -0.128329
    32  C   -0.132714
    33  C    0.130712
    34  C    0.068725
    35  C   -0.348185
    36  C   -0.342281
    37  C   -0.127152
    38  C   -0.068870
    39  C   -0.107072
    40  C   -0.115150
    41  H    0.091365
    42  H    0.085601
    43  H    0.093969
    44  H    0.059106
    45  H    0.107982
    46  H    0.085707
    47  H    0.090351
    48  H    0.098731
    49  H    0.062159
    50  H    0.069425
    51  H    0.118090
    52  H    0.070022
    53  H    0.038798
    54  H    0.067750
    55  H    0.122677
    56  H    0.082243
    57  H    0.110838
    58  H    0.106438
    59  H    0.093414
    60  H    0.104623
    61  H    0.091106
    62  H    0.084981
    63  H    0.107148
    64  H    0.087214
    65  H    0.070950
    66  H    0.076883
    67  H    0.107322
    68  H    0.088896
    69  H    0.128103
    70  H    0.095412
    71  H    0.127364
    72  H    0.070391
    73  H    0.074734
    74  H    0.076094
    75  H    0.120362
    76  H    0.109404
    77  H    0.119282
    78  H    0.114787
    79  H    0.106260
    80  H    0.114402
    81  H    0.078280
    82  H    0.069746
    83  H    0.080870
    84  H    0.082182
    85  H    0.079135
    86  H    0.073008
    87  H    0.091055
    88  H    0.098524
    89  H    0.117047
    90  H    0.107265
    91  H    0.138503
    92  H    0.121853
    93  H    0.064847
    94  H    0.080734
    95  H    0.090092
    96  H    0.078337
 Sum of Mulliken charges =  -0.00000

 Dipole moment (field-independent basis, Debye):
    X=             -0.2120    Y=              0.1372    Z=              0.1664  Tot=              0.3024
 Quadrupole moment (field-independent basis, Debye-Ang):
   XX=           -226.4757   YY=           -231.5916   ZZ=           -257.4194
   XY=              4.9042   XZ=             -5.3843   YZ=              2.5970

 Normal termination of Gaussian 16 at Tue Jul 23 11:08:53 2019.
