 Gaussian 16, Revision A.03,
 Gaussian 16:  ES64L-G16RevA.03 25-Dec-2016

 ---------------------------------
 # td=(NStates=1) B3LYP/6-31G(d,p)
 ---------------------------------

 --
 TD
 --
 Symbolic Z-matrix:
 Charge =  0 Multiplicity = 1

                         Standard orientation:
 ---------------------------------------------------------------------
 Center     Atomic      Atomic             Coordinates (Angstroms)
 Number     Number       Type             X           Y           Z
 ---------------------------------------------------------------------
      1          6           0       12.088649   -0.559326    0.790235
      2          6           0      -12.135726    0.020261   -0.725905
      3          6           0       13.415565    0.255320    0.726252
      4          6           0      -13.064446   -1.200367   -1.153730
      5          6           0       13.131703    1.864262    0.617898
      6          6           0      -13.406263   -2.041162    0.021520
      7          6           0       11.057628   -0.021463   -0.207502
      8          6           0      -11.060595   -0.399344    0.162673
      9          6           0       12.257036    2.182773   -0.589852
     10          6           0      -12.089282   -2.665872    0.584745
     11          6           0       11.131954    1.218276   -0.819777
     12          6           0      -10.995663   -1.640605    0.695658
     13          6           0       11.504206   -0.606406    2.216494
     14          6           0       12.397125   -2.037457    0.446297
     15          6           0      -13.000052    1.132299   -0.127908
     16          6           0      -11.635107    0.541789   -2.135471
     17          6           0        9.819336   -0.879704   -0.385333
     18          6           0       -9.867387    0.614182    0.328915
     19          6           0       10.125874    1.790265   -1.775158
     20          6           0       -9.884170   -2.105359    1.727737
     21          6           0        8.557710   -0.496683   -0.261853
     22          6           0       -8.522493    0.382715    0.187201
     23          6           0        7.425669   -1.325565   -0.573179
     24          6           0       -7.461781    1.336327    0.372172
     25          6           0        7.622762   -2.789787   -0.927203
     26          6           0       -7.700899    2.735390    0.614305
     27          6           0        6.112439   -0.802020   -0.297560
     28          6           0       -6.191727    0.917722    0.305056
     29          6           0        4.889535   -1.413228   -0.417089
     30          6           0       -5.031325    1.716988    0.411050
     31          6           0        3.668141   -0.794689   -0.250898
     32          6           0       -3.790190    1.175775    0.180274
     33          6           0        2.362817   -1.327831   -0.323616
     34          6           0       -2.513639    1.931960    0.218362
     35          6           0        2.182172   -2.801571   -0.692832
     36          6           0       -2.664578    3.424899    0.449274
     37          6           0        1.246971   -0.559313   -0.053070
     38          6           0       -1.329808    1.155608    0.208233
     39          6           0        1.206511    0.851481    0.156207
     40          6           0        0.116057    1.614371    0.241848
     41          1           0       14.187146    0.026836   -0.019721
     42          1           0       14.046314   -0.142581    1.618760
     43          1           0      -12.425159   -1.927714   -1.847414
     44          1           0      -13.901249   -0.920783   -1.561413
     45          1           0       14.072955    2.462854    0.325306
     46          1           0       12.770298    1.997702    1.542893
     47          1           0      -14.202946   -2.793940   -0.361099
     48          1           0      -13.938866   -1.350034    0.599678
     49          1           0       12.945232    2.282413   -1.526653
     50          1           0       11.753868    3.196572   -0.681654
     51          1           0      -11.580790   -3.610062   -0.055203
     52          1           0      -12.300534   -3.164987    1.606086
     53          1           0       11.412129    0.524849    2.401371
     54          1           0       12.289845   -1.088976    3.054497
     55          1           0       10.673671   -1.138133    2.339501
     56          1           0       12.450069   -2.205173   -0.817513
     57          1           0       11.602857   -2.743571    0.778954
     58          1           0       13.656503   -2.190978    0.758271
     59          1           0      -13.493963    0.676900    0.739204
     60          1           0      -13.725202    1.673101   -0.569466
     61          1           0      -12.071782    1.674180    0.220001
     62          1           0      -10.838668   -0.128349   -2.487906
     63          1           0      -10.915867    1.455810   -2.054167
     64          1           0      -12.469081    0.749635   -2.705495
     65          1           0       10.054078   -1.951047   -0.425251
     66          1           0      -10.020497    1.683926    0.582511
     67          1           0        9.611347    0.823677   -2.398571
     68          1           0       10.766131    2.140564   -2.506465
     69          1           0        9.604084    2.478005   -1.417589
     70          1           0       -9.140455   -1.340046    1.983814
     71          1           0       -9.354769   -3.133318    1.442104
     72          1           0      -10.370026   -2.274521    2.843261
     73          1           0        8.221282    0.594752    0.084281
     74          1           0       -8.385111   -0.544336    0.149462
     75          1           0        8.214320   -2.965971   -1.695630
     76          1           0        6.730409   -3.319679   -1.130544
     77          1           0        7.861992   -3.439771    0.077733
     78          1           0       -7.884246    3.299431    1.756368
     79          1           0       -8.783222    3.060724   -0.056732
     80          1           0       -6.711955    3.325448    0.056086
     81          1           0        6.040738    0.223978   -0.064137
     82          1           0       -5.841987   -0.117432    0.275052
     83          1           0        5.091880   -2.434940   -0.557187
     84          1           0       -5.200794    2.641598    0.782045
     85          1           0        3.733212    0.121962    0.009468
     86          1           0       -3.680924    0.268776   -0.100221
     87          1           0        2.574368   -2.892216   -1.910376
     88          1           0        1.147565   -3.033033   -0.584297
     89          1           0        2.941924   -3.562124   -0.177406
     90          1           0       -3.322188    3.605626    1.484667
     91          1           0       -3.259256    3.808574   -0.362158
     92          1           0       -1.796252    4.063770    0.575263
     93          1           0        0.338266   -1.069279   -0.202425
     94          1           0       -1.461066    0.094301   -0.019281
     95          1           0        2.162479    1.474143    0.155425
     96          1           0        0.273511    2.683425    0.387086
 ---------------------------------------------------------------------

 SCF Done:  E(RB3LYP) =  -1557.45469911     A.U. after   16 cycles

 Excitation energies and oscillator strengths:

 Excited State   1:      Singlet-A      2.1739 eV  570.33 nm  f=2.9158  <S**2>=0.000
     148 ->149         0.70478
 This state for optimization and/or second-order correction.
 Total Energy, E(TD-HF/TD-DFT) =  -1557.37481027
 Copying the excited state density for this state as the 1-particle RhoCI density.

 The electronic state is 1-A.
 Alpha  occ. eigenvalues --  -10.22566 -10.21190 -10.20858 -10.20767 -10.20712
 Alpha  occ. eigenvalues --  -10.20494 -10.20491 -10.20295 -10.20137 -10.20012
 Alpha  occ. eigenvalues --  -10.19994 -10.19684 -10.19615 -10.19513 -10.19417
 Alpha  occ. eigenvalues --  -10.19408 -10.19351 -10.19254 -10.19241 -10.19103
 Alpha  occ. eigenvalues --  -10.19065 -10.19054 -10.18816 -10.18718 -10.18642
 Alpha  occ. eigenvalues --  -10.18473 -10.18455 -10.18337 -10.18274 -10.18253
 Alpha  occ. eigenvalues --  -10.18145 -10.17872 -10.17689 -10.17638 -10.17404
 Alpha  occ. eigenvalues --  -10.16762 -10.16747 -10.16625 -10.16287 -10.16190
 Alpha  occ. eigenvalues --   -0.85194  -0.84567  -0.84097  -0.83796  -0.82198
 Alpha  occ. eigenvalues --   -0.81383  -0.79270  -0.79117  -0.77697  -0.77512
 Alpha  occ. eigenvalues --   -0.76818  -0.75328  -0.74778  -0.72667  -0.71915
 Alpha  occ. eigenvalues --   -0.69580  -0.69148  -0.68184  -0.68051  -0.67574
 Alpha  occ. eigenvalues --   -0.67317  -0.67290  -0.65924  -0.65857  -0.65726
 Alpha  occ. eigenvalues --   -0.63514  -0.62288  -0.59861  -0.58919  -0.56777
 Alpha  occ. eigenvalues --   -0.56569  -0.56053  -0.55672  -0.55361  -0.54686
 Alpha  occ. eigenvalues --   -0.53099  -0.52314  -0.51023  -0.50185  -0.49665
 Alpha  occ. eigenvalues --   -0.48254  -0.47978  -0.47459  -0.46981  -0.46235
 Alpha  occ. eigenvalues --   -0.46070  -0.45709  -0.45138  -0.44886  -0.44217
 Alpha  occ. eigenvalues --   -0.43892  -0.43267  -0.43120  -0.42534  -0.42401
 Alpha  occ. eigenvalues --   -0.42167  -0.41883  -0.41658  -0.41116  -0.40403
 Alpha  occ. eigenvalues --   -0.40299  -0.40050  -0.39782  -0.39451  -0.38989
 Alpha  occ. eigenvalues --   -0.38970  -0.38602  -0.38215  -0.38092  -0.37925
 Alpha  occ. eigenvalues --   -0.37766  -0.37614  -0.37136  -0.37003  -0.36693
 Alpha  occ. eigenvalues --   -0.36407  -0.36006  -0.35671  -0.35511  -0.35434
 Alpha  occ. eigenvalues --   -0.34819  -0.34736  -0.34546  -0.34432  -0.34011
 Alpha  occ. eigenvalues --   -0.33892  -0.33346  -0.32999  -0.32942  -0.32326
 Alpha  occ. eigenvalues --   -0.32225  -0.32003  -0.31751  -0.30868  -0.30637
 Alpha  occ. eigenvalues --   -0.30334  -0.30233  -0.29234  -0.28764  -0.28263
 Alpha  occ. eigenvalues --   -0.27581  -0.27175  -0.26129  -0.24079  -0.22963
 Alpha  occ. eigenvalues --   -0.21685  -0.18912  -0.16707
 Alpha virt. eigenvalues --   -0.08500  -0.05777  -0.01691   0.00550   0.01962
 Alpha virt. eigenvalues --    0.03399   0.05318   0.05818   0.06432   0.06882
 Alpha virt. eigenvalues --    0.07569   0.07920   0.07975   0.08270   0.08392

 Mulliken charges:
               1
     1  C    0.007758
     2  C   -0.039214
     3  C   -0.202708
     4  C   -0.147605
     5  C   -0.192059
     6  C   -0.188398
     7  C    0.077865
     8  C    0.078577
     9  C   -0.218125
    10  C   -0.206320
    11  C    0.052995
    12  C    0.067466
    13  C   -0.266855
    14  C   -0.277537
    15  C   -0.293227
    16  C   -0.284247
    17  C   -0.171228
    18  C   -0.161158
    19  C   -0.341417
    20  C   -0.350328
    21  C   -0.054024
    22  C   -0.036975
    23  C    0.098542
    24  C    0.140298
    25  C   -0.368606
    26  C   -0.357930
    27  C   -0.128182
    28  C   -0.100999
    29  C   -0.041582
    30  C   -0.069815
    31  C   -0.089417
    32  C   -0.096199
    33  C    0.129772
    34  C    0.114170
    35  C   -0.350497
    36  C   -0.368643
    37  C   -0.131791
    38  C   -0.131754
    39  C   -0.062019
    40  C   -0.106818
    41  H    0.099002
    42  H    0.077829
    43  H    0.067348
    44  H    0.085426
    45  H    0.084315
    46  H    0.119321
    47  H    0.074262
    48  H    0.105438
    49  H    0.093503
    50  H    0.095823
    51  H    0.079887
    52  H    0.097851
    53  H    0.090250
    54  H    0.067393
    55  H    0.122558
    56  H    0.062683
    57  H    0.108792
    58  H    0.065035
    59  H    0.090292
    60  H    0.109160
    61  H    0.100269
    62  H    0.103581
    63  H    0.075060
    64  H    0.106812
    65  H    0.085462
    66  H    0.081359
    67  H    0.089624
    68  H    0.115543
    69  H    0.125817
    70  H    0.123627
    71  H    0.095315
    72  H    0.083202
    73  H    0.074637
    74  H    0.053825
    75  H    0.132650
    76  H    0.114857
    77  H    0.095572
    78  H    0.097248
    79  H    0.068237
    80  H    0.085332
    81  H    0.062696
    82  H    0.074830
    83  H    0.059386
    84  H    0.082723
    85  H    0.053281
    86  H    0.063033
    87  H    0.084350
    88  H    0.113350
    89  H    0.109005
    90  H    0.095767
    91  H    0.132314
    92  H    0.113450
    93  H    0.074918
    94  H    0.079316
    95  H    0.085859
    96  H    0.079755
 Sum of Mulliken charges =  -0.00000

 Dipole moment (field-independent basis, Debye):
    X=              1.5091    Y=              0.1070    Z=             -0.0089  Tot=              1.5129
 Quadrupole moment (field-independent basis, Debye-Ang):
   XX=           -233.3931   YY=           -236.5186   ZZ=           -257.0860
   XY=              5.1524   XZ=             -4.6132   YZ=              1.0805

 Normal termination of Gaussian 16 at Sun Jul 28 23:18:15 2019.
