 Gaussian 16, Revision A.03,
 Gaussian 16:  ES64L-G16RevA.03 25-Dec-2016

 ---------------------------------
 # td=(NStates=1) B3LYP/6-31G(d,p)
 ---------------------------------

 --
 TD
 --
 Symbolic Z-matrix:
 Charge =  0 Multiplicity = 1

                         Standard orientation:
 ---------------------------------------------------------------------
 Center     Atomic      Atomic             Coordinates (Angstroms)
 Number     Number       Type             X           Y           Z
 ---------------------------------------------------------------------
      1          6           0       12.158880    0.527519   -0.909158
      2          6           0      -12.129099   -0.056883    0.725611
      3          6           0       13.461472   -0.341210   -0.712900
      4          6           0      -13.111336    1.091455    1.237719
      5          6           0       13.117418   -1.779281   -0.580894
      6          6           0      -13.424036    2.057570   -0.004194
      7          6           0       11.079733    0.076921    0.244906
      8          6           0      -11.069136    0.462988   -0.173363
      9          6           0       12.425548   -1.950582    0.805045
     10          6           0      -12.018264    2.724079   -0.336255
     11          6           0       11.218387   -1.166588    0.999829
     12          6           0      -10.908086    1.694810   -0.663172
     13          6           0       11.531062    0.330398   -2.258784
     14          6           0       12.511280    2.045698   -0.626085
     15          6           0      -13.103365   -1.090105   -0.108716
     16          6           0      -11.646317   -0.842457    1.950971
     17          6           0        9.854126    0.928903    0.345902
     18          6           0       -9.921294   -0.479179   -0.416038
     19          6           0       10.214565   -1.526750    2.071549
     20          6           0       -9.869563    2.338569   -1.574368
     21          6           0        8.614219    0.495685    0.298443
     22          6           0       -8.646944   -0.340371   -0.186270
     23          6           0        7.318452    1.283747    0.364109
     24          6           0       -7.443776   -1.304685   -0.462203
     25          6           0        7.591585    2.780353    0.610592
     26          6           0       -7.875934   -2.765357   -0.757944
     27          6           0        6.245091    0.800353    0.194198
     28          6           0       -6.245696   -0.850140   -0.205606
     29          6           0        4.893401    1.368322    0.421702
     30          6           0       -5.029266   -1.646516   -0.423658
     31          6           0        3.692659    0.679268    0.425606
     32          6           0       -3.841940   -1.121985   -0.233976
     33          6           0        2.353986    1.110218    0.498352
     34          6           0       -2.510572   -1.819756   -0.296127
     35          6           0        2.349414    2.690494    0.664876
     36          6           0       -2.563931   -3.291949   -0.716295
     37          6           0        1.288551    0.463491    0.238141
     38          6           0       -1.429366   -1.152223   -0.034965
     39          6           0        1.189840   -0.956129   -0.036215
     40          6           0       -0.099889   -1.641714   -0.115767
     41          1           0       14.038331   -0.162901    0.084532
     42          1           0       14.092145   -0.257890   -1.666138
     43          1           0      -12.743223    1.606364    2.124238
     44          1           0      -13.920411    0.609574    1.664885
     45          1           0       14.215472   -2.246015   -0.639127
     46          1           0       12.531695   -2.208285   -1.284897
     47          1           0      -14.222330    2.689300    0.322907
     48          1           0      -13.935534    1.419653   -0.765114
     49          1           0       13.268911   -1.773531    1.599056
     50          1           0       11.993249   -3.009090    0.975064
     51          1           0      -11.718919    3.359882    0.549666
     52          1           0      -12.282714    3.257835   -1.344411
     53          1           0       11.786948   -0.800526   -2.613224
     54          1           0       12.130479    1.158096   -3.129024
     55          1           0       10.408917    0.567143   -2.253960
     56          1           0       12.510730    2.385728    0.333464
     57          1           0       11.869373    2.772798   -1.309566
     58          1           0       13.448241    1.985874   -1.019203
     59          1           0      -13.679282   -0.397931   -0.687919
     60          1           0      -13.973768   -1.343208    0.524954
     61          1           0      -12.412831   -1.830145   -0.498905
     62          1           0      -11.179468   -0.255139    2.718483
     63          1           0      -11.048492   -1.824604    1.451771
     64          1           0      -12.424717   -1.127595    2.518309
     65          1           0       10.005612    1.893379    0.337150
     66          1           0      -10.411976   -1.683547   -0.722125
     67          1           0        9.635018   -0.606675    2.267288
     68          1           0       10.706604   -1.957432    2.942533
     69          1           0        9.703399   -2.299327    1.741964
     70          1           0       -9.167664    1.461058   -1.649013
     71          1           0       -9.479979    3.163066   -0.968204
     72          1           0       -9.996111    2.822677   -2.597722
     73          1           0        8.382566   -0.598163    0.246098
     74          1           0       -8.313575    0.592967    0.239691
     75          1           0        7.976249    2.900727    1.536291
     76          1           0        6.848426    3.304652    0.278841
     77          1           0        8.439853    3.106026   -0.308233
     78          1           0       -8.791112   -2.652366   -1.565561
     79          1           0       -8.363494   -3.183197   -0.016145
     80          1           0       -7.144709   -3.440228   -1.410697
     81          1           0        6.317656   -0.254974    0.227407
     82          1           0       -6.181887    0.153315    0.342943
     83          1           0        4.912988    2.460652    0.547532
     84          1           0       -5.175445   -2.655220   -0.715821
     85          1           0        3.728443   -0.493551    0.225333
     86          1           0       -3.740983   -0.257773    0.310108
     87          1           0        2.787285    3.119577    1.565567
     88          1           0        1.188725    3.120357    0.821246
     89          1           0        2.762725    3.120755   -0.309797
     90          1           0       -2.693520   -3.382571   -1.793675
     91          1           0       -3.406837   -4.151206   -0.373639
     92          1           0       -1.431777   -3.724081   -0.437937
     93          1           0        0.330809    1.152021    0.246485
     94          1           0       -1.506146   -0.165215    0.096749
     95          1           0        1.993472   -1.708938    0.025684
     96          1           0        0.001426   -2.694038   -0.373777
 ---------------------------------------------------------------------

 SCF Done:  E(RB3LYP) =  -1557.43324478     A.U. after   14 cycles

 Excitation energies and oscillator strengths:

 Excited State   1:      Singlet-A      2.7154 eV  456.59 nm  f=2.5772  <S**2>=0.000
     148 ->149         0.69480
 This state for optimization and/or second-order correction.
 Total Energy, E(TD-HF/TD-DFT) =  -1557.33345531
 Copying the excited state density for this state as the 1-particle RhoCI density.

 The electronic state is 1-A.
 Alpha  occ. eigenvalues --  -10.20952 -10.20635 -10.20586 -10.20437 -10.20337
 Alpha  occ. eigenvalues --  -10.20203 -10.20192 -10.20047 -10.19830 -10.19781
 Alpha  occ. eigenvalues --  -10.19622 -10.19618 -10.19594 -10.19441 -10.19364
 Alpha  occ. eigenvalues --  -10.19345 -10.19215 -10.19180 -10.19138 -10.18984
 Alpha  occ. eigenvalues --  -10.18896 -10.18794 -10.18731 -10.18473 -10.18401
 Alpha  occ. eigenvalues --  -10.18369 -10.18332 -10.17942 -10.17856 -10.17728
 Alpha  occ. eigenvalues --  -10.17574 -10.17348 -10.17316 -10.17297 -10.17202
 Alpha  occ. eigenvalues --  -10.17157 -10.17045 -10.16566 -10.16387 -10.16330
 Alpha  occ. eigenvalues --   -0.84714  -0.84622  -0.84050  -0.83787  -0.82954
 Alpha  occ. eigenvalues --   -0.81754  -0.78633  -0.78441  -0.78065  -0.77608
 Alpha  occ. eigenvalues --   -0.76187  -0.75052  -0.73975  -0.72543  -0.71765
 Alpha  occ. eigenvalues --   -0.70032  -0.69011  -0.68663  -0.68374  -0.68245
 Alpha  occ. eigenvalues --   -0.67976  -0.67629  -0.66657  -0.65910  -0.65342
 Alpha  occ. eigenvalues --   -0.62501  -0.61477  -0.60026  -0.59509  -0.57358
 Alpha  occ. eigenvalues --   -0.56910  -0.56322  -0.54382  -0.53956  -0.53609
 Alpha  occ. eigenvalues --   -0.52122  -0.51662  -0.50615  -0.50302  -0.48766
 Alpha  occ. eigenvalues --   -0.48376  -0.47592  -0.46641  -0.46345  -0.46107
 Alpha  occ. eigenvalues --   -0.45859  -0.45622  -0.45218  -0.44623  -0.44160
 Alpha  occ. eigenvalues --   -0.43653  -0.43323  -0.43273  -0.42626  -0.42549
 Alpha  occ. eigenvalues --   -0.41978  -0.41713  -0.41306  -0.41240  -0.40983
 Alpha  occ. eigenvalues --   -0.40839  -0.40558  -0.40241  -0.40033  -0.39571
 Alpha  occ. eigenvalues --   -0.39378  -0.39144  -0.38431  -0.38378  -0.37680
 Alpha  occ. eigenvalues --   -0.37402  -0.37276  -0.37091  -0.36701  -0.36638
 Alpha  occ. eigenvalues --   -0.36551  -0.36067  -0.35833  -0.35520  -0.35140
 Alpha  occ. eigenvalues --   -0.34993  -0.34503  -0.34442  -0.33910  -0.33841
 Alpha  occ. eigenvalues --   -0.33801  -0.33579  -0.32933  -0.32466  -0.32150
 Alpha  occ. eigenvalues --   -0.32014  -0.31248  -0.31040  -0.30857  -0.30449
 Alpha  occ. eigenvalues --   -0.30071  -0.29914  -0.29343  -0.28876  -0.28460
 Alpha  occ. eigenvalues --   -0.27566  -0.27087  -0.26521  -0.24415  -0.22894
 Alpha  occ. eigenvalues --   -0.21190  -0.19801  -0.17815
 Alpha virt. eigenvalues --   -0.07235  -0.03638  -0.01408   0.00489   0.01911
 Alpha virt. eigenvalues --    0.04271   0.05243   0.05950   0.06745   0.06981
 Alpha virt. eigenvalues --    0.07719   0.07968   0.08229   0.08853   0.09106

 Mulliken charges:
               1
     1  C    0.041583
     2  C   -0.039978
     3  C   -0.172440
     4  C   -0.199311
     5  C   -0.178691
     6  C   -0.198981
     7  C    0.006152
     8  C    0.136870
     9  C   -0.222863
    10  C   -0.213424
    11  C    0.068538
    12  C    0.038348
    13  C   -0.270636
    14  C   -0.312607
    15  C   -0.297127
    16  C   -0.267515
    17  C   -0.123980
    18  C   -0.144950
    19  C   -0.357271
    20  C   -0.354738
    21  C   -0.084712
    22  C   -0.088770
    23  C    0.162419
    24  C    0.120239
    25  C   -0.341922
    26  C   -0.365371
    27  C   -0.141204
    28  C   -0.126575
    29  C   -0.108376
    30  C   -0.066084
    31  C   -0.107163
    32  C   -0.110054
    33  C    0.154049
    34  C    0.133481
    35  C   -0.367532
    36  C   -0.369189
    37  C   -0.126660
    38  C   -0.074621
    39  C   -0.112769
    40  C   -0.119873
    41  H    0.106855
    42  H    0.078145
    43  H    0.083086
    44  H    0.084930
    45  H    0.066333
    46  H    0.108837
    47  H    0.091966
    48  H    0.098645
    49  H    0.091656
    50  H    0.076208
    51  H    0.107439
    52  H    0.087850
    53  H    0.085404
    54  H    0.039739
    55  H    0.118644
    56  H    0.114977
    57  H    0.080695
    58  H    0.115013
    59  H    0.103590
    60  H    0.097246
    61  H    0.107548
    62  H    0.095916
    63  H    0.066618
    64  H    0.107052
    65  H    0.073758
    66  H    0.025723
    67  H    0.123803
    68  H    0.099530
    69  H    0.128531
    70  H    0.113233
    71  H    0.114307
    72  H    0.113609
    73  H    0.068776
    74  H    0.086126
    75  H    0.133827
    76  H    0.115599
    77  H    0.063243
    78  H    0.089674
    79  H    0.148576
    80  H    0.100616
    81  H    0.064087
    82  H    0.080398
    83  H    0.082071
    84  H    0.080868
    85  H    0.057914
    86  H    0.075490
    87  H    0.125200
    88  H    0.059067
    89  H    0.123265
    90  H    0.136510
    91  H    0.093530
    92  H    0.084575
    93  H    0.084638
    94  H    0.071884
    95  H    0.099227
    96  H    0.071655
 Sum of Mulliken charges =  -0.00000

 Dipole moment (field-independent basis, Debye):
    X=             -0.7854    Y=              0.0796    Z=              0.8450  Tot=              1.1564
 Quadrupole moment (field-independent basis, Debye-Ang):
   XX=           -219.1409   YY=           -237.7796   ZZ=           -254.3955
   XY=             -4.0792   XZ=             -0.9027   YZ=              3.9767

 Normal termination of Gaussian 16 at Fri Jul 26 14:45:39 2019.
