 Gaussian 16, Revision A.03,
 Gaussian 16:  ES64L-G16RevA.03 25-Dec-2016

 ---------------------------------
 # td=(NStates=1) B3LYP/6-31G(d,p)
 ---------------------------------

 --
 TD
 --
 Symbolic Z-matrix:
 Charge =  0 Multiplicity = 1

                         Standard orientation:
 ---------------------------------------------------------------------
 Center     Atomic      Atomic             Coordinates (Angstroms)
 Number     Number       Type             X           Y           Z
 ---------------------------------------------------------------------
      1          6           0       12.271873    0.550471   -0.556175
      2          6           0      -12.266029   -0.009757    0.918357
      3          6           0       13.565816   -0.272784   -0.362584
      4          6           0      -13.107849    1.149975    1.480596
      5          6           0       13.344927   -1.808277   -0.338845
      6          6           0      -13.508289    2.015878    0.274900
      7          6           0       11.162314   -0.093616    0.348661
      8          6           0      -11.075792    0.376817   -0.047308
      9          6           0       12.353263   -2.103413    0.888092
     10          6           0      -12.298974    2.623618   -0.494182
     11          6           0       11.149051   -1.260178    0.949082
     12          6           0      -11.224270    1.609940   -0.712177
     13          6           0       11.826092    0.457495   -2.060941
     14          6           0       12.493525    2.010012   -0.330058
     15          6           0      -13.069853   -1.140081    0.340549
     16          6           0      -11.560018   -0.584110    2.270290
     17          6           0        9.871790    0.873712    0.374068
     18          6           0       -9.950357   -0.525068   -0.199190
     19          6           0       10.199733   -1.655324    2.157903
     20          6           0      -10.176923    1.989100   -1.720936
     21          6           0        8.557105    0.478230    0.260236
     22          6           0       -8.575704   -0.235434   -0.217338
     23          6           0        7.492303    1.398439    0.286855
     24          6           0       -7.576950   -1.276068   -0.404471
     25          6           0        7.734177    2.790845    0.522621
     26          6           0       -7.933232   -2.721949   -0.519943
     27          6           0        6.247812    0.796474   -0.000567
     28          6           0       -6.257669   -0.928745   -0.452999
     29          6           0        4.906661    1.505828    0.190234
     30          6           0       -5.055382   -1.736362   -0.546165
     31          6           0        3.774012    0.825033    0.109994
     32          6           0       -3.835394   -1.157270   -0.457850
     33          6           0        2.356741    1.301941    0.149079
     34          6           0       -2.502384   -1.814364   -0.510973
     35          6           0        2.320436    2.786728    0.385897
     36          6           0       -2.628570   -3.272214   -0.879234
     37          6           0        1.251141    0.493350   -0.048118
     38          6           0       -1.352621   -1.074196   -0.422379
     39          6           0        1.175219   -0.979477   -0.433271
     40          6           0       -0.005511   -1.637973   -0.502960
     41          1           0       14.147265    0.129551    0.480218
     42          1           0       14.276160   -0.050131   -1.174550
     43          1           0      -12.536325    1.606357    2.098434
     44          1           0      -14.004655    0.806154    2.051544
     45          1           0       14.232962   -2.287428   -0.261837
     46          1           0       12.837994   -2.102659   -1.200535
     47          1           0      -14.167064    2.825514    0.813946
     48          1           0      -14.249154    1.403409   -0.294658
     49          1           0       12.786840   -2.044204    1.878436
     50          1           0       12.070104   -3.086234    0.830970
     51          1           0      -11.663231    3.587843   -0.118267
     52          1           0      -12.456354    2.863041   -1.581524
     53          1           0       11.886443   -0.731148   -2.468568
     54          1           0       12.634429    0.790716   -2.679756
     55          1           0       10.928469    0.879916   -2.234276
     56          1           0       12.699269    2.399801    0.761068
     57          1           0       11.672966    2.766474   -0.680337
     58          1           0       13.441926    2.317356   -0.703957
     59          1           0      -13.529430   -0.640556   -0.454205
     60          1           0      -13.914318   -1.339177    1.068558
     61          1           0      -12.578838   -1.956608   -0.164111
     62          1           0      -10.841192    0.073599    2.838644
     63          1           0      -10.988790   -1.496537    1.807425
     64          1           0      -12.422247   -0.741827    3.062741
     65          1           0       10.012419    1.808899    0.629327
     66          1           0      -10.052114   -1.565369   -0.304456
     67          1           0        9.501444   -0.805603    2.237578
     68          1           0       10.695943   -1.956923    3.162982
     69          1           0        9.511180   -2.586645    1.780751
     70          1           0       -9.356009    1.161800   -1.859131
     71          1           0       -9.783449    2.984971   -1.339594
     72          1           0      -10.731639    1.969019   -2.898915
     73          1           0        8.197957   -0.685682    0.151451
     74          1           0       -8.286341    0.797540    0.090236
     75          1           0        8.179322    2.898098    1.529986
     76          1           0        6.866432    3.269328    0.510353
     77          1           0        8.563740    3.076833    0.003910
     78          1           0       -9.031337   -2.649133   -1.192548
     79          1           0       -8.133739   -3.279828    0.540172
     80          1           0       -7.137316   -3.303843   -1.070853
     81          1           0        6.084214   -0.089516   -0.427954
     82          1           0       -5.965526    0.207843   -0.157350
     83          1           0        4.849518    2.538707    0.452513
     84          1           0       -5.024256   -2.822930   -0.874598
     85          1           0        3.881141   -0.254306    0.039348
     86          1           0       -3.829004   -0.161406   -0.259784
     87          1           0        2.790404    2.835324    1.395141
     88          1           0        1.280927    3.155401    0.727127
     89          1           0        2.806119    3.225502   -0.451208
     90          1           0       -3.284286   -3.377737   -1.539678
     91          1           0       -2.858799   -3.830817   -0.020517
     92          1           0       -1.580602   -3.661594   -1.107814
     93          1           0        0.117210    0.910037    0.132621
     94          1           0       -1.537421   -0.141169   -0.105872
     95          1           0        2.243047   -1.462223   -0.637804
     96          1           0        0.194263   -2.661171   -0.943319
 ---------------------------------------------------------------------

 SCF Done:  E(RB3LYP) =  -1557.53973951     A.U. after   14 cycles

 Excitation energies and oscillator strengths:

 Excited State   1:      Singlet-A      2.4261 eV  511.05 nm  f=2.6675  <S**2>=0.000
     148 ->149         0.70304
 This state for optimization and/or second-order correction.
 Total Energy, E(TD-HF/TD-DFT) =  -1557.45058343
 Copying the excited state density for this state as the 1-particle RhoCI density.

 The electronic state is 1-A.
 Alpha  occ. eigenvalues --  -10.21437 -10.20613 -10.20469 -10.20386 -10.20369
 Alpha  occ. eigenvalues --  -10.20309 -10.20159 -10.20092 -10.19903 -10.19807
 Alpha  occ. eigenvalues --  -10.19650 -10.19637 -10.19597 -10.19538 -10.19520
 Alpha  occ. eigenvalues --  -10.19496 -10.19444 -10.19366 -10.19206 -10.19035
 Alpha  occ. eigenvalues --  -10.18801 -10.18766 -10.18669 -10.18655 -10.18654
 Alpha  occ. eigenvalues --  -10.18529 -10.18511 -10.18320 -10.18246 -10.18151
 Alpha  occ. eigenvalues --  -10.18076 -10.17910 -10.17649 -10.17336 -10.17062
 Alpha  occ. eigenvalues --  -10.16779 -10.16747 -10.16630 -10.16568 -10.16514
 Alpha  occ. eigenvalues --   -0.84548  -0.84450  -0.83538  -0.83436  -0.82120
 Alpha  occ. eigenvalues --   -0.81582  -0.78877  -0.78493  -0.78358  -0.77030
 Alpha  occ. eigenvalues --   -0.76091  -0.75168  -0.74468  -0.72305  -0.71949
 Alpha  occ. eigenvalues --   -0.70915  -0.69422  -0.68196  -0.67672  -0.67538
 Alpha  occ. eigenvalues --   -0.67069  -0.66833  -0.66264  -0.66108  -0.65645
 Alpha  occ. eigenvalues --   -0.62107  -0.61579  -0.59955  -0.59493  -0.57227
 Alpha  occ. eigenvalues --   -0.56515  -0.55894  -0.54301  -0.53962  -0.53427
 Alpha  occ. eigenvalues --   -0.52568  -0.51911  -0.50497  -0.50431  -0.48899
 Alpha  occ. eigenvalues --   -0.48322  -0.47970  -0.46773  -0.46721  -0.45937
 Alpha  occ. eigenvalues --   -0.45519  -0.44776  -0.44589  -0.44424  -0.44248
 Alpha  occ. eigenvalues --   -0.43903  -0.43857  -0.43483  -0.43126  -0.42606
 Alpha  occ. eigenvalues --   -0.42082  -0.41801  -0.41514  -0.40932  -0.40710
 Alpha  occ. eigenvalues --   -0.40259  -0.40105  -0.40033  -0.39522  -0.39359
 Alpha  occ. eigenvalues --   -0.39183  -0.39035  -0.38725  -0.38655  -0.38460
 Alpha  occ. eigenvalues --   -0.37872  -0.37482  -0.37319  -0.37068  -0.36769
 Alpha  occ. eigenvalues --   -0.36369  -0.36274  -0.35760  -0.35310  -0.35153
 Alpha  occ. eigenvalues --   -0.34945  -0.34515  -0.34417  -0.34210  -0.34192
 Alpha  occ. eigenvalues --   -0.33933  -0.33525  -0.33193  -0.33063  -0.32854
 Alpha  occ. eigenvalues --   -0.32751  -0.31704  -0.31478  -0.31080  -0.30809
 Alpha  occ. eigenvalues --   -0.30135  -0.29860  -0.29641  -0.28682  -0.27994
 Alpha  occ. eigenvalues --   -0.27663  -0.26263  -0.25967  -0.23838  -0.22789
 Alpha  occ. eigenvalues --   -0.20962  -0.18723  -0.17117
 Alpha virt. eigenvalues --   -0.07465  -0.05232  -0.02143   0.00557   0.02731
 Alpha virt. eigenvalues --    0.03778   0.05676   0.06487   0.07110   0.07287
 Alpha virt. eigenvalues --    0.07607   0.07962   0.08143   0.08501   0.08971

 Mulliken charges:
               1
     1  C    0.021907
     2  C   -0.027461
     3  C   -0.190008
     4  C   -0.157335
     5  C   -0.190977
     6  C   -0.200980
     7  C    0.080462
     8  C    0.082192
     9  C   -0.221648
    10  C   -0.202094
    11  C    0.043486
    12  C    0.054700
    13  C   -0.276149
    14  C   -0.312432
    15  C   -0.289945
    16  C   -0.288934
    17  C   -0.176074
    18  C   -0.149541
    19  C   -0.348567
    20  C   -0.337662
    21  C   -0.076712
    22  C   -0.090943
    23  C    0.129961
    24  C    0.124629
    25  C   -0.366551
    26  C   -0.352214
    27  C   -0.133739
    28  C   -0.137885
    29  C   -0.088097
    30  C   -0.068185
    31  C   -0.100960
    32  C   -0.103601
    33  C    0.084762
    34  C    0.095971
    35  C   -0.367238
    36  C   -0.364407
    37  C   -0.132761
    38  C   -0.092436
    39  C   -0.086664
    40  C   -0.103044
    41  H    0.088623
    42  H    0.075501
    43  H    0.111256
    44  H    0.086904
    45  H    0.097678
    46  H    0.111478
    47  H    0.072832
    48  H    0.109831
    49  H    0.102065
    50  H    0.099103
    51  H    0.096039
    52  H    0.112100
    53  H    0.055586
    54  H    0.104711
    55  H    0.117574
    56  H    0.080136
    57  H    0.091318
    58  H    0.111135
    59  H    0.103724
    60  H    0.091277
    61  H    0.107678
    62  H    0.093616
    63  H    0.082720
    64  H    0.070554
    65  H    0.078899
    66  H    0.079175
    67  H    0.124204
    68  H    0.105031
    69  H    0.081457
    70  H    0.122824
    71  H    0.101029
    72  H    0.059530
    73  H    0.074308
    74  H    0.092431
    75  H    0.117566
    76  H    0.113538
    77  H    0.136068
    78  H    0.076017
    79  H    0.113325
    80  H    0.116200
    81  H    0.081309
    82  H    0.062754
    83  H    0.077837
    84  H    0.073860
    85  H    0.067651
    86  H    0.064360
    87  H    0.123986
    88  H    0.096376
    89  H    0.137219
    90  H    0.128863
    91  H    0.131034
    92  H    0.095071
    93  H    0.064756
    94  H    0.077870
    95  H    0.083136
    96  H    0.086052
 Sum of Mulliken charges =  -0.00000

 Dipole moment (field-independent basis, Debye):
    X=              0.7705    Y=              0.6047    Z=              0.4494  Tot=              1.0776
 Quadrupole moment (field-independent basis, Debye-Ang):
   XX=           -215.0670   YY=           -236.4585   ZZ=           -256.0471
   XY=              1.1555   XZ=              0.0006   YZ=              5.4233

 Normal termination of Gaussian 16 at Sat Jul 27 11:30:39 2019.
