 Gaussian 16, Revision A.03,
 Gaussian 16:  ES64L-G16RevA.03 25-Dec-2016

 ---------------------------------
 # td=(NStates=1) B3LYP/6-31G(d,p)
 ---------------------------------

 --
 TD
 --
 Symbolic Z-matrix:
 Charge =  0 Multiplicity = 1

                         Standard orientation:
 ---------------------------------------------------------------------
 Center     Atomic      Atomic             Coordinates (Angstroms)
 Number     Number       Type             X           Y           Z
 ---------------------------------------------------------------------
      1          6           0      -12.140032   -0.462865   -0.640464
      2          6           0       12.137000   -0.036228    1.016799
      3          6           0      -13.398924    0.467004   -0.567823
      4          6           0       12.923496   -1.197671    1.358656
      5          6           0      -13.021784    1.958482   -0.391050
      6          6           0       13.420940   -1.958823    0.129688
      7          6           0      -10.930653    0.011945    0.223763
      8          6           0       11.015207   -0.280306   -0.051341
      9          6           0      -12.247969    2.079896    0.900538
     10          6           0       12.194203   -2.509922   -0.602190
     11          6           0      -11.106323    1.168789    1.071963
     12          6           0       11.147296   -1.570760   -0.696731
     13          6           0      -11.678085   -0.491667   -2.013815
     14          6           0      -12.561633   -1.900903   -0.202953
     15          6           0       13.086023    1.168404    0.422491
     16          6           0       11.446361    0.538039    2.272261
     17          6           0       -9.900097   -0.906037    0.406894
     18          6           0        9.985316    0.584822   -0.119327
     19          6           0      -10.112270    1.588850    2.088163
     20          6           0        9.989288   -1.973243   -1.732863
     21          6           0       -8.663134   -0.501465    0.161114
     22          6           0        8.609150    0.287030   -0.146883
     23          6           0       -7.449469   -1.294716    0.263428
     24          6           0        7.488163    1.287232   -0.335159
     25          6           0       -7.717233   -2.785995    0.500564
     26          6           0        7.858660    2.682909   -0.568782
     27          6           0       -6.256665   -0.763871    0.221544
     28          6           0        6.190989    0.860944   -0.367754
     29          6           0       -4.930338   -1.511420    0.299718
     30          6           0        5.035943    1.590834   -0.408600
     31          6           0       -3.815557   -0.746308    0.102671
     32          6           0        3.780347    1.080043   -0.419499
     33          6           0       -2.426952   -1.311931    0.226785
     34          6           0        2.438292    1.816334   -0.687674
     35          6           0       -2.277685   -2.697589    0.299197
     36          6           0        2.655845    3.325487   -1.035579
     37          6           0       -1.262366   -0.576144    0.049022
     38          6           0        1.318184    1.025623   -0.344387
     39          6           0       -1.193269    0.827597   -0.344792
     40          6           0       -0.027358    1.549600   -0.482715
     41          1           0      -14.048261    0.093913    0.381492
     42          1           0      -13.770315    0.221732   -1.429424
     43          1           0       12.333429   -1.854619    1.926417
     44          1           0       13.926617   -1.035247    1.790811
     45          1           0      -13.745906    2.476546   -0.229355
     46          1           0      -12.279028    2.195154   -1.157490
     47          1           0       14.070298   -2.808172    0.540777
     48          1           0       14.052306   -1.414288   -0.457181
     49          1           0      -13.075470    2.170789    1.860033
     50          1           0      -11.829990    3.180639    0.889151
     51          1           0       11.638184   -3.336472    0.119725
     52          1           0       12.498985   -2.844806   -1.647292
     53          1           0      -11.339438    0.410745   -2.522788
     54          1           0      -12.333562   -0.843114   -2.783045
     55          1           0      -10.690409   -1.035781   -1.924805
     56          1           0      -12.829746   -2.290133    0.770270
     57          1           0      -11.690310   -2.647784   -0.340229
     58          1           0      -13.517484   -2.234034   -0.542585
     59          1           0       13.593252    1.107931   -0.507380
     60          1           0       13.786504    1.400694    1.253967
     61          1           0       12.369430    2.076864    0.489108
     62          1           0       10.923308   -0.012696    2.821004
     63          1           0       10.877091    1.682751    2.067386
     64          1           0       12.249858    0.917833    2.953515
     65          1           0      -10.222183   -1.965291    0.610625
     66          1           0       10.295344    1.714510   -0.288731
     67          1           0       -9.335316    0.938671    2.471928
     68          1           0      -10.386435    1.860319    3.081280
     69          1           0       -9.370898    2.367188    1.717242
     70          1           0        9.128170   -1.399441   -2.039766
     71          1           0        9.574516   -2.999865   -1.468001
     72          1           0       10.551123   -2.446347   -2.633747
     73          1           0       -8.332943    0.481644   -0.172482
     74          1           0        8.267846   -0.890878    0.050812
     75          1           0       -8.236160   -3.195087    1.447448
     76          1           0       -6.939523   -3.472410    0.567230
     77          1           0       -8.295118   -3.131274   -0.306740
     78          1           0        8.584477    2.653218   -1.335691
     79          1           0        8.501052    3.238912    0.160410
     80          1           0        6.891465    3.305894   -0.916438
     81          1           0       -5.950843    0.371788    0.150072
     82          1           0        6.230833   -0.184040   -0.061712
     83          1           0       -4.672335   -2.460651    0.251023
     84          1           0        5.275424    2.668912   -0.508053
     85          1           0       -3.830053    0.411552    0.060418
     86          1           0        3.772885   -0.013659   -0.399524
     87          1           0       -2.453253   -3.250408    1.371642
     88          1           0       -1.196950   -3.115805    0.322062
     89          1           0       -2.875070   -3.168681   -0.434805
     90          1           0        3.116152    3.353279   -2.069866
     91          1           0        3.024405    3.867515   -0.431679
     92          1           0        1.718396    3.643612   -1.167228
     93          1           0       -0.471662   -1.279338   -0.123746
     94          1           0        1.307972    0.037433    0.121415
     95          1           0       -2.056115    1.350078   -0.535763
     96          1           0       -0.402005    2.598216   -0.940993
 ---------------------------------------------------------------------

 SCF Done:  E(RB3LYP) =  -1557.42162185     A.U. after   15 cycles

 Excitation energies and oscillator strengths:

 Excited State   1:      Singlet-A      2.3215 eV  534.07 nm  f=2.5925  <S**2>=0.000
     148 ->149         0.69998
 This state for optimization and/or second-order correction.
 Total Energy, E(TD-HF/TD-DFT) =  -1557.33630771
 Copying the excited state density for this state as the 1-particle RhoCI density.

 The electronic state is 1-A.
 Alpha  occ. eigenvalues --  -10.21736 -10.20435 -10.20208 -10.20043 -10.20024
 Alpha  occ. eigenvalues --  -10.19963 -10.19794 -10.19788 -10.19671 -10.19633
 Alpha  occ. eigenvalues --  -10.19626 -10.19563 -10.19560 -10.19426 -10.19204
 Alpha  occ. eigenvalues --  -10.19139 -10.18775 -10.18596 -10.18559 -10.18481
 Alpha  occ. eigenvalues --  -10.18346 -10.18334 -10.18327 -10.18298 -10.18229
 Alpha  occ. eigenvalues --  -10.18026 -10.17920 -10.17906 -10.17886 -10.17766
 Alpha  occ. eigenvalues --  -10.17540 -10.17522 -10.17277 -10.17252 -10.17114
 Alpha  occ. eigenvalues --  -10.17005 -10.16818 -10.16645 -10.16227 -10.15915
 Alpha  occ. eigenvalues --   -0.85638  -0.85424  -0.83582  -0.82808  -0.82301
 Alpha  occ. eigenvalues --   -0.80775  -0.79035  -0.78934  -0.78580  -0.78284
 Alpha  occ. eigenvalues --   -0.77311  -0.75462  -0.74789  -0.72905  -0.71817
 Alpha  occ. eigenvalues --   -0.71161  -0.69122  -0.68964  -0.68421  -0.67651
 Alpha  occ. eigenvalues --   -0.67640  -0.67257  -0.66941  -0.66399  -0.65915
 Alpha  occ. eigenvalues --   -0.62901  -0.62726  -0.60088  -0.59616  -0.56527
 Alpha  occ. eigenvalues --   -0.56464  -0.56219  -0.55642  -0.53953  -0.53718
 Alpha  occ. eigenvalues --   -0.52940  -0.51611  -0.50632  -0.49254  -0.49016
 Alpha  occ. eigenvalues --   -0.48156  -0.47951  -0.47697  -0.47059  -0.46718
 Alpha  occ. eigenvalues --   -0.46456  -0.46009  -0.45618  -0.44859  -0.44497
 Alpha  occ. eigenvalues --   -0.43986  -0.43884  -0.43629  -0.42802  -0.42407
 Alpha  occ. eigenvalues --   -0.41908  -0.41727  -0.41518  -0.41196  -0.40825
 Alpha  occ. eigenvalues --   -0.40582  -0.40189  -0.40005  -0.39761  -0.39521
 Alpha  occ. eigenvalues --   -0.39293  -0.38840  -0.38666  -0.38173  -0.38060
 Alpha  occ. eigenvalues --   -0.37760  -0.37308  -0.37145  -0.36824  -0.36538
 Alpha  occ. eigenvalues --   -0.36139  -0.36031  -0.35687  -0.34903  -0.34798
 Alpha  occ. eigenvalues --   -0.34436  -0.34226  -0.34018  -0.33872  -0.33540
 Alpha  occ. eigenvalues --   -0.33053  -0.32798  -0.32634  -0.32321  -0.32200
 Alpha  occ. eigenvalues --   -0.32090  -0.31842  -0.31747  -0.31254  -0.31033
 Alpha  occ. eigenvalues --   -0.30865  -0.30390  -0.30247  -0.28905  -0.28648
 Alpha  occ. eigenvalues --   -0.28112  -0.26696  -0.25515  -0.23441  -0.21780
 Alpha  occ. eigenvalues --   -0.20109  -0.18613  -0.16505
 Alpha virt. eigenvalues --   -0.07389  -0.04795  -0.02255  -0.00262   0.01597
 Alpha virt. eigenvalues --    0.02928   0.05550   0.06303   0.06807   0.06908
 Alpha virt. eigenvalues --    0.07786   0.08074   0.08719   0.09031   0.09093

 Mulliken charges:
               1
     1  C   -0.007937
     2  C    0.008235
     3  C   -0.159921
     4  C   -0.175032
     5  C   -0.133507
     6  C   -0.191609
     7  C    0.040400
     8  C    0.107443
     9  C   -0.228979
    10  C   -0.225580
    11  C    0.109000
    12  C    0.076545
    13  C   -0.298118
    14  C   -0.319850
    15  C   -0.316345
    16  C   -0.278149
    17  C   -0.130615
    18  C   -0.146698
    19  C   -0.382974
    20  C   -0.363442
    21  C   -0.077219
    22  C   -0.115281
    23  C    0.144050
    24  C    0.125923
    25  C   -0.383138
    26  C   -0.385497
    27  C   -0.159929
    28  C   -0.112345
    29  C   -0.047739
    30  C   -0.064092
    31  C   -0.116734
    32  C   -0.119933
    33  C    0.139413
    34  C    0.050966
    35  C   -0.402919
    36  C   -0.333249
    37  C   -0.133599
    38  C   -0.115512
    39  C   -0.087368
    40  C   -0.088511
    41  H    0.063496
    42  H    0.091948
    43  H    0.096764
    44  H    0.092427
    45  H    0.084366
    46  H    0.102375
    47  H    0.079889
    48  H    0.113344
    49  H    0.061176
    50  H    0.084334
    51  H    0.095198
    52  H    0.101716
    53  H    0.101911
    54  H    0.099694
    55  H    0.096378
    56  H    0.105032
    57  H    0.081792
    58  H    0.101344
    59  H    0.111201
    60  H    0.093833
    61  H    0.086697
    62  H    0.113495
    63  H    0.058386
    64  H    0.086299
    65  H    0.100755
    66  H    0.076989
    67  H    0.114164
    68  H    0.111431
    69  H    0.101774
    70  H    0.133513
    71  H    0.093390
    72  H    0.077994
    73  H    0.080498
    74  H    0.073418
    75  H    0.103588
    76  H    0.109213
    77  H    0.124182
    78  H    0.130072
    79  H    0.117416
    80  H    0.089694
    81  H    0.078277
    82  H    0.066117
    83  H    0.074974
    84  H    0.065824
    85  H    0.072116
    86  H    0.074635
    87  H    0.088946
    88  H    0.099159
    89  H    0.130508
    90  H    0.117406
    91  H    0.133201
    92  H    0.118093
    93  H    0.085007
    94  H    0.107666
    95  H    0.079594
    96  H    0.067138
 Sum of Mulliken charges =  -0.00000

 Dipole moment (field-independent basis, Debye):
    X=              0.5840    Y=             -0.7081    Z=             -0.1710  Tot=              0.9337
 Quadrupole moment (field-independent basis, Debye-Ang):
   XX=           -212.2377   YY=           -233.0834   ZZ=           -254.4445
   XY=             -1.6478   XZ=              2.0013   YZ=             -4.7079

 Normal termination of Gaussian 16 at Tue Jul 23 15:57:39 2019.
