 Gaussian 16, Revision A.03,
 Gaussian 16:  ES64L-G16RevA.03 25-Dec-2016

 ---------------------------------
 # td=(NStates=1) B3LYP/6-31G(d,p)
 ---------------------------------

 --
 TD
 --
 Symbolic Z-matrix:
 Charge =  0 Multiplicity = 1

                         Standard orientation:
 ---------------------------------------------------------------------
 Center     Atomic      Atomic             Coordinates (Angstroms)
 Number     Number       Type             X           Y           Z
 ---------------------------------------------------------------------
      1          6           0      -12.168720   -0.641917   -0.601704
      2          6           0       12.145626   -0.076349    0.876192
      3          6           0      -13.454140    0.277432   -0.650144
      4          6           0       13.002125   -1.367070    1.168182
      5          6           0      -13.095594    1.820545   -0.551284
      6          6           0       13.411369   -2.242124   -0.009745
      7          6           0      -11.108121   -0.060462    0.221709
      8          6           0       11.066004   -0.412368   -0.127887
      9          6           0      -12.356075    2.039980    0.671587
     10          6           0       12.088249   -2.642974   -0.697833
     11          6           0      -11.169469    1.178580    0.864980
     12          6           0       11.074504   -1.530183   -0.896204
     13          6           0      -11.549713   -0.611857   -2.133568
     14          6           0      -12.618467   -2.059094   -0.116585
     15          6           0       12.944892    1.145990    0.450336
     16          6           0       11.430849    0.390016    2.329775
     17          6           0       -9.916678   -0.940447    0.280091
     18          6           0       10.014121    0.568360   -0.317156
     19          6           0      -10.145511    1.683775    1.873064
     20          6           0       10.013734   -1.963501   -1.780210
     21          6           0       -8.641029   -0.520946    0.121134
     22          6           0        8.718276    0.392237   -0.272270
     23          6           0       -7.472054   -1.368691    0.353531
     24          6           0        7.564217    1.321426   -0.314312
     25          6           0       -7.649359   -2.801295    0.680223
     26          6           0        7.895978    2.798317   -0.748364
     27          6           0       -6.232071   -0.733725    0.125522
     28          6           0        6.355840    0.901066   -0.264461
     29          6           0       -4.921562   -1.339190    0.329832
     30          6           0        5.145649    1.747350   -0.351716
     31          6           0       -3.731870   -0.591296    0.204626
     32          6           0        3.858190    1.144840   -0.190360
     33          6           0       -2.388527   -1.178513    0.334772
     34          6           0        2.553037    1.825451   -0.408517
     35          6           0       -2.319120   -2.589467    0.630778
     36          6           0        2.569895    3.327433   -0.580195
     37          6           0       -1.250744   -0.322624    0.275707
     38          6           0        1.440922    1.144498   -0.293336
     39          6           0       -1.073258    1.004409   -0.196728
     40          6           0        0.102032    1.686650   -0.348648
     41          1           0      -13.854247    0.052748    0.441927
     42          1           0      -14.186854    0.040999   -1.485115
     43          1           0       12.255349   -1.977125    1.711980
     44          1           0       13.983025   -1.118680    1.899683
     45          1           0      -13.957906    2.302635   -0.769396
     46          1           0      -12.605320    2.129979   -1.545971
     47          1           0       14.075322   -2.976751    0.223146
     48          1           0       13.981515   -1.392504   -0.548214
     49          1           0      -13.026460    1.961142    1.481373
     50          1           0      -12.130358    3.166270    0.733957
     51          1           0       11.602070   -3.424749   -0.239346
     52          1           0       12.429358   -3.131689   -1.661771
     53          1           0      -11.069356    0.407801   -2.401527
     54          1           0      -12.049589   -1.224870   -2.859066
     55          1           0      -10.772633   -1.285639   -2.123869
     56          1           0      -12.569553   -1.973670    0.843548
     57          1           0      -11.825272   -2.802181   -0.466399
     58          1           0      -13.659952   -2.218074   -0.650750
     59          1           0       13.499342    0.733060   -0.397068
     60          1           0       13.778323    1.298605    1.165092
     61          1           0       12.489040    2.016407    0.119709
     62          1           0       10.395913   -0.152362    2.654924
     63          1           0       11.031611    1.301048    2.189713
     64          1           0       12.136139    0.417062    3.281231
     65          1           0      -10.113028   -2.128252    0.409377
     66          1           0       10.166864    1.610749   -0.464336
     67          1           0       -9.314471    0.884852    2.177183
     68          1           0      -10.728640    1.906029    2.740299
     69          1           0       -9.441652    2.535129    1.564355
     70          1           0        9.387329   -1.072002   -2.065354
     71          1           0        9.191336   -2.510185   -1.194988
     72          1           0       10.131187   -2.294509   -2.708483
     73          1           0       -8.465950    0.580244   -0.148838
     74          1           0        8.254608   -0.666954   -0.191554
     75          1           0       -8.018772   -3.032691    1.609160
     76          1           0       -6.709713   -3.314365    0.331991
     77          1           0       -8.267272   -3.271635   -0.126601
     78          1           0        8.299184    2.676807   -1.908321
     79          1           0        8.515408    3.235568   -0.126787
     80          1           0        7.088437    3.387584   -0.620402
     81          1           0       -6.318280    0.447854   -0.237337
     82          1           0        6.124311   -0.085916   -0.069301
     83          1           0       -4.833271   -2.395520    0.764297
     84          1           0        4.969384    2.898712   -0.509136
     85          1           0       -4.047381    0.489928    0.246634
     86          1           0        3.701974    0.121615   -0.024361
     87          1           0       -2.765697   -2.928108    1.503693
     88          1           0       -1.305578   -2.926339    0.542146
     89          1           0       -2.760680   -3.163300   -0.239628
     90          1           0        3.126659    3.611738   -1.486731
     91          1           0        2.861333    3.495428    0.324217
     92          1           0        1.523995    3.789885   -0.678367
     93          1           0       -0.310201   -0.869536    0.457650
     94          1           0        1.356413   -0.028873   -0.087989
     95          1           0       -1.934393    1.666908   -0.363915
     96          1           0       -0.113515    2.774114   -0.661243
 ---------------------------------------------------------------------

 SCF Done:  E(RB3LYP) =  -1557.55867680     A.U. after   15 cycles

 Excitation energies and oscillator strengths:

 Excited State   1:      Singlet-A      2.2763 eV  544.68 nm  f=2.8688  <S**2>=0.000
     148 ->149         0.70464
     148 <-149        -0.10040
 This state for optimization and/or second-order correction.
 Total Energy, E(TD-HF/TD-DFT) =  -1557.47502460
 Copying the excited state density for this state as the 1-particle RhoCI density.

 The electronic state is 1-A.
 Alpha  occ. eigenvalues --  -10.20963 -10.20666 -10.20613 -10.20483 -10.20137
 Alpha  occ. eigenvalues --  -10.19774 -10.19661 -10.19537 -10.19515 -10.19262
 Alpha  occ. eigenvalues --  -10.19236 -10.19166 -10.19142 -10.19134 -10.19050
 Alpha  occ. eigenvalues --  -10.19018 -10.18857 -10.18757 -10.18757 -10.18662
 Alpha  occ. eigenvalues --  -10.18655 -10.18626 -10.18525 -10.18424 -10.18406
 Alpha  occ. eigenvalues --  -10.18287 -10.17996 -10.17944 -10.17883 -10.17757
 Alpha  occ. eigenvalues --  -10.17724 -10.17706 -10.17651 -10.17574 -10.17560
 Alpha  occ. eigenvalues --  -10.17533 -10.17030 -10.16617 -10.16475 -10.16301
 Alpha  occ. eigenvalues --   -0.85135  -0.84942  -0.83635  -0.82717  -0.82294
 Alpha  occ. eigenvalues --   -0.81422  -0.78716  -0.78497  -0.78166  -0.77819
 Alpha  occ. eigenvalues --   -0.76449  -0.74822  -0.74385  -0.72610  -0.71872
 Alpha  occ. eigenvalues --   -0.70704  -0.69638  -0.68638  -0.68510  -0.68236
 Alpha  occ. eigenvalues --   -0.67367  -0.67306  -0.66565  -0.66447  -0.66414
 Alpha  occ. eigenvalues --   -0.62575  -0.61713  -0.59955  -0.59031  -0.57342
 Alpha  occ. eigenvalues --   -0.56551  -0.55801  -0.54684  -0.53372  -0.52550
 Alpha  occ. eigenvalues --   -0.51928  -0.51434  -0.50304  -0.49691  -0.48348
 Alpha  occ. eigenvalues --   -0.48127  -0.47654  -0.47106  -0.46902  -0.46133
 Alpha  occ. eigenvalues --   -0.45929  -0.45557  -0.44948  -0.44858  -0.44732
 Alpha  occ. eigenvalues --   -0.43995  -0.43776  -0.43348  -0.42976  -0.42669
 Alpha  occ. eigenvalues --   -0.42583  -0.42138  -0.41995  -0.41462  -0.41070
 Alpha  occ. eigenvalues --   -0.40783  -0.40343  -0.40278  -0.39818  -0.39350
 Alpha  occ. eigenvalues --   -0.39193  -0.39025  -0.38584  -0.38461  -0.37759
 Alpha  occ. eigenvalues --   -0.37621  -0.37499  -0.37020  -0.36926  -0.36478
 Alpha  occ. eigenvalues --   -0.36298  -0.35838  -0.35574  -0.35510  -0.35240
 Alpha  occ. eigenvalues --   -0.34298  -0.34156  -0.34033  -0.33735  -0.33610
 Alpha  occ. eigenvalues --   -0.33338  -0.33259  -0.33001  -0.32570  -0.32507
 Alpha  occ. eigenvalues --   -0.32047  -0.31588  -0.31385  -0.30882  -0.30845
 Alpha  occ. eigenvalues --   -0.30709  -0.29519  -0.29264  -0.28944  -0.27893
 Alpha  occ. eigenvalues --   -0.27646  -0.27223  -0.26239  -0.23944  -0.22549
 Alpha  occ. eigenvalues --   -0.21213  -0.19235  -0.16459
 Alpha virt. eigenvalues --   -0.07892  -0.04643  -0.01464   0.00730   0.02255
 Alpha virt. eigenvalues --    0.04197   0.05825   0.07014   0.07399   0.07928
 Alpha virt. eigenvalues --    0.07991   0.08281   0.08468   0.08944   0.09450

 Mulliken charges:
               1
     1  C   -0.003738
     2  C   -0.002810
     3  C   -0.182884
     4  C   -0.181095
     5  C   -0.169521
     6  C   -0.172064
     7  C    0.067192
     8  C    0.093184
     9  C   -0.229163
    10  C   -0.224108
    11  C    0.073440
    12  C    0.072616
    13  C   -0.315020
    14  C   -0.298345
    15  C   -0.302816
    16  C   -0.304401
    17  C   -0.138214
    18  C   -0.153692
    19  C   -0.363761
    20  C   -0.376347
    21  C   -0.083100
    22  C   -0.073237
    23  C    0.118514
    24  C    0.104247
    25  C   -0.381586
    26  C   -0.347429
    27  C   -0.129353
    28  C   -0.109223
    29  C   -0.099631
    30  C   -0.108725
    31  C   -0.111498
    32  C   -0.112186
    33  C    0.098870
    34  C    0.095860
    35  C   -0.384613
    36  C   -0.366080
    37  C   -0.119863
    38  C   -0.113367
    39  C   -0.078281
    40  C   -0.095182
    41  H    0.062786
    42  H    0.081927
    43  H    0.097824
    44  H    0.048423
    45  H    0.097609
    46  H    0.079406
    47  H    0.100521
    48  H    0.084845
    49  H    0.117671
    50  H    0.086751
    51  H    0.120880
    52  H    0.087197
    53  H    0.102665
    54  H    0.088679
    55  H    0.107584
    56  H    0.125001
    57  H    0.091400
    58  H    0.097223
    59  H    0.098234
    60  H    0.100458
    61  H    0.114796
    62  H    0.072773
    63  H    0.114891
    64  H    0.085917
    65  H    0.068342
    66  H    0.076828
    67  H    0.104859
    68  H    0.113917
    69  H    0.105476
    70  H    0.107973
    71  H    0.110877
    72  H    0.115648
    73  H    0.081030
    74  H    0.051750
    75  H    0.136432
    76  H    0.108370
    77  H    0.118038
    78  H    0.100880
    79  H    0.123063
    80  H    0.110137
    81  H    0.066928
    82  H    0.082224
    83  H    0.085024
    84  H    0.089373
    85  H    0.088046
    86  H    0.073334
    87  H    0.134955
    88  H    0.109962
    89  H    0.118902
    90  H    0.123880
    91  H    0.150570
    92  H    0.097601
    93  H    0.063926
    94  H    0.071057
    95  H    0.079046
    96  H    0.073495
 Sum of Mulliken charges =  -0.00000

 Dipole moment (field-independent basis, Debye):
    X=             -0.6300    Y=             -0.2244    Z=              0.0177  Tot=              0.6690
 Quadrupole moment (field-independent basis, Debye-Ang):
   XX=           -236.3040   YY=           -231.5846   ZZ=           -254.9704
   XY=              1.6962   XZ=             -6.3289   YZ=             -1.5184

 Normal termination of Gaussian 16 at Tue Jul 23 18:51:49 2019.
