 Gaussian 16, Revision A.03,
 Gaussian 16:  ES64L-G16RevA.03 25-Dec-2016

 ---------------------------------
 # td=(NStates=1) B3LYP/6-31G(d,p)
 ---------------------------------

 --
 TD
 --
 Symbolic Z-matrix:
 Charge =  0 Multiplicity = 1

                         Standard orientation:
 ---------------------------------------------------------------------
 Center     Atomic      Atomic             Coordinates (Angstroms)
 Number     Number       Type             X           Y           Z
 ---------------------------------------------------------------------
      1          6           0       12.142980    0.398180   -0.698162
      2          6           0      -12.049978   -0.115962    1.021706
      3          6           0       13.421458   -0.476790   -0.767347
      4          6           0      -13.077420    1.072089    1.418233
      5          6           0       13.037018   -1.964811   -0.558193
      6          6           0      -13.554455    1.804475    0.187529
      7          6           0       11.028868    0.133940    0.422144
      8          6           0      -10.999488    0.442562   -0.007958
      9          6           0       12.359331   -2.138954    0.820455
     10          6           0      -12.373821    2.449608   -0.593921
     11          6           0       11.235908   -1.045774    1.072532
     12          6           0      -11.152770    1.664411   -0.750417
     13          6           0       11.359141    0.190096   -2.035668
     14          6           0       12.764278    1.821754   -0.520980
     15          6           0      -12.946037   -1.286992    0.342488
     16          6           0      -11.440319   -0.643444    2.245373
     17          6           0        9.939724    1.004228    0.522839
     18          6           0       -9.858680   -0.541527   -0.208170
     19          6           0       10.230093   -1.564326    2.157710
     20          6           0      -10.177597    2.049743   -1.826843
     21          6           0        8.608064    0.616416    0.208290
     22          6           0       -8.534573   -0.291662   -0.315178
     23          6           0        7.395622    1.442372    0.315961
     24          6           0       -7.384461   -1.322282   -0.491949
     25          6           0        7.574556    2.933501    0.529489
     26          6           0       -7.883922   -2.674035   -0.686349
     27          6           0        6.205760    0.859409    0.283504
     28          6           0       -6.153821   -0.802736   -0.412934
     29          6           0        4.898706    1.489769    0.317764
     30          6           0       -5.019828   -1.609712   -0.492914
     31          6           0        3.735252    0.822312    0.021415
     32          6           0       -3.758530   -1.055683   -0.462246
     33          6           0        2.394555    1.331334    0.302961
     34          6           0       -2.446003   -1.745421   -0.397050
     35          6           0        2.281592    2.850236    0.451800
     36          6           0       -2.493550   -3.306308   -0.816186
     37          6           0        1.304735    0.583528    0.090988
     38          6           0       -1.266699   -1.056619   -0.217636
     39          6           0        1.175995   -0.850363   -0.072532
     40          6           0        0.031453   -1.534518   -0.230564
     41          1           0       14.119158   -0.358031    0.031094
     42          1           0       13.902831   -0.417118   -1.756887
     43          1           0      -12.520755    1.767886    1.964495
     44          1           0      -13.950298    0.725369    1.915078
     45          1           0       14.009242   -2.556626   -0.508832
     46          1           0       12.287036   -2.441287   -1.351710
     47          1           0      -14.259430    2.724725    0.062876
     48          1           0      -13.870471    1.149154   -0.449824
     49          1           0       12.974312   -2.221334    1.734576
     50          1           0       11.742866   -3.095738    0.769169
     51          1           0      -12.075489    3.198014    0.077127
     52          1           0      -12.566057    3.006406   -1.543614
     53          1           0       11.071299   -0.844654   -2.226893
     54          1           0       11.810208    0.478401   -2.977837
     55          1           0       10.391486    0.764186   -2.018231
     56          1           0       13.532199    1.774855    0.445891
     57          1           0       11.788944    2.604010   -0.389885
     58          1           0       13.373732    2.343112   -1.361345
     59          1           0      -13.477798   -0.881691   -0.593651
     60          1           0      -13.803003   -1.410703    0.960957
     61          1           0      -12.464895   -2.137285    0.173233
     62          1           0      -11.128664    0.236614    2.777587
     63          1           0      -10.723406   -1.422064    2.303902
     64          1           0      -12.226991   -1.153786    3.006702
     65          1           0       10.151248    2.030329    0.701035
     66          1           0      -10.227983   -1.662757   -0.360627
     67          1           0        9.321273   -0.955694    2.599377
     68          1           0       10.768374   -1.831487    3.092878
     69          1           0        9.662471   -2.748985    1.794522
     70          1           0       -9.271933    1.256514   -2.003955
     71          1           0       -9.704706    2.953423   -1.444562
     72          1           0      -10.701893    2.432560   -2.824434
     73          1           0        8.412469   -0.446247   -0.027499
     74          1           0       -8.252726    0.728887   -0.086210
     75          1           0        8.135793    3.006507    1.416901
     76          1           0        6.642633    3.699160    0.682650
     77          1           0        8.125273    3.358218   -0.252643
     78          1           0       -8.648927   -2.621807   -1.454523
     79          1           0       -8.209035   -3.106680    0.262166
     80          1           0       -7.123356   -3.570866   -1.300605
     81          1           0        5.898615   -0.137372    0.124934
     82          1           0       -6.013990    0.240311   -0.238042
     83          1           0        4.941025    2.438300    0.724326
     84          1           0       -5.243752   -2.620893   -0.849369
     85          1           0        3.818916   -0.173475   -0.397390
     86          1           0       -3.763550    0.025257   -0.407485
     87          1           0        2.914257    3.385339    1.358287
     88          1           0        1.158919    3.139401    0.656889
     89          1           0        2.662683    3.432335   -0.502520
     90          1           0       -3.114065   -3.191530   -1.735530
     91          1           0       -3.199974   -3.847347   -0.204344
     92          1           0       -1.418776   -3.628008   -0.907291
     93          1           0        0.376097    1.164808    0.236813
     94          1           0       -1.402775    0.020921    0.026409
     95          1           0        2.030030   -1.513591   -0.224581
     96          1           0        0.022489   -2.680210   -0.519460
 ---------------------------------------------------------------------

 SCF Done:  E(RB3LYP) =  -1557.60099936     A.U. after   14 cycles

 Excitation energies and oscillator strengths:

 Excited State   1:      Singlet-A      2.3661 eV  524.01 nm  f=2.8950  <S**2>=0.000
     148 ->149         0.70253
 This state for optimization and/or second-order correction.
 Total Energy, E(TD-HF/TD-DFT) =  -1557.51404776
 Copying the excited state density for this state as the 1-particle RhoCI density.

 The electronic state is 1-A.
 Alpha  occ. eigenvalues --  -10.20965 -10.20926 -10.20746 -10.20638 -10.20443
 Alpha  occ. eigenvalues --  -10.20407 -10.20353 -10.20224 -10.20042 -10.19995
 Alpha  occ. eigenvalues --  -10.19859 -10.19857 -10.19848 -10.19587 -10.19498
 Alpha  occ. eigenvalues --  -10.19412 -10.19239 -10.19191 -10.19120 -10.19073
 Alpha  occ. eigenvalues --  -10.19006 -10.18981 -10.18881 -10.18812 -10.18766
 Alpha  occ. eigenvalues --  -10.18756 -10.18643 -10.18622 -10.18536 -10.18316
 Alpha  occ. eigenvalues --  -10.17917 -10.17895 -10.17890 -10.17775 -10.17723
 Alpha  occ. eigenvalues --  -10.17626 -10.17387 -10.17287 -10.16663 -10.16632
 Alpha  occ. eigenvalues --   -0.84430  -0.84127  -0.83559  -0.83239  -0.82311
 Alpha  occ. eigenvalues --   -0.80964  -0.78873  -0.78718  -0.77787  -0.76827
 Alpha  occ. eigenvalues --   -0.76225  -0.75398  -0.74259  -0.72164  -0.71113
 Alpha  occ. eigenvalues --   -0.69598  -0.68625  -0.68483  -0.68381  -0.67751
 Alpha  occ. eigenvalues --   -0.67213  -0.66668  -0.66034  -0.65839  -0.65307
 Alpha  occ. eigenvalues --   -0.62420  -0.61794  -0.60366  -0.58328  -0.56580
 Alpha  occ. eigenvalues --   -0.56142  -0.55817  -0.54583  -0.54198  -0.53964
 Alpha  occ. eigenvalues --   -0.53034  -0.52293  -0.49878  -0.49753  -0.48846
 Alpha  occ. eigenvalues --   -0.48584  -0.47339  -0.46850  -0.46547  -0.45798
 Alpha  occ. eigenvalues --   -0.45326  -0.45067  -0.44221  -0.44121  -0.43915
 Alpha  occ. eigenvalues --   -0.43827  -0.43673  -0.43191  -0.42801  -0.42607
 Alpha  occ. eigenvalues --   -0.42000  -0.41932  -0.41461  -0.40621  -0.40165
 Alpha  occ. eigenvalues --   -0.39902  -0.39818  -0.39725  -0.39438  -0.39273
 Alpha  occ. eigenvalues --   -0.38819  -0.38654  -0.38454  -0.38128  -0.37857
 Alpha  occ. eigenvalues --   -0.37378  -0.37308  -0.36827  -0.36738  -0.36577
 Alpha  occ. eigenvalues --   -0.36084  -0.35986  -0.35799  -0.35684  -0.35120
 Alpha  occ. eigenvalues --   -0.34965  -0.34341  -0.33992  -0.33569  -0.33500
 Alpha  occ. eigenvalues --   -0.33432  -0.32921  -0.32680  -0.32631  -0.32464
 Alpha  occ. eigenvalues --   -0.32328  -0.31931  -0.31787  -0.31714  -0.31053
 Alpha  occ. eigenvalues --   -0.30614  -0.30503  -0.29646  -0.28968  -0.28623
 Alpha  occ. eigenvalues --   -0.28071  -0.27391  -0.26101  -0.23971  -0.22513
 Alpha  occ. eigenvalues --   -0.20762  -0.19169  -0.16889
 Alpha virt. eigenvalues --   -0.07709  -0.04967  -0.01673   0.00371   0.01889
 Alpha virt. eigenvalues --    0.03524   0.05331   0.06225   0.06936   0.07178
 Alpha virt. eigenvalues --    0.07572   0.07943   0.08171   0.08657   0.09020

 Mulliken charges:
               1
     1  C    0.015857
     2  C   -0.010031
     3  C   -0.159158
     4  C   -0.188763
     5  C   -0.193507
     6  C   -0.181263
     7  C    0.083821
     8  C    0.024895
     9  C   -0.217747
    10  C   -0.252836
    11  C    0.052953
    12  C    0.098548
    13  C   -0.318305
    14  C   -0.281746
    15  C   -0.305144
    16  C   -0.287062
    17  C   -0.159514
    18  C   -0.122164
    19  C   -0.330138
    20  C   -0.367416
    21  C   -0.085406
    22  C   -0.122054
    23  C    0.108676
    24  C    0.118315
    25  C   -0.376847
    26  C   -0.368295
    27  C   -0.116669
    28  C   -0.101032
    29  C   -0.056556
    30  C   -0.068009
    31  C   -0.128587
    32  C   -0.132012
    33  C    0.126771
    34  C    0.078707
    35  C   -0.356071
    36  C   -0.367910
    37  C   -0.119640
    38  C   -0.087060
    39  C   -0.083967
    40  C   -0.092547
    41  H    0.097895
    42  H    0.101483
    43  H    0.100306
    44  H    0.100546
    45  H    0.080105
    46  H    0.086119
    47  H    0.083478
    48  H    0.119190
    49  H    0.108159
    50  H    0.105092
    51  H    0.120925
    52  H    0.090486
    53  H    0.103766
    54  H    0.095522
    55  H    0.101121
    56  H    0.079613
    57  H    0.053658
    58  H    0.097361
    59  H    0.089132
    60  H    0.104282
    61  H    0.108941
    62  H    0.104181
    63  H    0.114555
    64  H    0.064373
    65  H    0.094898
    66  H    0.070266
    67  H    0.108151
    68  H    0.106691
    69  H    0.039700
    70  H    0.111409
    71  H    0.118275
    72  H    0.090736
    73  H    0.094087
    74  H    0.084807
    75  H    0.133782
    76  H    0.091299
    77  H    0.132800
    78  H    0.138243
    79  H    0.139022
    80  H    0.057041
    81  H    0.070288
    82  H    0.078699
    83  H    0.067468
    84  H    0.077273
    85  H    0.081240
    86  H    0.074729
    87  H    0.092292
    88  H    0.091871
    89  H    0.115914
    90  H    0.125932
    91  H    0.129747
    92  H    0.108406
    93  H    0.075142
    94  H    0.071996
    95  H    0.083285
    96  H    0.063132
 Sum of Mulliken charges =  -0.00000

 Dipole moment (field-independent basis, Debye):
    X=             -1.4551    Y=              0.3046    Z=             -0.2222  Tot=              1.5031
 Quadrupole moment (field-independent basis, Debye-Ang):
   XX=           -212.6994   YY=           -236.1439   ZZ=           -255.0870
   XY=             -3.1518   XZ=             -0.3160   YZ=              1.9034

 Normal termination of Gaussian 16 at Tue Jul 30 08:03:37 2019.
