 Gaussian 16, Revision A.03,
 Gaussian 16:  ES64L-G16RevA.03 25-Dec-2016

 ---------------------------------
 # td=(NStates=1) B3LYP/6-31G(d,p)
 ---------------------------------

 --
 TD
 --
 Symbolic Z-matrix:
 Charge =  0 Multiplicity = 1

                         Standard orientation:
 ---------------------------------------------------------------------
 Center     Atomic      Atomic             Coordinates (Angstroms)
 Number     Number       Type             X           Y           Z
 ---------------------------------------------------------------------
      1          6           0      -12.057445    0.508694    0.939501
      2          6           0       12.135898   -0.130006   -0.563144
      3          6           0      -13.313152   -0.300024    0.801085
      4          6           0       13.033128    1.080637   -1.246602
      5          6           0      -12.899489   -1.865368    0.782731
      6          6           0       13.412611    1.984173   -0.137701
      7          6           0      -10.995621    0.032541   -0.236146
      8          6           0       10.942500    0.450268    0.202971
      9          6           0      -12.346553   -2.149550   -0.668831
     10          6           0       12.156311    2.671323    0.543360
     11          6           0      -11.259676   -1.146705   -0.883911
     12          6           0       11.036144    1.734013    0.782744
     13          6           0      -11.313683    0.537441    2.320515
     14          6           0      -12.426805    1.921736    0.541927
     15          6           0       13.056041   -1.181279   -0.054576
     16          6           0       11.579668   -0.716831   -1.851697
     17          6           0       -9.820035    0.824895   -0.249371
     18          6           0        9.920521   -0.526051    0.435595
     19          6           0      -10.296814   -1.609236   -2.022707
     20          6           0        9.937405    2.180664    1.611918
     21          6           0       -8.509292    0.424364   -0.246378
     22          6           0        8.550971   -0.332425    0.290111
     23          6           0       -7.399708    1.339322   -0.428270
     24          6           0        7.463457   -1.283523    0.363855
     25          6           0       -7.688678    2.838140   -0.722604
     26          6           0        7.766071   -2.665977    0.787353
     27          6           0       -6.184943    0.840038   -0.472637
     28          6           0        6.134183   -0.834466    0.184871
     29          6           0       -4.910900    1.346096   -0.717279
     30          6           0        4.954633   -1.660210    0.250816
     31          6           0       -3.744683    0.700912   -0.405689
     32          6           0        3.642855   -1.053205    0.121637
     33          6           0       -2.459714    1.241045   -0.483155
     34          6           0        2.425915   -1.850111    0.214463
     35          6           0       -2.384509    2.759218   -0.680908
     36          6           0        2.589659   -3.353528    0.431538
     37          6           0       -1.291155    0.573722   -0.196217
     38          6           0        1.326118   -1.134704    0.046599
     39          6           0       -1.247140   -0.895197    0.164636
     40          6           0        0.005570   -1.580562    0.213024
     41          1           0      -13.884599    0.096643   -0.004318
     42          1           0      -14.041340   -0.106465    1.637419
     43          1           0       12.488115    1.711068   -1.965481
     44          1           0       13.935921    0.654659   -1.864152
     45          1           0      -13.782456   -2.576528    0.805087
     46          1           0      -12.088893   -2.349573    1.432689
     47          1           0       14.247897    2.666744   -0.255128
     48          1           0       13.971537    1.222667    0.649846
     49          1           0      -13.142583   -1.960185   -1.491250
     50          1           0      -11.993914   -3.113067   -0.733418
     51          1           0       11.937321    3.526138   -0.028561
     52          1           0       12.508640    3.143220    1.449345
     53          1           0      -10.912300   -0.521951    2.602709
     54          1           0      -12.044889    0.847925    3.110437
     55          1           0      -10.645720    1.367996    2.420837
     56          1           0      -12.606703    2.317318   -0.569508
     57          1           0      -11.838669    2.670415    0.744490
     58          1           0      -13.309441    2.309634    1.104519
     59          1           0       13.750277   -0.688166    0.707134
     60          1           0       13.790642   -1.429817   -0.799515
     61          1           0       12.693256   -2.076700    0.315729
     62          1           0       10.978734   -0.036674   -2.562021
     63          1           0       10.973269   -1.764375   -1.436248
     64          1           0       12.486358   -0.906844   -2.360542
     65          1           0       -9.830214    2.070396    0.034720
     66          1           0       10.011834   -1.471821    0.675536
     67          1           0       -9.556472   -0.880349   -2.263545
     68          1           0      -10.732078   -1.797929   -2.863406
     69          1           0       -9.845694   -2.438273   -1.750239
     70          1           0        9.471719    1.253862    2.040718
     71          1           0        9.003722    2.626416    0.977705
     72          1           0       10.326358    2.854490    2.439944
     73          1           0       -8.132838   -0.716416   -0.313946
     74          1           0        8.048851    0.818230   -0.120258
     75          1           0       -8.277353    2.907627   -1.529735
     76          1           0       -6.698683    3.481454   -0.846862
     77          1           0       -8.187683    3.221727    0.151481
     78          1           0        8.348326   -2.825194    1.773079
     79          1           0        8.593227   -2.969759    0.092605
     80          1           0        6.868423   -3.443834    0.735865
     81          1           0       -6.054728   -0.258310   -0.240135
     82          1           0        6.019517    0.281748   -0.246794
     83          1           0       -4.949418    2.489173   -0.931083
     84          1           0        5.090141   -2.675821    0.509124
     85          1           0       -3.987369   -0.418168    0.030005
     86          1           0        3.704685    0.060107    0.294764
     87          1           0       -2.683583    2.893736   -1.759745
     88          1           0       -1.260386    3.031888   -0.826221
     89          1           0       -2.852841    3.150081    0.147705
     90          1           0        3.007335   -3.465042    1.499759
     91          1           0        3.283015   -3.855595   -0.283083
     92          1           0        1.589755   -3.941820    0.503651
     93          1           0       -0.285482    1.103576   -0.336406
     94          1           0        1.456955   -0.130152   -0.065624
     95          1           0       -2.071144   -1.691858    0.431631
     96          1           0       -0.006346   -2.589963    0.548129
 ---------------------------------------------------------------------

 SCF Done:  E(RB3LYP) =  -1557.53741938     A.U. after   16 cycles

 Excitation energies and oscillator strengths:

 Excited State   1:      Singlet-A      2.0642 eV  600.64 nm  f=3.0933  <S**2>=0.000
     148 ->149         0.70786
     148 <-149        -0.10383
 This state for optimization and/or second-order correction.
 Total Energy, E(TD-HF/TD-DFT) =  -1557.46156155
 Copying the excited state density for this state as the 1-particle RhoCI density.

 The electronic state is 1-A.
 Alpha  occ. eigenvalues --  -10.20891 -10.20532 -10.20410 -10.20386 -10.20300
 Alpha  occ. eigenvalues --  -10.20286 -10.20195 -10.20077 -10.20044 -10.19963
 Alpha  occ. eigenvalues --  -10.19950 -10.19710 -10.19570 -10.19537 -10.19505
 Alpha  occ. eigenvalues --  -10.19457 -10.19362 -10.19294 -10.19169 -10.19053
 Alpha  occ. eigenvalues --  -10.19033 -10.18832 -10.18741 -10.18582 -10.18519
 Alpha  occ. eigenvalues --  -10.18466 -10.18417 -10.18388 -10.18367 -10.18328
 Alpha  occ. eigenvalues --  -10.18094 -10.17999 -10.17963 -10.17891 -10.17628
 Alpha  occ. eigenvalues --  -10.17604 -10.17274 -10.16773 -10.16531 -10.14159
 Alpha  occ. eigenvalues --   -0.84841  -0.84364  -0.83684  -0.83337  -0.81952
 Alpha  occ. eigenvalues --   -0.81656  -0.79105  -0.78608  -0.78042  -0.77344
 Alpha  occ. eigenvalues --   -0.76388  -0.74811  -0.73866  -0.72125  -0.71858
 Alpha  occ. eigenvalues --   -0.69988  -0.69027  -0.68197  -0.68111  -0.68042
 Alpha  occ. eigenvalues --   -0.67907  -0.67590  -0.67090  -0.66494  -0.65655
 Alpha  occ. eigenvalues --   -0.62876  -0.61724  -0.59806  -0.58274  -0.56789
 Alpha  occ. eigenvalues --   -0.56249  -0.55251  -0.54946  -0.53513  -0.53170
 Alpha  occ. eigenvalues --   -0.51899  -0.51174  -0.50518  -0.49930  -0.48430
 Alpha  occ. eigenvalues --   -0.47777  -0.47118  -0.46856  -0.46426  -0.45438
 Alpha  occ. eigenvalues --   -0.45300  -0.45006  -0.44797  -0.44337  -0.44157
 Alpha  occ. eigenvalues --   -0.43783  -0.43519  -0.43374  -0.42975  -0.42533
 Alpha  occ. eigenvalues --   -0.41927  -0.41660  -0.41493  -0.41084  -0.40324
 Alpha  occ. eigenvalues --   -0.40281  -0.40055  -0.40004  -0.39677  -0.39327
 Alpha  occ. eigenvalues --   -0.38810  -0.38721  -0.38467  -0.38352  -0.37921
 Alpha  occ. eigenvalues --   -0.37582  -0.37282  -0.37264  -0.36907  -0.36696
 Alpha  occ. eigenvalues --   -0.36329  -0.36224  -0.35902  -0.35442  -0.34936
 Alpha  occ. eigenvalues --   -0.34698  -0.34678  -0.34362  -0.34202  -0.33618
 Alpha  occ. eigenvalues --   -0.33255  -0.32981  -0.32779  -0.32513  -0.32462
 Alpha  occ. eigenvalues --   -0.32050  -0.31907  -0.31581  -0.31099  -0.30740
 Alpha  occ. eigenvalues --   -0.30316  -0.30210  -0.29742  -0.28984  -0.28253
 Alpha  occ. eigenvalues --   -0.27161  -0.27063  -0.26132  -0.24291  -0.22435
 Alpha  occ. eigenvalues --   -0.20797  -0.18390  -0.16131
 Alpha virt. eigenvalues --   -0.08373  -0.05557  -0.01995   0.00217   0.01962
 Alpha virt. eigenvalues --    0.04681   0.05699   0.06239   0.06710   0.07048
 Alpha virt. eigenvalues --    0.07164   0.07917   0.08270   0.08380   0.08542

 Mulliken charges:
               1
     1  C    0.026974
     2  C   -0.033453
     3  C   -0.177647
     4  C   -0.175513
     5  C   -0.204677
     6  C   -0.182888
     7  C    0.087339
     8  C    0.104777
     9  C   -0.212590
    10  C   -0.227531
    11  C    0.023813
    12  C    0.098505
    13  C   -0.298883
    14  C   -0.317228
    15  C   -0.294923
    16  C   -0.242610
    17  C   -0.147037
    18  C   -0.149102
    19  C   -0.361784
    20  C   -0.360737
    21  C   -0.082070
    22  C   -0.075531
    23  C    0.121574
    24  C    0.138356
    25  C   -0.371030
    26  C   -0.387882
    27  C   -0.124319
    28  C   -0.126979
    29  C   -0.070445
    30  C   -0.086247
    31  C   -0.101859
    32  C   -0.142202
    33  C    0.093472
    34  C    0.133540
    35  C   -0.357436
    36  C   -0.378685
    37  C   -0.144793
    38  C   -0.069339
    39  C   -0.088887
    40  C   -0.116886
    41  H    0.116241
    42  H    0.083298
    43  H    0.094765
    44  H    0.074915
    45  H    0.079786
    46  H    0.103663
    47  H    0.082743
    48  H    0.056088
    49  H    0.099577
    50  H    0.107242
    51  H    0.118722
    52  H    0.104373
    53  H    0.099655
    54  H    0.089915
    55  H    0.114615
    56  H    0.081837
    57  H    0.108329
    58  H    0.081522
    59  H    0.089503
    60  H    0.107988
    61  H    0.109842
    62  H    0.091034
    63  H    0.043421
    64  H    0.092668
    65  H    0.059778
    66  H    0.070986
    67  H    0.110551
    68  H    0.111025
    69  H    0.114979
    70  H    0.123461
    71  H    0.094611
    72  H    0.089417
    73  H    0.075760
    74  H    0.036009
    75  H    0.142251
    76  H    0.090346
    77  H    0.125812
    78  H    0.117939
    79  H    0.119722
    80  H    0.099469
    81  H    0.054353
    82  H    0.071285
    83  H    0.068204
    84  H    0.080183
    85  H    0.069992
    86  H    0.096220
    87  H    0.123967
    88  H    0.088055
    89  H    0.141526
    90  H    0.120727
    91  H    0.130683
    92  H    0.104818
    93  H    0.091883
    94  H    0.067890
    95  H    0.093899
    96  H    0.065298
 Sum of Mulliken charges =  -0.00000

 Dipole moment (field-independent basis, Debye):
    X=             -1.0367    Y=             -0.1951    Z=              0.5222  Tot=              1.1771
 Quadrupole moment (field-independent basis, Debye-Ang):
   XX=           -224.8494   YY=           -230.9828   ZZ=           -256.3537
   XY=              0.7310   XZ=              1.4038   YZ=             -3.6331

 Normal termination of Gaussian 16 at Sun Jul 28 22:43:27 2019.
