 Gaussian 16, Revision A.03,
 Gaussian 16:  ES64L-G16RevA.03 25-Dec-2016

 ---------------------------------
 # td=(NStates=1) B3LYP/6-31G(d,p)
 ---------------------------------

 --
 TD
 --
 Symbolic Z-matrix:
 Charge =  0 Multiplicity = 1

                         Standard orientation:
 ---------------------------------------------------------------------
 Center     Atomic      Atomic             Coordinates (Angstroms)
 Number     Number       Type             X           Y           Z
 ---------------------------------------------------------------------
      1          6           0       12.201408   -0.619178    0.658460
      2          6           0      -12.134972    0.047611   -0.786709
      3          6           0       13.454579    0.229936    0.698093
      4          6           0      -12.986410   -1.167810   -1.302519
      5          6           0       13.096456    1.702094    0.896959
      6          6           0      -13.453510   -2.064736   -0.087272
      7          6           0       11.073547    0.063543   -0.162109
      8          6           0      -10.908584   -0.459151    0.134113
      9          6           0       12.305872    2.208559   -0.257395
     10          6           0      -12.223542   -2.587108    0.707757
     11          6           0       11.178548    1.268650   -0.711937
     12          6           0      -11.088118   -1.585335    0.810496
     13          6           0       11.806742   -0.872785    2.231968
     14          6           0       12.627036   -2.010287    0.044637
     15          6           0      -12.977897    1.020958   -0.214837
     16          6           0      -11.506899    0.641125   -2.077161
     17          6           0        9.909732   -0.753384   -0.408127
     18          6           0       -9.926644    0.605931    0.302741
     19          6           0       10.304320    1.761879   -1.750977
     20          6           0      -10.152984   -2.127986    1.876608
     21          6           0        8.530313   -0.424383   -0.219151
     22          6           0       -8.579723    0.292067    0.297830
     23          6           0        7.426512   -1.273034   -0.475102
     24          6           0       -7.496727    1.267960    0.509496
     25          6           0        7.543853   -2.697234   -0.920751
     26          6           0       -7.911703    2.724618    0.681220
     27          6           0        6.180651   -0.579028   -0.421540
     28          6           0       -6.214986    0.921246    0.268443
     29          6           0        4.890808   -1.291941   -0.566728
     30          6           0       -4.956699    1.675041    0.346477
     31          6           0        3.711307   -0.591370   -0.351909
     32          6           0       -3.697832    1.101232    0.159329
     33          6           0        2.313689   -1.214614   -0.364423
     34          6           0       -2.554115    1.795207    0.218510
     35          6           0        2.249561   -2.727015   -0.525542
     36          6           0       -2.606427    3.330471    0.410499
     37          6           0        1.239601   -0.577358   -0.164126
     38          6           0       -1.411083    1.028633    0.150444
     39          6           0        1.074958    0.841699    0.101103
     40          6           0       -0.107251    1.550695    0.213737
     41          1           0       13.908950    0.133566   -0.331198
     42          1           0       14.130604   -0.309462    1.508243
     43          1           0      -12.283246   -1.683659   -2.084252
     44          1           0      -13.924193   -0.532662   -1.836067
     45          1           0       14.003242    2.089734    1.135929
     46          1           0       12.490657    1.735192    1.714558
     47          1           0      -14.243293   -2.887765   -0.467976
     48          1           0      -14.059950   -1.227442    0.573541
     49          1           0       13.060209    2.547521   -1.176417
     50          1           0       11.748218    3.124561    0.236034
     51          1           0      -11.773292   -3.551734    0.183730
     52          1           0      -12.769778   -2.840570    1.559688
     53          1           0       11.704919    0.060749    2.752930
     54          1           0       12.613203   -1.680104    2.680363
     55          1           0       10.747340   -1.330760    2.037058
     56          1           0       12.871317   -1.848169   -1.029132
     57          1           0       11.626001   -2.671427   -0.224185
     58          1           0       13.447328   -2.557964    0.632094
     59          1           0      -13.527077    0.643375    0.729137
     60          1           0      -13.655324    1.468070   -0.884957
     61          1           0      -12.325155    1.762744    0.447918
     62          1           0      -11.057919   -0.168783   -2.672888
     63          1           0      -10.882331    1.354123   -1.800531
     64          1           0      -12.367761    1.170095   -2.595737
     65          1           0        9.977287   -1.854997   -0.513279
     66          1           0      -10.295025    1.560020    0.401082
     67          1           0        9.814762    0.980038   -2.322616
     68          1           0       10.921879    2.304091   -2.564497
     69          1           0        9.579259    2.485560   -1.373888
     70          1           0       -9.402370   -1.342661    2.322233
     71          1           0       -9.517413   -2.986953    1.622697
     72          1           0      -10.816175   -2.219089    2.805429
     73          1           0        8.585382    0.707299   -0.131903
     74          1           0       -8.224662   -0.710094    0.219712
     75          1           0        8.307672   -2.947179   -1.709777
     76          1           0        6.569114   -3.214951   -1.327683
     77          1           0        8.082018   -3.025199   -0.136075
     78          1           0       -8.253070    2.882537    1.728849
     79          1           0       -8.728788    3.085070   -0.131816
     80          1           0       -7.129186    3.528498    0.458497
     81          1           0        6.225730    0.281410   -0.189768
     82          1           0       -6.077826   -0.096808    0.303756
     83          1           0        4.742212   -2.384979   -0.740366
     84          1           0       -5.030454    2.633695    0.600377
     85          1           0        3.723386    0.364915   -0.021506
     86          1           0       -3.725332    0.111419   -0.149117
     87          1           0        2.861451   -2.960181   -1.411041
     88          1           0        1.404373   -3.162111   -0.729441
     89          1           0        2.613934   -3.567725    0.283263
     90          1           0       -3.078609    3.673610    1.214691
     91          1           0       -3.065206    3.746896   -0.352313
     92          1           0       -1.594078    3.682237    0.451750
     93          1           0        0.342584   -1.202335   -0.074436
     94          1           0       -1.520425    0.028276    0.057529
     95          1           0        1.944227    1.497964    0.242582
     96          1           0       -0.059633    2.590013    0.375586
 ---------------------------------------------------------------------

 SCF Done:  E(RB3LYP) =  -1557.53474519     A.U. after   15 cycles

 Excitation energies and oscillator strengths:

 Excited State   1:      Singlet-A      2.2397 eV  553.58 nm  f=2.9407  <S**2>=0.000
     148 ->149         0.69878
 This state for optimization and/or second-order correction.
 Total Energy, E(TD-HF/TD-DFT) =  -1557.45243907
 Copying the excited state density for this state as the 1-particle RhoCI density.

 The electronic state is 1-A.
 Alpha  occ. eigenvalues --  -10.20721 -10.20426 -10.20112 -10.19958 -10.19850
 Alpha  occ. eigenvalues --  -10.19592 -10.19516 -10.19492 -10.19389 -10.19281
 Alpha  occ. eigenvalues --  -10.19258 -10.19174 -10.19163 -10.19125 -10.19025
 Alpha  occ. eigenvalues --  -10.19009 -10.18997 -10.18872 -10.18728 -10.18661
 Alpha  occ. eigenvalues --  -10.18578 -10.18518 -10.18382 -10.18363 -10.18338
 Alpha  occ. eigenvalues --  -10.18325 -10.18233 -10.18013 -10.17943 -10.17918
 Alpha  occ. eigenvalues --  -10.17871 -10.17839 -10.17732 -10.17730 -10.17719
 Alpha  occ. eigenvalues --  -10.17529 -10.17512 -10.16468 -10.15954 -10.15674
 Alpha  occ. eigenvalues --   -0.85470  -0.84834  -0.84559  -0.83359  -0.82411
 Alpha  occ. eigenvalues --   -0.81628  -0.79138  -0.78832  -0.78392  -0.77417
 Alpha  occ. eigenvalues --   -0.76634  -0.75611  -0.73785  -0.72177  -0.71800
 Alpha  occ. eigenvalues --   -0.71445  -0.69855  -0.69390  -0.68191  -0.67861
 Alpha  occ. eigenvalues --   -0.67547  -0.66862  -0.66186  -0.65761  -0.65632
 Alpha  occ. eigenvalues --   -0.63235  -0.62264  -0.59699  -0.58985  -0.56863
 Alpha  occ. eigenvalues --   -0.56632  -0.55977  -0.55340  -0.54845  -0.54021
 Alpha  occ. eigenvalues --   -0.52762  -0.52388  -0.51340  -0.49936  -0.49142
 Alpha  occ. eigenvalues --   -0.48681  -0.48013  -0.47548  -0.47297  -0.46603
 Alpha  occ. eigenvalues --   -0.45819  -0.45395  -0.45254  -0.44802  -0.44346
 Alpha  occ. eigenvalues --   -0.43882  -0.43771  -0.43457  -0.42692  -0.42082
 Alpha  occ. eigenvalues --   -0.42024  -0.41680  -0.41524  -0.41287  -0.41056
 Alpha  occ. eigenvalues --   -0.40712  -0.40447  -0.39967  -0.39924  -0.39627
 Alpha  occ. eigenvalues --   -0.39392  -0.39103  -0.39025  -0.38904  -0.38648
 Alpha  occ. eigenvalues --   -0.38295  -0.37995  -0.37564  -0.37263  -0.36926
 Alpha  occ. eigenvalues --   -0.36674  -0.35695  -0.35507  -0.35184  -0.34836
 Alpha  occ. eigenvalues --   -0.34678  -0.34482  -0.34325  -0.34248  -0.34156
 Alpha  occ. eigenvalues --   -0.33866  -0.33416  -0.33320  -0.32408  -0.32264
 Alpha  occ. eigenvalues --   -0.31980  -0.31812  -0.31457  -0.31309  -0.30811
 Alpha  occ. eigenvalues --   -0.30544  -0.29768  -0.29496  -0.28295  -0.27768
 Alpha  occ. eigenvalues --   -0.27693  -0.27234  -0.26448  -0.24951  -0.23406
 Alpha  occ. eigenvalues --   -0.21537  -0.18541  -0.16540
 Alpha virt. eigenvalues --   -0.07992  -0.05678  -0.01646   0.00803   0.02903
 Alpha virt. eigenvalues --    0.04469   0.05852   0.06654   0.06742   0.07409
 Alpha virt. eigenvalues --    0.07706   0.07810   0.08556   0.08825   0.09527

 Mulliken charges:
               1
     1  C   -0.005269
     2  C   -0.024242
     3  C   -0.162075
     4  C   -0.140512
     5  C   -0.171710
     6  C   -0.190495
     7  C    0.097965
     8  C    0.072899
     9  C   -0.212749
    10  C   -0.191052
    11  C    0.071871
    12  C    0.051178
    13  C   -0.289639
    14  C   -0.295698
    15  C   -0.283298
    16  C   -0.276093
    17  C   -0.167100
    18  C   -0.124178
    19  C   -0.370797
    20  C   -0.359317
    21  C   -0.108383
    22  C   -0.091236
    23  C    0.101407
    24  C    0.115750
    25  C   -0.370658
    26  C   -0.374015
    27  C   -0.052099
    28  C   -0.128404
    29  C   -0.092415
    30  C   -0.083919
    31  C   -0.092652
    32  C   -0.102712
    33  C    0.130364
    34  C    0.120123
    35  C   -0.371315
    36  C   -0.371346
    37  C   -0.134399
    38  C   -0.087494
    39  C   -0.099722
    40  C   -0.102041
    41  H    0.076675
    42  H    0.065589
    43  H    0.074664
    44  H    0.046129
    45  H    0.102728
    46  H    0.102371
    47  H    0.076055
    48  H    0.073550
    49  H    0.075579
    50  H    0.091416
    51  H    0.094433
    52  H    0.122848
    53  H    0.109006
    54  H    0.079370
    55  H    0.094242
    56  H    0.103258
    57  H    0.068394
    58  H    0.100590
    59  H    0.087254
    60  H    0.111359
    61  H    0.074739
    62  H    0.097477
    63  H    0.106059
    64  H    0.074362
    65  H    0.056700
    66  H    0.099119
    67  H    0.129464
    68  H    0.093856
    69  H    0.116846
    70  H    0.093477
    71  H    0.117260
    72  H    0.101694
    73  H    0.078743
    74  H    0.083097
    75  H    0.117387
    76  H    0.113503
    77  H    0.142738
    78  H    0.121335
    79  H    0.095298
    80  H    0.100985
    81  H    0.039823
    82  H    0.067016
    83  H    0.088637
    84  H    0.062687
    85  H    0.074477
    86  H    0.075287
    87  H    0.107927
    88  H    0.116734
    89  H    0.087366
    90  H    0.133349
    91  H    0.136579
    92  H    0.103691
    93  H    0.080347
    94  H    0.071188
    95  H    0.078405
    96  H    0.072313
 Sum of Mulliken charges =  -0.00000

 Dipole moment (field-independent basis, Debye):
    X=              0.7039    Y=              0.4197    Z=              0.3684  Tot=              0.8985
 Quadrupole moment (field-independent basis, Debye-Ang):
   XX=           -243.5073   YY=           -233.3741   ZZ=           -256.1593
   XY=             -0.1508   XZ=             -8.6479   YZ=              4.1031

 Normal termination of Gaussian 16 at Tue Jul 30 04:29:02 2019.
