 Gaussian 16, Revision A.03,
 Gaussian 16:  ES64L-G16RevA.03 25-Dec-2016

 ---------------------------------
 # td=(NStates=1) B3LYP/6-31G(d,p)
 ---------------------------------

 --
 TD
 --
 Symbolic Z-matrix:
 Charge =  0 Multiplicity = 1

                         Standard orientation:
 ---------------------------------------------------------------------
 Center     Atomic      Atomic             Coordinates (Angstroms)
 Number     Number       Type             X           Y           Z
 ---------------------------------------------------------------------
      1          6           0       12.179888    0.496505   -0.801491
      2          6           0      -12.133832   -0.011700    0.869092
      3          6           0       13.460378   -0.255595   -0.548495
      4          6           0      -12.971695    1.102950    1.251155
      5          6           0       13.266831   -1.713811   -0.355627
      6          6           0      -13.378652    2.054748    0.096250
      7          6           0       11.031859    0.047937    0.118015
      8          6           0      -11.028800    0.411739   -0.061353
      9          6           0       12.324230   -2.074034    0.738908
     10          6           0      -12.199910    2.650632   -0.659497
     11          6           0       11.186395   -1.107813    0.862212
     12          6           0      -11.164157    1.586104   -0.708596
     13          6           0       11.688210    0.442561   -2.278455
     14          6           0       12.455930    2.112960   -0.492453
     15          6           0      -13.053901   -1.081274    0.237582
     16          6           0      -11.444440   -0.564007    2.121899
     17          6           0        9.903731    0.853039    0.300059
     18          6           0       -9.940105   -0.582383   -0.285822
     19          6           0       10.204603   -1.662998    1.928784
     20          6           0      -10.105961    2.077925   -1.745420
     21          6           0        8.626146    0.476126    0.332694
     22          6           0       -8.600389   -0.330355   -0.182946
     23          6           0        7.429017    1.293308    0.467649
     24          6           0       -7.532636   -1.270375   -0.417433
     25          6           0        7.639761    2.779313    0.731654
     26          6           0       -7.905682   -2.660727   -0.938464
     27          6           0        6.187648    0.726162    0.331567
     28          6           0       -6.213436   -0.897408   -0.160443
     29          6           0        4.872141    1.313961    0.450176
     30          6           0       -5.123718   -1.731207   -0.294260
     31          6           0        3.739417    0.542679    0.249997
     32          6           0       -3.879020   -1.205450   -0.181814
     33          6           0        2.494602    1.232064    0.313042
     34          6           0       -2.588221   -1.841681   -0.391894
     35          6           0        2.415806    2.741854    0.533638
     36          6           0       -2.570011   -3.352286   -0.612747
     37          6           0        1.321392    0.561388    0.020593
     38          6           0       -1.372838   -1.157142   -0.226312
     39          6           0        1.104153   -0.853986   -0.245353
     40          6           0       -0.079595   -1.610911   -0.357134
     41          1           0       14.077709    0.207253    0.312070
     42          1           0       14.067756   -0.146254   -1.599353
     43          1           0      -12.561055    1.891847    2.082071
     44          1           0      -13.800490    0.863571    1.932595
     45          1           0       14.248350   -2.159535   -0.456510
     46          1           0       12.880387   -2.144723   -1.469166
     47          1           0      -14.077244    2.875743    0.543417
     48          1           0      -14.240764    1.533695   -0.603315
     49          1           0       13.158551   -1.914041    1.542581
     50          1           0       12.127079   -3.162385    0.784390
     51          1           0      -11.725977    3.591027   -0.155613
     52          1           0      -12.625269    2.892650   -1.693371
     53          1           0       11.392589   -0.673016   -2.576523
     54          1           0       12.403268    0.746041   -2.979317
     55          1           0       10.815416    1.059801   -2.380028
     56          1           0       12.440113    2.354571    0.625236
     57          1           0       11.586463    2.582993   -0.848673
     58          1           0       13.361021    2.382961   -0.966121
     59          1           0      -13.555949   -0.548472   -0.633432
     60          1           0      -13.882080   -1.391376    0.894637
     61          1           0      -12.783084   -2.072284   -0.065251
     62          1           0      -11.034292    0.352604    2.697840
     63          1           0      -10.684131   -1.366409    1.974380
     64          1           0      -12.256848   -1.113224    2.812033
     65          1           0        9.883507    2.012847    0.333232
     66          1           0      -10.302711   -1.527778   -0.468188
     67          1           0        9.558949   -0.972741    2.329495
     68          1           0       10.900345   -2.054990    2.812864
     69          1           0        9.633336   -2.436850    1.376563
     70          1           0       -9.166989    1.323657   -2.067208
     71          1           0       -9.567333    2.978043   -1.379033
     72          1           0      -10.616993    2.371597   -2.655292
     73          1           0        8.590670   -0.624883    0.234652
     74          1           0       -8.296656    0.730062    0.297711
     75          1           0        8.252250    2.896543    1.708815
     76          1           0        6.534030    3.221310    0.932330
     77          1           0        7.929490    3.441066   -0.139233
     78          1           0       -8.323333   -2.495240   -2.075769
     79          1           0       -8.776781   -3.082274   -0.254600
     80          1           0       -7.158606   -3.356432   -1.098604
     81          1           0        6.127312   -0.325220    0.111199
     82          1           0       -5.999805    0.076447    0.119359
     83          1           0        4.728164    2.321777    0.880001
     84          1           0       -5.403963   -2.774192   -0.397793
     85          1           0        3.639592   -0.604287   -0.041445
     86          1           0       -3.803522   -0.038268    0.089584
     87          1           0        3.457459    3.072145    1.272428
     88          1           0        1.426024    3.067783    0.961384
     89          1           0        2.664350    3.527733   -0.282453
     90          1           0       -2.734807   -3.532393   -1.723419
     91          1           0       -3.331585   -3.853358   -0.010026
     92          1           0       -1.547043   -3.942171   -0.274397
     93          1           0        0.253989    1.030526    0.174096
     94          1           0       -1.422592    0.026696    0.001215
     95          1           0        1.944436   -1.569452   -0.336796
     96          1           0        0.126454   -2.783615   -0.258984
 ---------------------------------------------------------------------

 SCF Done:  E(RB3LYP) =  -1557.62533652     A.U. after   16 cycles

 Excitation energies and oscillator strengths:

 Excited State   1:      Singlet-A      2.0306 eV  610.58 nm  f=3.2459  <S**2>=0.000
     148 ->149         0.71024
     148 <-149        -0.12646
 This state for optimization and/or second-order correction.
 Total Energy, E(TD-HF/TD-DFT) =  -1557.55071296
 Copying the excited state density for this state as the 1-particle RhoCI density.

 The electronic state is 1-A.
 Alpha  occ. eigenvalues --  -10.21408 -10.20769 -10.20769 -10.20523 -10.20358
 Alpha  occ. eigenvalues --  -10.20263 -10.20197 -10.20136 -10.20126 -10.20124
 Alpha  occ. eigenvalues --  -10.20110 -10.19910 -10.19881 -10.19881 -10.19799
 Alpha  occ. eigenvalues --  -10.19735 -10.19726 -10.19664 -10.19599 -10.19557
 Alpha  occ. eigenvalues --  -10.19375 -10.19080 -10.18968 -10.18878 -10.18744
 Alpha  occ. eigenvalues --  -10.18640 -10.18538 -10.18431 -10.18409 -10.18357
 Alpha  occ. eigenvalues --  -10.18339 -10.18263 -10.18132 -10.18102 -10.17999
 Alpha  occ. eigenvalues --  -10.17943 -10.17857 -10.17353 -10.17151 -10.17083
 Alpha  occ. eigenvalues --   -0.85864  -0.85238  -0.83571  -0.83315  -0.81911
 Alpha  occ. eigenvalues --   -0.81237  -0.79030  -0.78653  -0.78184  -0.77770
 Alpha  occ. eigenvalues --   -0.76690  -0.75034  -0.73991  -0.71991  -0.71125
 Alpha  occ. eigenvalues --   -0.69333  -0.68085  -0.67885  -0.67700  -0.67460
 Alpha  occ. eigenvalues --   -0.67298  -0.67173  -0.66957  -0.66267  -0.65619
 Alpha  occ. eigenvalues --   -0.63048  -0.61827  -0.59473  -0.58656  -0.57012
 Alpha  occ. eigenvalues --   -0.56358  -0.55864  -0.54755  -0.54108  -0.53019
 Alpha  occ. eigenvalues --   -0.52403  -0.51824  -0.50341  -0.49721  -0.48305
 Alpha  occ. eigenvalues --   -0.48011  -0.47290  -0.46954  -0.46408  -0.46334
 Alpha  occ. eigenvalues --   -0.45489  -0.45193  -0.44301  -0.44119  -0.43796
 Alpha  occ. eigenvalues --   -0.43214  -0.42819  -0.42678  -0.42107  -0.42072
 Alpha  occ. eigenvalues --   -0.41860  -0.41438  -0.41079  -0.40900  -0.40718
 Alpha  occ. eigenvalues --   -0.40646  -0.40390  -0.39859  -0.39494  -0.39281
 Alpha  occ. eigenvalues --   -0.38784  -0.38635  -0.38363  -0.38214  -0.37812
 Alpha  occ. eigenvalues --   -0.37550  -0.37389  -0.36823  -0.36753  -0.36400
 Alpha  occ. eigenvalues --   -0.36002  -0.35754  -0.35631  -0.35342  -0.34903
 Alpha  occ. eigenvalues --   -0.34745  -0.34523  -0.34427  -0.34191  -0.34083
 Alpha  occ. eigenvalues --   -0.33753  -0.33365  -0.33064  -0.32752  -0.32569
 Alpha  occ. eigenvalues --   -0.32160  -0.31715  -0.31495  -0.31101  -0.30712
 Alpha  occ. eigenvalues --   -0.30294  -0.29564  -0.29075  -0.28661  -0.28496
 Alpha  occ. eigenvalues --   -0.28034  -0.27691  -0.26379  -0.24322  -0.23110
 Alpha  occ. eigenvalues --   -0.21243  -0.18955  -0.16128
 Alpha virt. eigenvalues --   -0.08827  -0.05231  -0.02012   0.00612   0.02478
 Alpha virt. eigenvalues --    0.03898   0.05245   0.05815   0.06506   0.06965
 Alpha virt. eigenvalues --    0.07270   0.07424   0.07986   0.08551   0.08923

 Mulliken charges:
               1
     1  C   -0.001120
     2  C    0.008986
     3  C   -0.165817
     4  C   -0.169915
     5  C   -0.180020
     6  C   -0.192991
     7  C    0.098869
     8  C    0.088664
     9  C   -0.206419
    10  C   -0.195934
    11  C    0.042685
    12  C    0.050568
    13  C   -0.296926
    14  C   -0.317829
    15  C   -0.308590
    16  C   -0.290490
    17  C   -0.133697
    18  C   -0.130881
    19  C   -0.349734
    20  C   -0.351773
    21  C   -0.089312
    22  C   -0.090914
    23  C    0.109815
    24  C    0.103520
    25  C   -0.379328
    26  C   -0.359422
    27  C   -0.114760
    28  C   -0.096705
    29  C   -0.084913
    30  C   -0.053654
    31  C   -0.083864
    32  C   -0.128567
    33  C    0.129430
    34  C    0.107068
    35  C   -0.348630
    36  C   -0.363936
    37  C   -0.130634
    38  C   -0.104504
    39  C   -0.078120
    40  C   -0.106166
    41  H    0.084425
    42  H    0.065767
    43  H    0.064419
    44  H    0.096022
    45  H    0.096650
    46  H    0.042371
    47  H    0.072553
    48  H    0.072633
    49  H    0.097103
    50  H    0.110913
    51  H    0.107695
    52  H    0.110127
    53  H    0.084781
    54  H    0.105090
    55  H    0.110267
    56  H    0.093546
    57  H    0.108435
    58  H    0.105853
    59  H    0.096627
    60  H    0.096355
    61  H    0.102998
    62  H    0.094757
    63  H    0.103973
    64  H    0.065555
    65  H    0.069704
    66  H    0.090861
    67  H    0.126896
    68  H    0.089227
    69  H    0.120193
    70  H    0.084578
    71  H    0.103353
    72  H    0.103580
    73  H    0.066349
    74  H    0.078540
    75  H    0.121186
    76  H    0.084028
    77  H    0.128664
    78  H    0.101833
    79  H    0.106004
    80  H    0.118339
    81  H    0.077736
    82  H    0.071834
    83  H    0.075582
    84  H    0.083263
    85  H    0.092545
    86  H    0.071165
    87  H    0.059772
    88  H    0.115471
    89  H    0.124865
    90  H    0.122677
    91  H    0.120633
    92  H    0.089586
    93  H    0.069782
    94  H    0.063170
    95  H    0.071273
    96  H    0.074356
 Sum of Mulliken charges =  -0.00000

 Dipole moment (field-independent basis, Debye):
    X=             -0.1994    Y=             -0.2367    Z=              0.1745  Tot=              0.3553
 Quadrupole moment (field-independent basis, Debye-Ang):
   XX=           -223.5161   YY=           -233.7970   ZZ=           -257.8255
   XY=              0.8947   XZ=              2.2963   YZ=              1.6001

 Normal termination of Gaussian 16 at Fri Jul 26 22:45:54 2019.
