 Gaussian 16, Revision A.03,
 Gaussian 16:  ES64L-G16RevA.03 25-Dec-2016

 ---------------------------------
 # td=(NStates=1) B3LYP/6-31G(d,p)
 ---------------------------------

 --
 TD
 --
 Symbolic Z-matrix:
 Charge =  0 Multiplicity = 1

                         Standard orientation:
 ---------------------------------------------------------------------
 Center     Atomic      Atomic             Coordinates (Angstroms)
 Number     Number       Type             X           Y           Z
 ---------------------------------------------------------------------
      1          6           0       12.083626   -0.635402    0.735697
      2          6           0      -12.086934   -0.009102   -0.834323
      3          6           0       13.391356    0.208845    0.650396
      4          6           0      -12.983868   -1.058215   -1.187352
      5          6           0       13.162104    1.734203    0.754811
      6          6           0      -13.524642   -2.071909    0.021620
      7          6           0       11.012263    0.063780   -0.194034
      8          6           0      -10.904307   -0.560101    0.194308
      9          6           0       12.200472    2.172352   -0.414625
     10          6           0      -12.245172   -2.573306    0.623909
     11          6           0       11.056182    1.213446   -0.685515
     12          6           0      -11.079268   -1.603202    0.823366
     13          6           0       11.603925   -0.684752    2.195387
     14          6           0       12.598001   -1.978231    0.253572
     15          6           0      -12.774340    1.052783   -0.048062
     16          6           0      -11.502284    0.707087   -2.092924
     17          6           0        9.835026   -0.822589   -0.507586
     18          6           0       -9.768360    0.561003    0.330456
     19          6           0       10.085827    1.922164   -1.691655
     20          6           0      -10.041517   -2.197613    1.724945
     21          6           0        8.612897   -0.501412   -0.263775
     22          6           0       -8.431484    0.279516    0.293541
     23          6           0        7.330095   -1.301975   -0.466250
     24          6           0       -7.510492    1.242770    0.445380
     25          6           0        7.492255   -2.819262   -0.682382
     26          6           0       -7.903543    2.742062    0.768014
     27          6           0        6.155331   -0.788531   -0.308552
     28          6           0       -6.199301    0.892300    0.198161
     29          6           0        4.848913   -1.384122   -0.532514
     30          6           0       -5.021300    1.723617    0.451552
     31          6           0        3.716118   -0.750152   -0.160271
     32          6           0       -3.715010    1.188322    0.170336
     33          6           0        2.361136   -1.353395   -0.457786
     34          6           0       -2.488980    1.899382    0.189335
     35          6           0        2.237150   -2.751842   -0.773908
     36          6           0       -2.518753    3.325576    0.547730
     37          6           0        1.252098   -0.466195   -0.361568
     38          6           0       -1.336668    1.129486   -0.093414
     39          6           0        1.097446    0.922802   -0.042017
     40          6           0       -0.070430    1.692693    0.060331
     41          1           0       13.891612    0.041962   -0.323803
     42          1           0       14.031063   -0.139024    1.469141
     43          1           0      -12.534069   -1.762825   -2.138790
     44          1           0      -13.861648   -0.685494   -1.894741
     45          1           0       14.096455    2.320884    0.976859
     46          1           0       12.578373    1.726754    1.671549
     47          1           0      -14.183825   -2.816959   -0.187015
     48          1           0      -14.014990   -1.415793    0.772952
     49          1           0       12.839441    2.266980   -1.385689
     50          1           0       11.886527    3.204643   -0.204500
     51          1           0      -11.664121   -3.395105    0.027201
     52          1           0      -12.475314   -2.942043    1.678333
     53          1           0       11.218161    0.197340    2.669615
     54          1           0       12.375452   -1.244947    2.737476
     55          1           0       10.671810   -1.265289    2.116316
     56          1           0       12.857828   -1.911097   -0.739052
     57          1           0       11.658531   -2.797497    0.137610
     58          1           0       13.421364   -2.532183    0.879581
     59          1           0      -13.128424    0.820855    0.923264
     60          1           0      -13.733967    1.530131   -0.607230
     61          1           0      -12.028438    1.888188    0.220574
     62          1           0      -10.758487    0.135956   -2.556209
     63          1           0      -10.962617    1.679085   -1.926076
     64          1           0      -12.229049    0.978101   -2.752728
     65          1           0       10.142728   -2.112361   -0.514515
     66          1           0      -10.123534    1.612760    0.403876
     67          1           0        9.516367    1.086729   -2.066694
     68          1           0       10.803741    2.362906   -2.418404
     69          1           0        9.510992    2.703346   -1.127864
     70          1           0       -9.415434   -1.450866    2.236958
     71          1           0       -9.107093   -2.928904    1.193506
     72          1           0      -10.418379   -2.985658    2.548110
     73          1           0        8.206232    0.657958    0.098918
     74          1           0       -7.932800   -0.744950   -0.016942
     75          1           0        8.150814   -3.107952   -1.481232
     76          1           0        6.363438   -3.203364   -0.657754
     77          1           0        7.910743   -3.261746    0.257383
     78          1           0       -8.425345    2.645601    1.791251
     79          1           0       -8.485352    3.256705    0.035860
     80          1           0       -6.957127    3.369760    0.790550
     81          1           0        6.124245    0.127838   -0.002490
     82          1           0       -5.819954   -0.159622    0.111192
     83          1           0        4.810634   -2.435627   -0.818130
     84          1           0       -5.138958    2.775075    0.661980
     85          1           0        3.813549    0.339049    0.168899
     86          1           0       -3.797941    0.133627    0.252145
     87          1           0        3.127073   -2.975214   -1.524077
     88          1           0        1.248620   -2.833924   -1.199563
     89          1           0        2.471911   -3.559211    0.071211
     90          1           0       -3.482443    3.599960    1.297902
     91          1           0       -2.613988    4.072794   -0.280443
     92          1           0       -1.630307    3.704248    1.051203
     93          1           0        0.294360   -0.939298   -0.813274
     94          1           0       -1.391697    0.026585   -0.123522
     95          1           0        1.988247    1.521424    0.240465
     96          1           0        0.151585    2.642424    0.462857
 ---------------------------------------------------------------------

 SCF Done:  E(RB3LYP) =  -1557.55628108     A.U. after   16 cycles

 Excitation energies and oscillator strengths:

 Excited State   1:      Singlet-A      2.1666 eV  572.25 nm  f=2.9821  <S**2>=0.000
     148 ->149         0.70863
     148 <-149        -0.14219
 This state for optimization and/or second-order correction.
 Total Energy, E(TD-HF/TD-DFT) =  -1557.47665968
 Copying the excited state density for this state as the 1-particle RhoCI density.

 The electronic state is 1-A.
 Alpha  occ. eigenvalues --  -10.21055 -10.20445 -10.20276 -10.20098 -10.20034
 Alpha  occ. eigenvalues --  -10.20026 -10.20014 -10.19964 -10.19767 -10.19742
 Alpha  occ. eigenvalues --  -10.19706 -10.19675 -10.19634 -10.19620 -10.19448
 Alpha  occ. eigenvalues --  -10.19404 -10.19265 -10.19198 -10.19154 -10.19147
 Alpha  occ. eigenvalues --  -10.19027 -10.18976 -10.18828 -10.18749 -10.18745
 Alpha  occ. eigenvalues --  -10.18720 -10.18698 -10.18628 -10.18505 -10.18100
 Alpha  occ. eigenvalues --  -10.18028 -10.18015 -10.17856 -10.17688 -10.17610
 Alpha  occ. eigenvalues --  -10.17572 -10.17108 -10.17018 -10.16571 -10.16040
 Alpha  occ. eigenvalues --   -0.85226  -0.85062  -0.83671  -0.83359  -0.82719
 Alpha  occ. eigenvalues --   -0.81432  -0.79246  -0.79189  -0.78554  -0.77194
 Alpha  occ. eigenvalues --   -0.76095  -0.74798  -0.74285  -0.72098  -0.70964
 Alpha  occ. eigenvalues --   -0.70078  -0.68618  -0.68532  -0.68310  -0.68245
 Alpha  occ. eigenvalues --   -0.68209  -0.66983  -0.66386  -0.65860  -0.65513
 Alpha  occ. eigenvalues --   -0.62952  -0.61235  -0.60312  -0.58774  -0.57151
 Alpha  occ. eigenvalues --   -0.56523  -0.55129  -0.54391  -0.54048  -0.53974
 Alpha  occ. eigenvalues --   -0.52482  -0.51300  -0.49470  -0.49095  -0.48170
 Alpha  occ. eigenvalues --   -0.47868  -0.47553  -0.47120  -0.46773  -0.46156
 Alpha  occ. eigenvalues --   -0.45701  -0.45029  -0.44663  -0.43860  -0.43699
 Alpha  occ. eigenvalues --   -0.43353  -0.42970  -0.42589  -0.42260  -0.42041
 Alpha  occ. eigenvalues --   -0.41795  -0.41308  -0.41136  -0.41017  -0.40837
 Alpha  occ. eigenvalues --   -0.40421  -0.40284  -0.40032  -0.39672  -0.39279
 Alpha  occ. eigenvalues --   -0.38967  -0.38880  -0.38401  -0.38180  -0.37892
 Alpha  occ. eigenvalues --   -0.37750  -0.37320  -0.37260  -0.36885  -0.36734
 Alpha  occ. eigenvalues --   -0.36490  -0.36025  -0.35809  -0.35612  -0.35314
 Alpha  occ. eigenvalues --   -0.34958  -0.34916  -0.34654  -0.34425  -0.33723
 Alpha  occ. eigenvalues --   -0.33477  -0.33350  -0.33244  -0.33091  -0.32596
 Alpha  occ. eigenvalues --   -0.32461  -0.32195  -0.31537  -0.30528  -0.30356
 Alpha  occ. eigenvalues --   -0.30054  -0.29867  -0.29228  -0.29215  -0.28797
 Alpha  occ. eigenvalues --   -0.27464  -0.26547  -0.26101  -0.24754  -0.24049
 Alpha  occ. eigenvalues --   -0.22093  -0.19863  -0.16143
 Alpha virt. eigenvalues --   -0.08627  -0.04431  -0.01603   0.01033   0.03130
 Alpha virt. eigenvalues --    0.03979   0.05064   0.05996   0.06736   0.07120
 Alpha virt. eigenvalues --    0.07437   0.07860   0.08466   0.08571   0.08829

 Mulliken charges:
               1
     1  C   -0.015070
     2  C    0.024406
     3  C   -0.158476
     4  C   -0.178005
     5  C   -0.204419
     6  C   -0.186662
     7  C    0.091788
     8  C    0.056338
     9  C   -0.215606
    10  C   -0.200207
    11  C    0.042712
    12  C    0.081936
    13  C   -0.294668
    14  C   -0.286873
    15  C   -0.273624
    16  C   -0.303803
    17  C   -0.186303
    18  C   -0.178438
    19  C   -0.339667
    20  C   -0.343303
    21  C   -0.039843
    22  C   -0.071390
    23  C    0.121858
    24  C    0.143719
    25  C   -0.370010
    26  C   -0.368810
    27  C   -0.093648
    28  C   -0.147465
    29  C   -0.080204
    30  C   -0.092755
    31  C   -0.096915
    32  C   -0.126674
    33  C    0.109490
    34  C    0.140484
    35  C   -0.367640
    36  C   -0.379629
    37  C   -0.126037
    38  C   -0.115108
    39  C   -0.097397
    40  C   -0.079237
    41  H    0.082169
    42  H    0.077338
    43  H    0.048267
    44  H    0.068220
    45  H    0.084422
    46  H    0.097512
    47  H    0.107268
    48  H    0.102504
    49  H    0.087027
    50  H    0.098421
    51  H    0.102574
    52  H    0.086148
    53  H    0.111498
    54  H    0.099300
    55  H    0.103558
    56  H    0.125438
    57  H    0.048802
    58  H    0.099032
    59  H    0.106957
    60  H    0.068093
    61  H    0.081705
    62  H    0.111767
    63  H    0.087012
    64  H    0.108325
    65  H    0.054591
    66  H    0.099805
    67  H    0.123674
    68  H    0.106208
    69  H    0.115023
    70  H    0.122661
    71  H    0.061933
    72  H    0.082514
    73  H    0.051994
    74  H    0.086281
    75  H    0.123007
    76  H    0.085456
    77  H    0.119313
    78  H    0.119009
    79  H    0.129272
    80  H    0.101046
    81  H    0.050204
    82  H    0.073410
    83  H    0.076040
    84  H    0.073542
    85  H    0.084155
    86  H    0.080859
    87  H    0.106672
    88  H    0.117237
    89  H    0.117217
    90  H    0.091075
    91  H    0.127281
    92  H    0.120126
    93  H    0.060462
    94  H    0.096904
    95  H    0.070400
    96  H    0.084426
 Sum of Mulliken charges =  -0.00000

 Dipole moment (field-independent basis, Debye):
    X=              0.1564    Y=              0.5071    Z=              0.8008  Tot=              0.9607
 Quadrupole moment (field-independent basis, Debye-Ang):
   XX=           -232.5148   YY=           -235.4261   ZZ=           -256.0005
   XY=             -2.5887   XZ=              0.2833   YZ=              2.6172

 Normal termination of Gaussian 16 at Tue Jul 23 21:00:35 2019.
