 Gaussian 16, Revision A.03,
 Gaussian 16:  ES64L-G16RevA.03 25-Dec-2016

 ---------------------------------
 # td=(NStates=1) B3LYP/6-31G(d,p)
 ---------------------------------

 --
 TD
 --
 Symbolic Z-matrix:
 Charge =  0 Multiplicity = 1

                         Standard orientation:
 ---------------------------------------------------------------------
 Center     Atomic      Atomic             Coordinates (Angstroms)
 Number     Number       Type             X           Y           Z
 ---------------------------------------------------------------------
      1          6           0       12.166098    0.508693   -0.674560
      2          6           0      -12.186044   -0.076168    0.864468
      3          6           0       13.480204   -0.362700   -0.582448
      4          6           0      -13.006121    1.139323    1.261401
      5          6           0       13.210308   -1.808045   -0.401243
      6          6           0      -13.314589    2.080019    0.141092
      7          6           0       11.070889    0.000913    0.305626
      8          6           0      -10.973453    0.457888   -0.056626
      9          6           0       12.316939   -2.140729    0.732248
     10          6           0      -12.135746    2.603027   -0.490221
     11          6           0       11.204387   -1.220622    0.882536
     12          6           0      -10.977950    1.571917   -0.792964
     13          6           0       11.631699    0.423356   -2.141357
     14          6           0       12.577848    1.975860   -0.372663
     15          6           0      -13.059995   -1.059899    0.195622
     16          6           0      -11.533148   -0.722962    2.157463
     17          6           0        9.821623    0.851221    0.357759
     18          6           0      -10.000946   -0.603285   -0.273797
     19          6           0       10.097705   -1.625062    1.933506
     20          6           0       -9.898468    2.067383   -1.823299
     21          6           0        8.524734    0.469791    0.365598
     22          6           0       -8.631389   -0.290006   -0.162523
     23          6           0        7.427656    1.306856    0.429138
     24          6           0       -7.550048   -1.317744   -0.335281
     25          6           0        7.596485    2.768669    0.562371
     26          6           0       -7.937163   -2.782706   -0.700725
     27          6           0        6.255499    0.714092    0.356213
     28          6           0       -6.188427   -0.923477   -0.311762
     29          6           0        4.883771    1.318357    0.404467
     30          6           0       -5.073838   -1.720405   -0.463673
     31          6           0        3.680376    0.638433    0.145177
     32          6           0       -3.837955   -1.116169   -0.318274
     33          6           0        2.344059    1.261686    0.185355
     34          6           0       -2.493197   -1.808484   -0.423348
     35          6           0        2.380081    2.839402    0.547344
     36          6           0       -2.663598   -3.267261   -0.800355
     37          6           0        1.257723    0.623972    0.100166
     38          6           0       -1.379925   -1.125453   -0.103886
     39          6           0        1.117366   -0.738903   -0.262415
     40          6           0       -0.063324   -1.571880   -0.386795
     41          1           0       14.242137    0.010074    0.308785
     42          1           0       13.858319   -0.144509   -1.439835
     43          1           0      -12.711017    1.860780    2.119982
     44          1           0      -13.914704    0.788046    1.623255
     45          1           0       14.351167   -2.347355   -0.454796
     46          1           0       12.768659   -2.028063   -1.335693
     47          1           0      -13.914256    2.980110    0.383223
     48          1           0      -13.997657    1.440196   -0.537681
     49          1           0       12.921987   -2.034984    1.730079
     50          1           0       11.869704   -3.113334    0.837372
     51          1           0      -11.695647    3.445274    0.076433
     52          1           0      -12.229340    3.164536   -1.558741
     53          1           0       11.193319   -0.465357   -2.283954
     54          1           0       12.378486    0.719460   -2.956775
     55          1           0       10.852678    1.041461   -2.107075
     56          1           0       12.839313    2.044367    0.606928
     57          1           0       11.911266    2.734916   -0.748063
     58          1           0       13.448859    2.290230   -1.196438
     59          1           0      -13.427447   -0.453001   -0.800338
     60          1           0      -14.027648   -1.115093    0.918094
     61          1           0      -12.467737   -1.908034   -0.015680
     62          1           0      -10.698524   -0.092691    2.518901
     63          1           0      -10.992733   -1.571671    2.088894
     64          1           0      -12.382927   -0.952071    2.828881
     65          1           0        9.927484    1.952970    0.249392
     66          1           0      -10.328501   -1.640972   -0.121866
     67          1           0        9.319629   -0.756953    2.011302
     68          1           0       10.314967   -1.836955    2.816149
     69          1           0        9.374095   -2.259580    1.179503
     70          1           0       -9.513047    1.132609   -1.974402
     71          1           0       -9.280964    2.781993   -1.091198
     72          1           0      -10.343457    2.398525   -2.658102
     73          1           0        8.378393   -0.525872    0.088850
     74          1           0       -8.174111    0.876397    0.192837
     75          1           0        8.344636    2.964637    1.274157
     76          1           0        6.851233    3.408725    0.941547
     77          1           0        7.959185    3.408535   -0.326023
     78          1           0       -8.900875   -2.825794   -1.498544
     79          1           0       -8.347312   -3.307174    0.241128
     80          1           0       -6.946407   -3.181387   -1.000871
     81          1           0        6.297319   -0.369964    0.255550
     82          1           0       -5.945981    0.088519   -0.078291
     83          1           0        4.824801    2.467461    0.656613
     84          1           0       -5.207999   -2.800389   -0.304753
     85          1           0        3.669852   -0.284912   -0.109465
     86          1           0       -3.665895    0.029248   -0.286005
     87          1           0        3.246584    3.222861    1.343333
     88          1           0        1.281915    2.895611    1.064800
     89          1           0        2.722503    3.349125   -0.538462
     90          1           0       -3.170466   -3.357641   -1.819057
     91          1           0       -3.033875   -3.874855   -0.171890
     92          1           0       -1.441677   -3.509468   -0.745686
     93          1           0        0.202372    1.166424    0.353921
     94          1           0       -1.625845    0.071142    0.240506
     95          1           0        2.000660   -1.300339   -0.484427
     96          1           0        0.193762   -2.709187   -0.602323
 ---------------------------------------------------------------------

 SCF Done:  E(RB3LYP) =  -1557.41730100     A.U. after   15 cycles

 Excitation energies and oscillator strengths:

 Excited State   1:      Singlet-A      2.2092 eV  561.22 nm  f=2.8577  <S**2>=0.000
     148 ->149         0.70205
 This state for optimization and/or second-order correction.
 Total Energy, E(TD-HF/TD-DFT) =  -1557.33611516
 Copying the excited state density for this state as the 1-particle RhoCI density.

 The electronic state is 1-A.
 Alpha  occ. eigenvalues --  -10.22456 -10.21065 -10.21051 -10.20799 -10.20620
 Alpha  occ. eigenvalues --  -10.20605 -10.20544 -10.20229 -10.19979 -10.19959
 Alpha  occ. eigenvalues --  -10.19751 -10.19675 -10.19659 -10.19420 -10.19120
 Alpha  occ. eigenvalues --  -10.19089 -10.19079 -10.19000 -10.18929 -10.18845
 Alpha  occ. eigenvalues --  -10.18752 -10.18730 -10.18724 -10.18714 -10.18662
 Alpha  occ. eigenvalues --  -10.18583 -10.18423 -10.18357 -10.18316 -10.17889
 Alpha  occ. eigenvalues --  -10.17730 -10.17658 -10.17629 -10.17492 -10.17415
 Alpha  occ. eigenvalues --  -10.17121 -10.17058 -10.17016 -10.16385 -10.15539
 Alpha  occ. eigenvalues --   -0.85444  -0.84974  -0.84318  -0.83658  -0.82853
 Alpha  occ. eigenvalues --   -0.80941  -0.78765  -0.78734  -0.78200  -0.77868
 Alpha  occ. eigenvalues --   -0.76640  -0.75298  -0.73909  -0.72441  -0.71447
 Alpha  occ. eigenvalues --   -0.70417  -0.69300  -0.68915  -0.68367  -0.68362
 Alpha  occ. eigenvalues --   -0.67797  -0.67502  -0.67074  -0.66612  -0.65388
 Alpha  occ. eigenvalues --   -0.62722  -0.61757  -0.59570  -0.58799  -0.56826
 Alpha  occ. eigenvalues --   -0.56494  -0.55459  -0.54988  -0.53820  -0.53753
 Alpha  occ. eigenvalues --   -0.52672  -0.51391  -0.50389  -0.48826  -0.48803
 Alpha  occ. eigenvalues --   -0.48548  -0.48072  -0.47686  -0.46960  -0.46214
 Alpha  occ. eigenvalues --   -0.45277  -0.45124  -0.44915  -0.44599  -0.44384
 Alpha  occ. eigenvalues --   -0.43989  -0.43605  -0.43124  -0.42938  -0.42462
 Alpha  occ. eigenvalues --   -0.42362  -0.41446  -0.41289  -0.41173  -0.40820
 Alpha  occ. eigenvalues --   -0.40547  -0.40432  -0.40154  -0.39794  -0.39582
 Alpha  occ. eigenvalues --   -0.39143  -0.38902  -0.38549  -0.38096  -0.37917
 Alpha  occ. eigenvalues --   -0.37817  -0.37422  -0.37299  -0.37013  -0.36635
 Alpha  occ. eigenvalues --   -0.36493  -0.36324  -0.36168  -0.35712  -0.35576
 Alpha  occ. eigenvalues --   -0.35355  -0.34696  -0.34343  -0.34272  -0.34105
 Alpha  occ. eigenvalues --   -0.33903  -0.33230  -0.32990  -0.32788  -0.31981
 Alpha  occ. eigenvalues --   -0.31851  -0.31309  -0.31273  -0.30995  -0.30400
 Alpha  occ. eigenvalues --   -0.30114  -0.29861  -0.29261  -0.28466  -0.28266
 Alpha  occ. eigenvalues --   -0.27953  -0.26877  -0.26352  -0.24220  -0.23089
 Alpha  occ. eigenvalues --   -0.20925  -0.18752  -0.16660
 Alpha virt. eigenvalues --   -0.08187  -0.05376  -0.02291   0.00732   0.02494
 Alpha virt. eigenvalues --    0.04423   0.04664   0.05299   0.05967   0.06466
 Alpha virt. eigenvalues --    0.06757   0.07138   0.07461   0.08020   0.08582

 Mulliken charges:
               1
     1  C   -0.037778
     2  C   -0.015214
     3  C   -0.128957
     4  C   -0.162266
     5  C   -0.184665
     6  C   -0.183626
     7  C    0.081153
     8  C    0.093259
     9  C   -0.195336
    10  C   -0.183044
    11  C    0.031304
    12  C   -0.008846
    13  C   -0.299453
    14  C   -0.286725
    15  C   -0.265635
    16  C   -0.303350
    17  C   -0.149668
    18  C   -0.174102
    19  C   -0.346787
    20  C   -0.327101
    21  C   -0.112745
    22  C   -0.085368
    23  C    0.202559
    24  C    0.079296
    25  C   -0.401357
    26  C   -0.357301
    27  C   -0.158538
    28  C   -0.096768
    29  C   -0.095222
    30  C   -0.086687
    31  C   -0.059266
    32  C   -0.125602
    33  C    0.109644
    34  C    0.110155
    35  C   -0.337951
    36  C   -0.341442
    37  C   -0.104806
    38  C   -0.103427
    39  C   -0.100850
    40  C   -0.126821
    41  H    0.051399
    42  H    0.098149
    43  H    0.077630
    44  H    0.085430
    45  H    0.056770
    46  H    0.106224
    47  H    0.088554
    48  H    0.079592
    49  H    0.097776
    50  H    0.112133
    51  H    0.099102
    52  H    0.060839
    53  H    0.107874
    54  H    0.087591
    55  H    0.113312
    56  H    0.115812
    57  H    0.100656
    58  H    0.057429
    59  H    0.087016
    60  H    0.086709
    61  H    0.108275
    62  H    0.106579
    63  H    0.103542
    64  H    0.088439
    65  H    0.077397
    66  H    0.090969
    67  H    0.114919
    68  H    0.109668
    69  H    0.089571
    70  H    0.137091
    71  H    0.106948
    72  H    0.116841
    73  H    0.087075
    74  H    0.065683
    75  H    0.125488
    76  H    0.116102
    77  H    0.110355
    78  H    0.098797
    79  H    0.112982
    80  H    0.110601
    81  H    0.072859
    82  H    0.077795
    83  H    0.070719
    84  H    0.097027
    85  H    0.057847
    86  H    0.071320
    87  H    0.098612
    88  H    0.097644
    89  H    0.110674
    90  H    0.120511
    91  H    0.141711
    92  H    0.062657
    93  H    0.066427
    94  H    0.070456
    95  H    0.080256
    96  H    0.095494
 Sum of Mulliken charges =  -0.00000

 Dipole moment (field-independent basis, Debye):
    X=              0.5331    Y=             -0.2246    Z=              0.3520  Tot=              0.6772
 Quadrupole moment (field-independent basis, Debye-Ang):
   XX=           -238.7116   YY=           -236.9139   ZZ=           -255.4622
   XY=              2.3556   XZ=             -5.0446   YZ=              0.8995

 Normal termination of Gaussian 16 at Wed Jul 31 16:29:42 2019.
