 Gaussian 16, Revision A.03,
 Gaussian 16:  ES64L-G16RevA.03 25-Dec-2016

 ---------------------------------
 # td=(NStates=1) B3LYP/6-31G(d,p)
 ---------------------------------

 --
 TD
 --
 Symbolic Z-matrix:
 Charge =  0 Multiplicity = 1

                         Standard orientation:
 ---------------------------------------------------------------------
 Center     Atomic      Atomic             Coordinates (Angstroms)
 Number     Number       Type             X           Y           Z
 ---------------------------------------------------------------------
      1          6           0       12.168052    0.479449   -0.572255
      2          6           0      -12.049588   -0.191521    0.974881
      3          6           0       13.435304   -0.370490   -0.499536
      4          6           0      -12.908024    0.977622    1.549389
      5          6           0       13.061002   -1.913339   -0.381178
      6          6           0      -13.396763    1.894811    0.393408
      7          6           0       11.008414   -0.106980    0.308690
      8          6           0      -10.993726    0.433904   -0.038531
      9          6           0       12.209817   -2.177394    0.801968
     10          6           0      -12.196699    2.558934   -0.293486
     11          6           0       11.059129   -1.259724    0.955391
     12          6           0      -11.076858    1.675702   -0.549917
     13          6           0       11.659429    0.607014   -2.106678
     14          6           0       12.556787    1.881193   -0.107885
     15          6           0      -12.966474   -1.211323    0.272150
     16          6           0      -11.419497   -0.844870    2.164838
     17          6           0        9.908610    0.833185    0.473643
     18          6           0       -9.946099   -0.443925   -0.300539
     19          6           0        9.996835   -1.684951    1.972980
     20          6           0      -10.141176    2.309180   -1.547751
     21          6           0        8.574610    0.453510    0.449519
     22          6           0       -8.529457   -0.242069   -0.344660
     23          6           0        7.387922    1.396596    0.384418
     24          6           0       -7.548061   -1.220626   -0.615240
     25          6           0        7.664764    2.873020    0.497068
     26          6           0       -7.963283   -2.674653   -0.936485
     27          6           0        6.190700    0.842299    0.139477
     28          6           0       -6.164599   -0.842580   -0.534395
     29          6           0        4.812459    1.532564    0.116930
     30          6           0       -5.003547   -1.664029   -0.614023
     31          6           0        3.739869    0.803477    0.004275
     32          6           0       -3.711792   -1.141652   -0.489416
     33          6           0        2.406235    1.304782    0.056470
     34          6           0       -2.458988   -1.761268   -0.599564
     35          6           0        2.252350    2.774404    0.175322
     36          6           0       -2.475972   -3.233689   -0.719645
     37          6           0        1.236793    0.604070    0.148090
     38          6           0       -1.350143   -1.072455   -0.379754
     39          6           0        1.107780   -0.865870   -0.069460
     40          6           0        0.033497   -1.580443   -0.433824
     41          1           0       13.838771   -0.029219    0.541125
     42          1           0       14.170316   -0.075389   -1.323606
     43          1           0      -12.253480    1.602745    2.219188
     44          1           0      -13.846465    0.718380    2.424375
     45          1           0       14.115734   -2.473886   -0.216321
     46          1           0       12.581209   -2.361994   -1.351512
     47          1           0      -14.033230    2.595235    0.817540
     48          1           0      -13.942418    1.372243   -0.366230
     49          1           0       12.675297   -2.360397    1.797231
     50          1           0       11.621568   -3.198632    0.921789
     51          1           0      -11.722496    3.294093    0.418550
     52          1           0      -12.495165    3.006401   -1.228214
     53          1           0       11.485511   -0.526811   -2.388752
     54          1           0       12.450517    0.880404   -2.946892
     55          1           0       10.817420    1.190969   -2.273995
     56          1           0       12.900039    1.666271    0.842509
     57          1           0       11.690854    2.675211   -0.141567
     58          1           0       13.556910    2.320289   -0.782885
     59          1           0      -13.457033   -0.537661   -0.488784
     60          1           0      -13.819464   -1.566482    0.944641
     61          1           0      -12.256176   -2.210505   -0.149446
     62          1           0      -10.833585   -0.158636    2.772679
     63          1           0      -10.916584   -1.831175    1.885826
     64          1           0      -12.140921   -1.263726    2.994860
     65          1           0       10.223450    1.880999    0.503998
     66          1           0      -10.344226   -1.584851   -0.278947
     67          1           0        9.584077   -0.731693    2.710465
     68          1           0       10.531777   -2.148195    2.959499
     69          1           0        9.313827   -2.396926    1.631815
     70          1           0       -9.400351    1.598500   -2.156017
     71          1           0       -9.354073    3.095366   -1.087024
     72          1           0      -10.611328    2.647356   -2.452939
     73          1           0        8.208025   -0.690083    0.374501
     74          1           0       -8.144085    0.642165   -0.107360
     75          1           0        8.087784    3.156241    1.380810
     76          1           0        6.505499    3.382717    0.509290
     77          1           0        8.204019    3.240943   -0.418076
     78          1           0       -8.769682   -2.592311   -1.779794
     79          1           0       -8.234965   -3.088517    0.000208
     80          1           0       -7.061974   -3.076051   -1.405279
     81          1           0        6.195958   -0.237365    0.269406
     82          1           0       -6.051833    0.068383   -0.318729
     83          1           0        4.900152    2.618180    0.277062
     84          1           0       -5.004146   -2.769943   -0.850460
     85          1           0        3.806288   -0.299098   -0.174229
     86          1           0       -3.773846    0.020165   -0.536232
     87          1           0        2.882284    3.237225    1.095195
     88          1           0        1.358184    3.299841    0.722113
     89          1           0        2.481287    3.376499   -0.858982
     90          1           0       -2.845264   -3.545002   -1.736166
     91          1           0       -3.242208   -3.570976   -0.002456
     92          1           0       -1.564476   -3.651964   -0.664980
     93          1           0        0.232420    1.330246    0.170602
     94          1           0       -1.525846   -0.122252   -0.250070
     95          1           0        2.037664   -1.578561   -0.018573
     96          1           0        0.170840   -2.629943   -0.658873
 ---------------------------------------------------------------------

 SCF Done:  E(RB3LYP) =  -1557.54362311     A.U. after   16 cycles

 Excitation energies and oscillator strengths:

 Excited State   1:      Singlet-A      2.2814 eV  543.46 nm  f=2.7462  <S**2>=0.000
     148 ->149         0.68495
     148 ->150        -0.15940
 This state for optimization and/or second-order correction.
 Total Energy, E(TD-HF/TD-DFT) =  -1557.45978380
 Copying the excited state density for this state as the 1-particle RhoCI density.

 The electronic state is 1-A.
 Alpha  occ. eigenvalues --  -10.20603 -10.20572 -10.20386 -10.20385 -10.20299
 Alpha  occ. eigenvalues --  -10.20154 -10.19992 -10.19951 -10.19869 -10.19779
 Alpha  occ. eigenvalues --  -10.19774 -10.19769 -10.19669 -10.19606 -10.19441
 Alpha  occ. eigenvalues --  -10.19412 -10.19404 -10.19333 -10.19261 -10.19183
 Alpha  occ. eigenvalues --  -10.19160 -10.19085 -10.18807 -10.18803 -10.18666
 Alpha  occ. eigenvalues --  -10.18561 -10.18548 -10.18537 -10.18500 -10.18364
 Alpha  occ. eigenvalues --  -10.18141 -10.18090 -10.18045 -10.17996 -10.17757
 Alpha  occ. eigenvalues --  -10.17665 -10.17442 -10.17439 -10.16978 -10.16797
 Alpha  occ. eigenvalues --   -0.85614  -0.85193  -0.83962  -0.83273  -0.81549
 Alpha  occ. eigenvalues --   -0.81059  -0.79308  -0.78635  -0.78489  -0.77356
 Alpha  occ. eigenvalues --   -0.76825  -0.75063  -0.74072  -0.71509  -0.71180
 Alpha  occ. eigenvalues --   -0.69942  -0.68622  -0.68427  -0.67700  -0.67157
 Alpha  occ. eigenvalues --   -0.66955  -0.66802  -0.66409  -0.66322  -0.65974
 Alpha  occ. eigenvalues --   -0.62733  -0.61685  -0.59684  -0.58946  -0.57334
 Alpha  occ. eigenvalues --   -0.56622  -0.55185  -0.54581  -0.53768  -0.52612
 Alpha  occ. eigenvalues --   -0.52227  -0.51689  -0.49809  -0.49491  -0.48302
 Alpha  occ. eigenvalues --   -0.48168  -0.47386  -0.47091  -0.46630  -0.46515
 Alpha  occ. eigenvalues --   -0.46282  -0.45202  -0.44581  -0.44299  -0.44054
 Alpha  occ. eigenvalues --   -0.43148  -0.43072  -0.42869  -0.42670  -0.42331
 Alpha  occ. eigenvalues --   -0.42197  -0.42025  -0.41689  -0.41402  -0.41178
 Alpha  occ. eigenvalues --   -0.40902  -0.40327  -0.40088  -0.39790  -0.39690
 Alpha  occ. eigenvalues --   -0.38980  -0.38255  -0.38192  -0.37669  -0.37360
 Alpha  occ. eigenvalues --   -0.37308  -0.37071  -0.37000  -0.36211  -0.36064
 Alpha  occ. eigenvalues --   -0.36021  -0.35901  -0.35433  -0.35385  -0.35236
 Alpha  occ. eigenvalues --   -0.34883  -0.34510  -0.34215  -0.33528  -0.33368
 Alpha  occ. eigenvalues --   -0.32789  -0.32725  -0.32676  -0.32288  -0.31933
 Alpha  occ. eigenvalues --   -0.31545  -0.31497  -0.31248  -0.30933  -0.30883
 Alpha  occ. eigenvalues --   -0.30210  -0.29970  -0.29601  -0.28979  -0.28716
 Alpha  occ. eigenvalues --   -0.28408  -0.27979  -0.26503  -0.24954  -0.23280
 Alpha  occ. eigenvalues --   -0.21121  -0.18746  -0.16171
 Alpha virt. eigenvalues --   -0.07663  -0.05004  -0.01784   0.00526   0.03157
 Alpha virt. eigenvalues --    0.04557   0.05983   0.06236   0.06455   0.06898
 Alpha virt. eigenvalues --    0.07540   0.07719   0.07867   0.08405   0.09030

 Mulliken charges:
               1
     1  C   -0.009065
     2  C   -0.005478
     3  C   -0.170744
     4  C   -0.168517
     5  C   -0.187064
     6  C   -0.191736
     7  C    0.089148
     8  C    0.099364
     9  C   -0.212063
    10  C   -0.215947
    11  C    0.086470
    12  C    0.078491
    13  C   -0.291707
    14  C   -0.277080
    15  C   -0.265345
    16  C   -0.283178
    17  C   -0.143867
    18  C   -0.147230
    19  C   -0.361330
    20  C   -0.370201
    21  C   -0.088635
    22  C   -0.077975
    23  C    0.118608
    24  C    0.079648
    25  C   -0.357652
    26  C   -0.361615
    27  C   -0.138535
    28  C   -0.094565
    29  C   -0.079450
    30  C   -0.083832
    31  C   -0.083068
    32  C   -0.142200
    33  C    0.145906
    34  C    0.149154
    35  C   -0.368037
    36  C   -0.374862
    37  C   -0.142358
    38  C   -0.081494
    39  C   -0.096715
    40  C   -0.097925
    41  H    0.081500
    42  H    0.096339
    43  H    0.092205
    44  H    0.044904
    45  H    0.075358
    46  H    0.101137
    47  H    0.098273
    48  H    0.103734
    49  H    0.110830
    50  H    0.083840
    51  H    0.106019
    52  H    0.102365
    53  H    0.078753
    54  H    0.076763
    55  H    0.115231
    56  H    0.112638
    57  H    0.090734
    58  H    0.063078
    59  H    0.097572
    60  H    0.102799
    61  H    0.066778
    62  H    0.103145
    63  H    0.084884
    64  H    0.081275
    65  H    0.079740
    66  H    0.063382
    67  H    0.098738
    68  H    0.072194
    69  H    0.132189
    70  H    0.099981
    71  H    0.101135
    72  H    0.116756
    73  H    0.070810
    74  H    0.068179
    75  H    0.137179
    76  H    0.064393
    77  H    0.123887
    78  H    0.108288
    79  H    0.135274
    80  H    0.111908
    81  H    0.072877
    82  H    0.051566
    83  H    0.094220
    84  H    0.076233
    85  H    0.082952
    86  H    0.062934
    87  H    0.086724
    88  H    0.099587
    89  H    0.102017
    90  H    0.108517
    91  H    0.122225
    92  H    0.108560
    93  H    0.084383
    94  H    0.057827
    95  H    0.075778
    96  H    0.082093
 Sum of Mulliken charges =  -0.00000

 Dipole moment (field-independent basis, Debye):
    X=              0.0850    Y=              0.6308    Z=              0.4896  Tot=              0.8030
 Quadrupole moment (field-independent basis, Debye-Ang):
   XX=           -217.3104   YY=           -236.8434   ZZ=           -253.8257
   XY=            -10.4774   XZ=              4.5203   YZ=              1.0171

 Normal termination of Gaussian 16 at Thu Aug  1 09:38:45 2019.
