 Gaussian 16, Revision A.03,
 Gaussian 16:  ES64L-G16RevA.03 25-Dec-2016

 ---------------------------------
 # td=(NStates=1) B3LYP/6-31G(d,p)
 ---------------------------------

 --
 TD
 --
 Symbolic Z-matrix:
 Charge =  0 Multiplicity = 1

                         Standard orientation:
 ---------------------------------------------------------------------
 Center     Atomic      Atomic             Coordinates (Angstroms)
 Number     Number       Type             X           Y           Z
 ---------------------------------------------------------------------
      1          6           0       12.265103    0.548784   -0.635909
      2          6           0      -12.165971   -0.113164    0.860835
      3          6           0       13.525079   -0.395619   -0.548551
      4          6           0      -13.105641    1.068076    1.211262
      5          6           0       13.146081   -1.809297   -0.650363
      6          6           0      -13.399727    1.987420    0.054463
      7          6           0       11.070793   -0.054159    0.269372
      8          6           0      -10.970025    0.413146   -0.022519
      9          6           0       12.197718   -2.300795    0.485481
     10          6           0      -12.101797    2.625441   -0.610188
     11          6           0       10.996886   -1.322480    0.827627
     12          6           0      -10.959294    1.578383   -0.650892
     13          6           0       11.717220    0.626254   -2.143972
     14          6           0       12.581646    1.987212   -0.066828
     15          6           0      -12.917306   -1.151840   -0.021288
     16          6           0      -11.739440   -0.790142    2.125353
     17          6           0        9.871667    0.823961    0.299214
     18          6           0       -9.864994   -0.554695   -0.282839
     19          6           0        9.982744   -1.855137    1.798089
     20          6           0       -9.770267    2.227877   -1.578079
     21          6           0        8.581122    0.437140    0.222342
     22          6           0       -8.503862   -0.309996   -0.181003
     23          6           0        7.385124    1.313995    0.382227
     24          6           0       -7.536376   -1.365421   -0.430810
     25          6           0        7.696436    2.799646    0.401448
     26          6           0       -7.959586   -2.757867   -0.820431
     27          6           0        6.240819    0.821433    0.358378
     28          6           0       -6.211888   -0.925172   -0.371985
     29          6           0        4.871490    1.421708    0.433276
     30          6           0       -5.050494   -1.633657   -0.431293
     31          6           0        3.691869    0.763141    0.317243
     32          6           0       -3.861159   -1.017589   -0.295312
     33          6           0        2.324964    1.395322    0.313223
     34          6           0       -2.493467   -1.790924   -0.457376
     35          6           0        2.290646    2.858815    0.666426
     36          6           0       -2.509721   -3.234279   -0.634000
     37          6           0        1.228661    0.633421    0.260373
     38          6           0       -1.423296   -0.979482   -0.094743
     39          6           0        1.183686   -0.749144    0.076309
     40          6           0       -0.013362   -1.460339   -0.061017
     41          1           0       14.075745   -0.152730    0.379140
     42          1           0       14.179874    0.007989   -1.349945
     43          1           0      -12.703696    1.631525    2.092963
     44          1           0      -14.059379    0.684583    1.473882
     45          1           0       14.253698   -2.406321   -0.854132
     46          1           0       12.710016   -1.902745   -1.653763
     47          1           0      -14.086762    2.663720    0.535370
     48          1           0      -13.987324    1.680870   -0.894400
     49          1           0       12.791498   -2.350417    1.526232
     50          1           0       11.959507   -3.340154    0.164455
     51          1           0      -11.825837    3.394184    0.113471
     52          1           0      -12.270240    3.251138   -1.485641
     53          1           0       11.481330   -0.455719   -2.503545
     54          1           0       12.507751    1.235571   -2.682864
     55          1           0       10.966168    1.249655   -2.271694
     56          1           0       12.765904    2.016630    1.093237
     57          1           0       11.789418    2.722936   -0.455147
     58          1           0       13.509477    2.023172   -0.732443
     59          1           0      -13.480346   -0.700174   -1.051037
     60          1           0      -13.714242   -1.725701    0.511793
     61          1           0      -12.296895   -1.906197   -0.347542
     62          1           0      -10.995839   -0.082996    2.544029
     63          1           0      -11.177879   -1.794487    1.849888
     64          1           0      -12.625418   -1.384277    2.688171
     65          1           0       10.091198    1.900154    0.349581
     66          1           0      -10.098837   -1.601087   -0.441182
     67          1           0        9.307485   -1.187934    2.255571
     68          1           0       10.658837   -2.462038    2.504103
     69          1           0        9.281499   -2.597325    1.344083
     70          1           0       -9.096130    1.392948   -1.895679
     71          1           0       -9.174010    3.041649   -1.101944
     72          1           0      -10.342638    2.657652   -2.370070
     73          1           0        8.295249   -0.508471   -0.085976
     74          1           0       -8.227619    0.691262    0.010430
     75          1           0        8.370932    3.101327    1.328783
     76          1           0        6.732666    3.465222    0.567119
     77          1           0        8.063629    3.124295   -0.638029
     78          1           0       -8.673564   -2.539654   -1.545583
     79          1           0       -8.473749   -3.398718    0.011432
     80          1           0       -7.003821   -3.254643   -1.330019
     81          1           0        6.025581   -0.253955    0.516373
     82          1           0       -6.328796    0.277934   -0.120178
     83          1           0        4.774949    2.519973    0.788259
     84          1           0       -5.044803   -2.637686   -0.731097
     85          1           0        3.567525   -0.396257    0.076040
     86          1           0       -3.859152   -0.136432   -0.177844
     87          1           0        2.574823    3.077975    1.691943
     88          1           0        1.143676    3.085792    0.709977
     89          1           0        2.802408    3.530332   -0.164714
     90          1           0       -3.115692   -3.595050   -1.434347
     91          1           0       -3.043751   -3.776581    0.185869
     92          1           0       -1.580157   -3.651335   -0.745500
     93          1           0        0.141910    1.075017   -0.041119
     94          1           0       -1.613245    0.071807    0.095628
     95          1           0        2.145435   -1.406553   -0.044231
     96          1           0        0.179150   -2.529528   -0.499413
 ---------------------------------------------------------------------

 SCF Done:  E(RB3LYP) =  -1557.57703904     A.U. after   15 cycles

 Excitation energies and oscillator strengths:

 Excited State   1:      Singlet-A      2.4596 eV  504.08 nm  f=2.6238  <S**2>=0.000
     148 ->149         0.69932
 This state for optimization and/or second-order correction.
 Total Energy, E(TD-HF/TD-DFT) =  -1557.48664996
 Copying the excited state density for this state as the 1-particle RhoCI density.

 The electronic state is 1-A.
 Alpha  occ. eigenvalues --  -10.21064 -10.20755 -10.20198 -10.20153 -10.20083
 Alpha  occ. eigenvalues --  -10.20027 -10.19909 -10.19821 -10.19698 -10.19693
 Alpha  occ. eigenvalues --  -10.19667 -10.19648 -10.19622 -10.19615 -10.19608
 Alpha  occ. eigenvalues --  -10.19527 -10.19487 -10.19388 -10.19187 -10.19093
 Alpha  occ. eigenvalues --  -10.19012 -10.18666 -10.18592 -10.18453 -10.18393
 Alpha  occ. eigenvalues --  -10.18245 -10.18217 -10.18157 -10.18066 -10.18064
 Alpha  occ. eigenvalues --  -10.18062 -10.17913 -10.17894 -10.17723 -10.17686
 Alpha  occ. eigenvalues --  -10.17683 -10.17680 -10.17667 -10.17618 -10.17215
 Alpha  occ. eigenvalues --   -0.84389  -0.83746  -0.83412  -0.82983  -0.82279
 Alpha  occ. eigenvalues --   -0.81263  -0.78542  -0.77821  -0.77490  -0.76950
 Alpha  occ. eigenvalues --   -0.76343  -0.75548  -0.73972  -0.71842  -0.71564
 Alpha  occ. eigenvalues --   -0.70634  -0.68796  -0.67854  -0.67833  -0.67640
 Alpha  occ. eigenvalues --   -0.67476  -0.67211  -0.66782  -0.66167  -0.65919
 Alpha  occ. eigenvalues --   -0.62244  -0.60949  -0.58944  -0.58336  -0.56782
 Alpha  occ. eigenvalues --   -0.56247  -0.55845  -0.54879  -0.54565  -0.53115
 Alpha  occ. eigenvalues --   -0.52127  -0.51417  -0.49834  -0.49363  -0.48918
 Alpha  occ. eigenvalues --   -0.47717  -0.47373  -0.46830  -0.46328  -0.45960
 Alpha  occ. eigenvalues --   -0.45198  -0.44628  -0.44111  -0.43822  -0.43644
 Alpha  occ. eigenvalues --   -0.43504  -0.43037  -0.42424  -0.42142  -0.41807
 Alpha  occ. eigenvalues --   -0.41704  -0.41569  -0.41276  -0.41191  -0.41040
 Alpha  occ. eigenvalues --   -0.40819  -0.40720  -0.39711  -0.39532  -0.39351
 Alpha  occ. eigenvalues --   -0.39098  -0.39005  -0.38726  -0.38328  -0.38251
 Alpha  occ. eigenvalues --   -0.37716  -0.37554  -0.37022  -0.36931  -0.36790
 Alpha  occ. eigenvalues --   -0.36415  -0.35851  -0.35665  -0.35430  -0.34968
 Alpha  occ. eigenvalues --   -0.34827  -0.34336  -0.34099  -0.33995  -0.33808
 Alpha  occ. eigenvalues --   -0.33628  -0.33485  -0.33259  -0.33090  -0.32766
 Alpha  occ. eigenvalues --   -0.32453  -0.31956  -0.31376  -0.31244  -0.30895
 Alpha  occ. eigenvalues --   -0.29861  -0.29496  -0.29058  -0.28633  -0.28194
 Alpha  occ. eigenvalues --   -0.27633  -0.27192  -0.26165  -0.24163  -0.23173
 Alpha  occ. eigenvalues --   -0.20694  -0.19043  -0.16832
 Alpha virt. eigenvalues --   -0.07279  -0.04370  -0.01935   0.00810   0.02645
 Alpha virt. eigenvalues --    0.04297   0.06193   0.06214   0.06807   0.07240
 Alpha virt. eigenvalues --    0.07419   0.08039   0.08229   0.08891   0.09139

 Mulliken charges:
               1
     1  C   -0.023875
     2  C    0.010647
     3  C   -0.160201
     4  C   -0.163329
     5  C   -0.176837
     6  C   -0.192623
     7  C    0.067204
     8  C    0.054848
     9  C   -0.213911
    10  C   -0.230616
    11  C    0.046619
    12  C    0.050713
    13  C   -0.290896
    14  C   -0.300051
    15  C   -0.297031
    16  C   -0.293577
    17  C   -0.132101
    18  C   -0.155128
    19  C   -0.352764
    20  C   -0.359678
    21  C   -0.094404
    22  C   -0.088959
    23  C    0.163891
    24  C    0.112171
    25  C   -0.371532
    26  C   -0.372070
    27  C   -0.148783
    28  C   -0.116614
    29  C   -0.111632
    30  C   -0.070816
    31  C   -0.080985
    32  C   -0.046347
    33  C    0.107596
    34  C    0.099789
    35  C   -0.370358
    36  C   -0.384618
    37  C   -0.122762
    38  C   -0.109563
    39  C   -0.072351
    40  C   -0.124322
    41  H    0.091286
    42  H    0.083141
    43  H    0.089431
    44  H    0.098771
    45  H    0.053587
    46  H    0.103501
    47  H    0.088362
    48  H    0.088786
    49  H    0.085173
    50  H    0.106374
    51  H    0.107419
    52  H    0.098316
    53  H    0.103320
    54  H    0.081069
    55  H    0.120254
    56  H    0.108086
    57  H    0.100440
    58  H    0.094160
    59  H    0.070183
    60  H    0.087142
    61  H    0.111946
    62  H    0.112700
    63  H    0.077565
    64  H    0.094250
    65  H    0.074253
    66  H    0.076548
    67  H    0.130301
    68  H    0.093939
    69  H    0.110191
    70  H    0.117043
    71  H    0.112558
    72  H    0.110933
    73  H    0.079032
    74  H    0.088708
    75  H    0.110416
    76  H    0.089366
    77  H    0.118756
    78  H    0.138381
    79  H    0.114756
    80  H    0.096157
    81  H    0.076900
    82  H    0.056158
    83  H    0.079183
    84  H    0.071061
    85  H    0.061482
    86  H    0.030949
    87  H    0.135786
    88  H    0.089450
    89  H    0.106465
    90  H    0.123360
    91  H    0.127227
    92  H    0.120734
    93  H    0.077255
    94  H    0.087621
    95  H    0.083262
    96  H    0.071763
 Sum of Mulliken charges =  -0.00000

 Dipole moment (field-independent basis, Debye):
    X=             -0.8337    Y=             -0.1956    Z=             -0.4258  Tot=              0.9563
 Quadrupole moment (field-independent basis, Debye-Ang):
   XX=           -227.8677   YY=           -233.7579   ZZ=           -255.0501
   XY=              1.0753   XZ=             -2.9656   YZ=              2.6432

 Normal termination of Gaussian 16 at Wed Jul 31 03:34:31 2019.
