 Gaussian 16, Revision A.03,
 Gaussian 16:  ES64L-G16RevA.03 25-Dec-2016

 ---------------------------------
 # td=(NStates=1) B3LYP/6-31G(d,p)
 ---------------------------------

 --
 TD
 --
 Symbolic Z-matrix:
 Charge =  0 Multiplicity = 1

                         Standard orientation:
 ---------------------------------------------------------------------
 Center     Atomic      Atomic             Coordinates (Angstroms)
 Number     Number       Type             X           Y           Z
 ---------------------------------------------------------------------
      1          6           0      -12.137927   -0.537489   -0.763884
      2          6           0       12.060983   -0.055749    0.826229
      3          6           0      -13.425131    0.316117   -0.763733
      4          6           0       13.114311   -1.094804    1.261219
      5          6           0      -13.107391    1.824151   -0.608921
      6          6           0       13.459708   -1.970566   -0.047908
      7          6           0      -11.137775   -0.007783    0.255127
      8          6           0       10.914881   -0.490909   -0.119840
      9          6           0      -12.400404    2.109750    0.756062
     10          6           0       12.261995   -2.537508   -0.598989
     11          6           0      -11.226425    1.209077    0.883600
     12          6           0       10.969865   -1.615812   -0.725807
     13          6           0      -11.539487   -0.482185   -2.172250
     14          6           0      -12.487451   -1.962744   -0.419198
     15          6           0       12.984436    1.110381    0.199718
     16          6           0       11.501069    0.463534    2.196127
     17          6           0       -9.904103   -0.878741    0.308463
     18          6           0        9.962684    0.553971   -0.309826
     19          6           0      -10.304461    1.552444    1.993830
     20          6           0       10.056586   -2.084701   -1.805175
     21          6           0       -8.610170   -0.516633    0.237195
     22          6           0        8.560966    0.409078   -0.216007
     23          6           0       -7.485407   -1.391725    0.404419
     24          6           0        7.471679    1.352359   -0.360265
     25          6           0       -7.692582   -2.852764    0.696708
     26          6           0        7.903380    2.717406   -0.821735
     27          6           0       -6.151707   -0.855475    0.213450
     28          6           0        6.202575    0.902363   -0.167123
     29          6           0       -4.851414   -1.540230    0.520464
     30          6           0        5.000902    1.671748   -0.401076
     31          6           0       -3.790583   -0.835562    0.094791
     32          6           0        3.714598    1.144862   -0.208254
     33          6           0       -2.310986   -1.221176    0.349372
     34          6           0        2.568789    1.916206   -0.299489
     35          6           0       -2.104125   -2.772132    0.600093
     36          6           0        2.594425    3.416789   -0.515190
     37          6           0       -1.216859   -0.528101    0.162368
     38          6           0        1.370960    1.260142   -0.093812
     39          6           0       -1.120615    0.912679   -0.025689
     40          6           0        0.106658    1.725125   -0.233804
     41          1           0      -13.845627    0.084780    0.225807
     42          1           0      -14.169085    0.210533   -1.575445
     43          1           0       12.503453   -1.856023    2.053474
     44          1           0       14.109047   -0.821215    1.648985
     45          1           0      -14.049069    2.531464   -0.659480
     46          1           0      -12.567392    2.172831   -1.503390
     47          1           0       14.053508   -2.869548    0.240061
     48          1           0       14.030296   -1.344969   -0.646934
     49          1           0      -13.351478    2.280151    1.544686
     50          1           0      -12.049641    3.082956    0.683170
     51          1           0       12.011502   -3.582008   -0.129618
     52          1           0       12.331110   -2.966581   -1.524632
     53          1           0      -11.274287    0.574747   -2.692361
     54          1           0      -12.252218   -1.088111   -3.123150
     55          1           0      -10.537854   -0.912768   -2.416471
     56          1           0      -12.862662   -1.912889    0.625659
     57          1           0      -11.745583   -2.657604   -0.617773
     58          1           0      -13.311516   -2.298181   -1.008743
     59          1           0       13.293674    1.041507   -0.711915
     60          1           0       13.824043    1.277928    0.786043
     61          1           0       12.208122    1.732446    0.119736
     62          1           0       10.591382   -0.204702    2.455763
     63          1           0       10.853791    1.329720    1.901172
     64          1           0       12.230875    0.811594    2.845174
     65          1           0      -10.110595   -1.981982    0.722360
     66          1           0       10.293305    1.640058   -0.381744
     67          1           0       -9.648372    0.596516    2.192824
     68          1           0      -10.713166    2.133759    2.930641
     69          1           0       -9.839820    2.335773    1.869425
     70          1           0        9.510614   -1.203828   -1.930027
     71          1           0        9.502674   -3.004109   -1.330518
     72          1           0       10.616521   -2.453992   -2.664796
     73          1           0       -8.147211    0.536938   -0.286804
     74          1           0        8.132090   -0.568298   -0.044579
     75          1           0       -8.128968   -3.047096    1.663625
     76          1           0       -6.660934   -3.407065    0.438783
     77          1           0       -8.405179   -3.162196   -0.103409
     78          1           0        8.455272    2.736381   -1.859980
     79          1           0        8.670448    3.197399   -0.140701
     80          1           0        7.153951    3.406730   -0.939757
     81          1           0       -6.019183    0.193114    0.016818
     82          1           0        6.171925   -0.158976   -0.084733
     83          1           0       -4.806448   -2.461447    0.993859
     84          1           0        4.973741    2.687297   -0.590608
     85          1           0       -3.814238    0.077407   -0.354927
     86          1           0        3.590612    0.020355   -0.161320
     87          1           0       -2.617435   -2.969092    1.589836
     88          1           0       -1.080852   -3.087836    0.629852
     89          1           0       -2.741385   -3.389699   -0.002949
     90          1           0        2.918929    3.799352   -1.567184
     91          1           0        3.473162    3.865621    0.106673
     92          1           0        1.500383    3.754929   -0.595447
     93          1           0       -0.252995   -1.069573    0.032373
     94          1           0        1.576660    0.258160    0.063635
     95          1           0       -2.064493    1.383712    0.019599
     96          1           0       -0.172097    2.713271   -0.438186
 ---------------------------------------------------------------------

 SCF Done:  E(RB3LYP) =  -1557.52509188     A.U. after   16 cycles

 Excitation energies and oscillator strengths:

 Excited State   1:      Singlet-A      2.0910 eV  592.94 nm  f=2.9707  <S**2>=0.000
     148 ->149         0.69600
     148 ->150         0.12788
     148 <-149        -0.12733
 This state for optimization and/or second-order correction.
 Total Energy, E(TD-HF/TD-DFT) =  -1557.44824913
 Copying the excited state density for this state as the 1-particle RhoCI density.

 The electronic state is 1-A.
 Alpha  occ. eigenvalues --  -10.20760 -10.20457 -10.20413 -10.20362 -10.20200
 Alpha  occ. eigenvalues --  -10.20158 -10.20126 -10.19991 -10.19923 -10.19841
 Alpha  occ. eigenvalues --  -10.19789 -10.19646 -10.19592 -10.19591 -10.19589
 Alpha  occ. eigenvalues --  -10.19589 -10.19551 -10.19493 -10.19382 -10.19060
 Alpha  occ. eigenvalues --  -10.18971 -10.18938 -10.18882 -10.18802 -10.18659
 Alpha  occ. eigenvalues --  -10.18566 -10.18548 -10.18270 -10.18138 -10.17979
 Alpha  occ. eigenvalues --  -10.17922 -10.17617 -10.17580 -10.17327 -10.17172
 Alpha  occ. eigenvalues --  -10.16700 -10.16661 -10.16529 -10.16434 -10.14100
 Alpha  occ. eigenvalues --   -0.85300  -0.85148  -0.84212  -0.82973  -0.82261
 Alpha  occ. eigenvalues --   -0.81488  -0.79185  -0.78755  -0.78346  -0.77742
 Alpha  occ. eigenvalues --   -0.76770  -0.75633  -0.73862  -0.72320  -0.71809
 Alpha  occ. eigenvalues --   -0.70223  -0.69180  -0.68938  -0.68641  -0.68139
 Alpha  occ. eigenvalues --   -0.67925  -0.67598  -0.66741  -0.66196  -0.66162
 Alpha  occ. eigenvalues --   -0.63337  -0.61997  -0.60023  -0.58934  -0.57878
 Alpha  occ. eigenvalues --   -0.57305  -0.56140  -0.55883  -0.54772  -0.53576
 Alpha  occ. eigenvalues --   -0.52655  -0.51901  -0.50349  -0.49762  -0.48525
 Alpha  occ. eigenvalues --   -0.48127  -0.47947  -0.47567  -0.46837  -0.46595
 Alpha  occ. eigenvalues --   -0.46264  -0.45684  -0.45301  -0.44875  -0.44419
 Alpha  occ. eigenvalues --   -0.43908  -0.43756  -0.43389  -0.43276  -0.42486
 Alpha  occ. eigenvalues --   -0.42218  -0.41985  -0.41495  -0.41043  -0.40712
 Alpha  occ. eigenvalues --   -0.40481  -0.40298  -0.40042  -0.39774  -0.39571
 Alpha  occ. eigenvalues --   -0.39308  -0.39265  -0.38850  -0.38499  -0.38430
 Alpha  occ. eigenvalues --   -0.37893  -0.37840  -0.37357  -0.37218  -0.37166
 Alpha  occ. eigenvalues --   -0.36437  -0.36280  -0.35891  -0.35711  -0.35489
 Alpha  occ. eigenvalues --   -0.35382  -0.34713  -0.34574  -0.33929  -0.33607
 Alpha  occ. eigenvalues --   -0.33264  -0.33165  -0.32753  -0.32701  -0.32461
 Alpha  occ. eigenvalues --   -0.32189  -0.31781  -0.31490  -0.31019  -0.30611
 Alpha  occ. eigenvalues --   -0.30246  -0.29755  -0.29356  -0.28570  -0.28300
 Alpha  occ. eigenvalues --   -0.27718  -0.27022  -0.25999  -0.24299  -0.23206
 Alpha  occ. eigenvalues --   -0.21320  -0.19528  -0.16329
 Alpha virt. eigenvalues --   -0.08893  -0.05534  -0.02440   0.00261   0.02144
 Alpha virt. eigenvalues --    0.03609   0.05472   0.06708   0.07146   0.07534
 Alpha virt. eigenvalues --    0.07777   0.07984   0.08582   0.08847   0.09186

 Mulliken charges:
               1
     1  C    0.019782
     2  C   -0.038927
     3  C   -0.166990
     4  C   -0.161929
     5  C   -0.196713
     6  C   -0.186218
     7  C    0.045267
     8  C    0.123553
     9  C   -0.222033
    10  C   -0.194889
    11  C    0.097937
    12  C    0.037781
    13  C   -0.276808
    14  C   -0.301394
    15  C   -0.295690
    16  C   -0.294229
    17  C   -0.174016
    18  C   -0.182055
    19  C   -0.342532
    20  C   -0.351564
    21  C   -0.060038
    22  C   -0.109665
    23  C    0.107896
    24  C    0.158788
    25  C   -0.373475
    26  C   -0.380930
    27  C   -0.143235
    28  C   -0.134615
    29  C   -0.059716
    30  C   -0.093117
    31  C   -0.089335
    32  C   -0.120894
    33  C    0.092454
    34  C    0.157070
    35  C   -0.374029
    36  C   -0.384071
    37  C   -0.116227
    38  C   -0.081906
    39  C   -0.118204
    40  C   -0.108930
    41  H    0.088364
    42  H    0.094095
    43  H    0.045967
    44  H    0.091349
    45  H    0.059928
    46  H    0.097629
    47  H    0.081478
    48  H    0.102448
    49  H    0.084086
    50  H    0.110459
    51  H    0.075051
    52  H    0.096366
    53  H    0.081843
    54  H    0.036789
    55  H    0.107971
    56  H    0.098470
    57  H    0.110581
    58  H    0.104761
    59  H    0.107666
    60  H    0.100947
    61  H    0.098322
    62  H    0.102527
    63  H    0.082193
    64  H    0.109122
    65  H    0.088411
    66  H    0.091061
    67  H    0.108531
    68  H    0.075176
    69  H    0.123593
    70  H    0.121051
    71  H    0.099806
    72  H    0.111003
    73  H    0.067511
    74  H    0.071447
    75  H    0.131181
    76  H    0.093843
    77  H    0.124629
    78  H    0.109016
    79  H    0.111699
    80  H    0.112933
    81  H    0.084322
    82  H    0.082595
    83  H    0.093959
    84  H    0.073572
    85  H    0.083367
    86  H    0.076469
    87  H    0.106188
    88  H    0.111391
    89  H    0.120425
    90  H    0.106480
    91  H    0.119276
    92  H    0.109232
    93  H    0.081567
    94  H    0.073461
    95  H    0.076950
    96  H    0.085295
 Sum of Mulliken charges =  -0.00000

 Dipole moment (field-independent basis, Debye):
    X=             -0.3832    Y=              0.2509    Z=             -0.6713  Tot=              0.8127
 Quadrupole moment (field-independent basis, Debye-Ang):
   XX=           -242.1686   YY=           -234.0492   ZZ=           -257.5013
   XY=              1.7572   XZ=            -11.2632   YZ=             -2.5617

 Normal termination of Gaussian 16 at Wed Jul 31 05:46:59 2019.
