 Gaussian 16, Revision A.03,
 Gaussian 16:  ES64L-G16RevA.03 25-Dec-2016

 ---------------------------------
 # td=(NStates=1) B3LYP/6-31G(d,p)
 ---------------------------------

 --
 TD
 --
 Symbolic Z-matrix:
 Charge =  0 Multiplicity = 1

                         Standard orientation:
 ---------------------------------------------------------------------
 Center     Atomic      Atomic             Coordinates (Angstroms)
 Number     Number       Type             X           Y           Z
 ---------------------------------------------------------------------
      1          6           0       12.208245    0.608173   -0.530021
      2          6           0      -12.077570   -0.099583    0.881833
      3          6           0       13.511718   -0.152432   -0.383160
      4          6           0      -13.076283    1.036441    1.303375
      5          6           0       13.314183   -1.670834   -0.542046
      6          6           0      -13.408391    2.008733    0.198367
      7          6           0       11.035214   -0.014285    0.268160
      8          6           0      -10.996780    0.417564   -0.010885
      9          6           0       12.377995   -2.116041    0.658523
     10          6           0      -12.162919    2.582426   -0.399978
     11          6           0       11.116263   -1.261172    0.815349
     12          6           0      -11.018107    1.645352   -0.591444
     13          6           0       11.727122    0.467594   -2.106084
     14          6           0       12.457915    2.067686   -0.134678
     15          6           0      -12.990204   -1.139181    0.120314
     16          6           0      -11.559690   -0.699063    2.070925
     17          6           0        9.785711    0.759695    0.430930
     18          6           0       -9.901043   -0.539153   -0.225862
     19          6           0       10.207553   -1.779798    1.854775
     20          6           0      -10.187939    2.214002   -1.679352
     21          6           0        8.617038    0.349788    0.186223
     22          6           0       -8.558930   -0.352007   -0.167646
     23          6           0        7.423282    1.318834    0.299449
     24          6           0       -7.571992   -1.312635   -0.376594
     25          6           0        7.679619    2.783536    0.666609
     26          6           0       -7.823724   -2.667274   -0.779126
     27          6           0        6.073591    0.702929    0.153245
     28          6           0       -6.303885   -0.945032   -0.324914
     29          6           0        4.848613    1.427955    0.189154
     30          6           0       -4.980325   -1.600313   -0.425682
     31          6           0        3.705592    0.795427    0.298097
     32          6           0       -3.786909   -1.150171   -0.307628
     33          6           0        2.343808    1.301297    0.060269
     34          6           0       -2.502256   -1.825194   -0.282038
     35          6           0        2.079584    2.764329    0.443767
     36          6           0       -2.532478   -3.283506   -0.546570
     37          6           0        1.232543    0.523810   -0.165611
     38          6           0       -1.308886   -1.050307   -0.225612
     39          6           0        1.161635   -0.830220   -0.403180
     40          6           0        0.002185   -1.626007   -0.476451
     41          1           0       13.846898    0.043228    0.883688
     42          1           0       14.536767   -0.076702   -1.048493
     43          1           0      -12.662437    1.657923    2.167694
     44          1           0      -13.969630    0.710082    1.706386
     45          1           0       14.184955   -2.218938   -0.566672
     46          1           0       12.538373   -2.002075   -1.566146
     47          1           0      -14.147009    2.881170    0.712913
     48          1           0      -14.109841    1.665208   -0.740131
     49          1           0       12.857706   -2.171199    1.686836
     50          1           0       11.988370   -3.096709    0.552536
     51          1           0      -11.888426    3.349521    0.303529
     52          1           0      -12.142267    3.228696   -1.387351
     53          1           0       11.578847   -0.709169   -2.349178
     54          1           0       12.377635    1.170976   -2.591637
     55          1           0       10.546222    0.749397   -2.233764
     56          1           0       12.846629    2.113790    0.886336
     57          1           0       11.722085    2.861991   -0.407215
     58          1           0       13.422017    2.511478   -0.625223
     59          1           0      -13.477404   -0.847900   -0.678770
     60          1           0      -13.767620   -1.625150    0.658032
     61          1           0      -12.600938   -2.122511   -0.363431
     62          1           0      -10.802392    0.080106    2.195469
     63          1           0      -10.836175   -1.541023    1.929090
     64          1           0      -12.174208   -0.873316    2.951982
     65          1           0       10.076171    1.819683    0.604110
     66          1           0      -10.100629   -1.529310   -0.615404
     67          1           0        9.604942   -0.820669    2.016687
     68          1           0       10.629903   -1.882315    2.659111
     69          1           0        9.705472   -2.788809    1.223898
     70          1           0       -9.167743    1.499748   -1.732601
     71          1           0       -9.810285    3.361665   -1.538247
     72          1           0      -10.839553    2.245725   -2.518870
     73          1           0        8.418690   -0.719561    0.127775
     74          1           0       -8.354503    0.684062    0.245656
     75          1           0        8.290745    2.814123    1.564076
     76          1           0        6.751361    3.389912    0.782780
     77          1           0        8.389546    3.051052   -0.007629
     78          1           0       -8.473701   -2.718195   -1.642121
     79          1           0       -8.533686   -3.207777    0.019291
     80          1           0       -6.907534   -3.317657   -0.597591
     81          1           0        6.070954   -0.324586    0.143387
     82          1           0       -6.068782    0.232457   -0.397452
     83          1           0        4.939484    2.413409    0.721990
     84          1           0       -5.006646   -2.818720   -0.203440
     85          1           0        3.825705   -0.300677   -0.099418
     86          1           0       -3.664977   -0.089917   -0.149982
     87          1           0        2.561949    3.121991    1.288060
     88          1           0        0.928487    3.043852    0.523708
     89          1           0        2.755408    3.428105   -0.368144
     90          1           0       -3.298426   -3.391620   -1.298804
     91          1           0       -2.981975   -3.834139    0.287258
     92          1           0       -1.567011   -3.908828   -0.753574
     93          1           0        0.219427    1.014626   -0.204936
     94          1           0       -1.491260   -0.023213   -0.201119
     95          1           0        2.180328   -1.499296   -0.481007
     96          1           0        0.083376   -2.652164   -0.362736
 ---------------------------------------------------------------------

 SCF Done:  E(RB3LYP) =  -1557.43127365     A.U. after   16 cycles

 Excitation energies and oscillator strengths:

 Excited State   1:      Singlet-A      2.2318 eV  555.54 nm  f=2.9036  <S**2>=0.000
     148 ->149         0.70623
     148 <-149        -0.10331
 This state for optimization and/or second-order correction.
 Total Energy, E(TD-HF/TD-DFT) =  -1557.34925695
 Copying the excited state density for this state as the 1-particle RhoCI density.

 The electronic state is 1-A.
 Alpha  occ. eigenvalues --  -10.21914 -10.21612 -10.21582 -10.20677 -10.20264
 Alpha  occ. eigenvalues --  -10.20216 -10.19998 -10.19892 -10.19797 -10.19747
 Alpha  occ. eigenvalues --  -10.19678 -10.19552 -10.19427 -10.19356 -10.19200
 Alpha  occ. eigenvalues --  -10.18954 -10.18909 -10.18907 -10.18872 -10.18836
 Alpha  occ. eigenvalues --  -10.18811 -10.18810 -10.18776 -10.18771 -10.18721
 Alpha  occ. eigenvalues --  -10.18614 -10.18512 -10.18482 -10.18412 -10.18267
 Alpha  occ. eigenvalues --  -10.18156 -10.18124 -10.18051 -10.18014 -10.17997
 Alpha  occ. eigenvalues --  -10.17984 -10.17976 -10.17739 -10.16119 -10.15566
 Alpha  occ. eigenvalues --   -0.86203  -0.85186  -0.84177  -0.83265  -0.82514
 Alpha  occ. eigenvalues --   -0.81402  -0.79885  -0.79635  -0.78633  -0.77749
 Alpha  occ. eigenvalues --   -0.76921  -0.75569  -0.74309  -0.73091  -0.72814
 Alpha  occ. eigenvalues --   -0.70010  -0.69354  -0.68790  -0.68570  -0.68046
 Alpha  occ. eigenvalues --   -0.67768  -0.67281  -0.66925  -0.66192  -0.65881
 Alpha  occ. eigenvalues --   -0.62204  -0.61384  -0.59552  -0.58420  -0.57202
 Alpha  occ. eigenvalues --   -0.57055  -0.56177  -0.54974  -0.53827  -0.52791
 Alpha  occ. eigenvalues --   -0.52242  -0.51270  -0.50656  -0.50183  -0.48737
 Alpha  occ. eigenvalues --   -0.48463  -0.47380  -0.47214  -0.46957  -0.46056
 Alpha  occ. eigenvalues --   -0.45985  -0.45734  -0.45276  -0.44590  -0.44079
 Alpha  occ. eigenvalues --   -0.43742  -0.43601  -0.43221  -0.43030  -0.42478
 Alpha  occ. eigenvalues --   -0.42269  -0.42077  -0.41669  -0.41172  -0.41130
 Alpha  occ. eigenvalues --   -0.40843  -0.40121  -0.39891  -0.39739  -0.39641
 Alpha  occ. eigenvalues --   -0.38910  -0.38722  -0.38697  -0.38661  -0.38275
 Alpha  occ. eigenvalues --   -0.37912  -0.37770  -0.37100  -0.36788  -0.36549
 Alpha  occ. eigenvalues --   -0.35943  -0.35774  -0.35447  -0.35373  -0.35228
 Alpha  occ. eigenvalues --   -0.34878  -0.34699  -0.34568  -0.34361  -0.33661
 Alpha  occ. eigenvalues --   -0.33348  -0.33131  -0.32297  -0.32082  -0.32032
 Alpha  occ. eigenvalues --   -0.31978  -0.31295  -0.31165  -0.30780  -0.30252
 Alpha  occ. eigenvalues --   -0.29870  -0.29684  -0.29221  -0.29113  -0.28383
 Alpha  occ. eigenvalues --   -0.28123  -0.28082  -0.26276  -0.23870  -0.22668
 Alpha  occ. eigenvalues --   -0.21051  -0.19328  -0.16550
 Alpha virt. eigenvalues --   -0.08167  -0.04867  -0.01981   0.00772   0.02188
 Alpha virt. eigenvalues --    0.03487   0.04942   0.05533   0.06387   0.06524
 Alpha virt. eigenvalues --    0.06971   0.07225   0.07493   0.07764   0.08052

 Mulliken charges:
               1
     1  C    0.025755
     2  C    0.024238
     3  C   -0.139831
     4  C   -0.170030
     5  C   -0.160571
     6  C   -0.177754
     7  C    0.067582
     8  C    0.037783
     9  C   -0.210255
    10  C   -0.210826
    11  C    0.021786
    12  C    0.104837
    13  C   -0.292596
    14  C   -0.330636
    15  C   -0.313939
    16  C   -0.304150
    17  C   -0.143776
    18  C   -0.147680
    19  C   -0.304619
    20  C   -0.368297
    21  C   -0.058781
    22  C   -0.088672
    23  C    0.055574
    24  C    0.178799
    25  C   -0.368554
    26  C   -0.390469
    27  C   -0.120406
    28  C   -0.145507
    29  C   -0.058658
    30  C   -0.077031
    31  C   -0.124747
    32  C   -0.098742
    33  C    0.110139
    34  C    0.125225
    35  C   -0.360640
    36  C   -0.395388
    37  C   -0.099115
    38  C   -0.110062
    39  C   -0.080182
    40  C   -0.103464
    41  H    0.044860
    42  H    0.082820
    43  H    0.085822
    44  H    0.105722
    45  H    0.100071
    46  H    0.052394
    47  H    0.053625
    48  H    0.075381
    49  H    0.089618
    50  H    0.092518
    51  H    0.117483
    52  H    0.077034
    53  H    0.096408
    54  H    0.111035
    55  H    0.084799
    56  H    0.112021
    57  H    0.106729
    58  H    0.088035
    59  H    0.111590
    60  H    0.096881
    61  H    0.069914
    62  H    0.102212
    63  H    0.101391
    64  H    0.102900
    65  H    0.074988
    66  H    0.078859
    67  H    0.104530
    68  H    0.118242
    69  H    0.074572
    70  H    0.090433
    71  H    0.093268
    72  H    0.136651
    73  H    0.095753
    74  H    0.080118
    75  H    0.128706
    76  H    0.113175
    77  H    0.137737
    78  H    0.135999
    79  H    0.083176
    80  H    0.117314
    81  H    0.080886
    82  H    0.055466
    83  H    0.080310
    84  H    0.042787
    85  H    0.063193
    86  H    0.068973
    87  H    0.133941
    88  H    0.098802
    89  H    0.081559
    90  H    0.132278
    91  H    0.121594
    92  H    0.101308
    93  H    0.081760
    94  H    0.079239
    95  H    0.066263
    96  H    0.090517
 Sum of Mulliken charges =  -0.00000

 Dipole moment (field-independent basis, Debye):
    X=              1.8140    Y=              0.5436    Z=              0.9395  Tot=              2.1139
 Quadrupole moment (field-independent basis, Debye-Ang):
   XX=           -202.9140   YY=           -235.5982   ZZ=           -256.6887
   XY=              0.5176   XZ=              5.7960   YZ=              2.6064

 Normal termination of Gaussian 16 at Tue Jul 23 18:42:26 2019.
