 Gaussian 16, Revision A.03,
 Gaussian 16:  ES64L-G16RevA.03 25-Dec-2016

 ---------------------------------
 # td=(NStates=1) B3LYP/6-31G(d,p)
 ---------------------------------

 --
 TD
 --
 Symbolic Z-matrix:
 Charge =  0 Multiplicity = 1

                         Standard orientation:
 ---------------------------------------------------------------------
 Center     Atomic      Atomic             Coordinates (Angstroms)
 Number     Number       Type             X           Y           Z
 ---------------------------------------------------------------------
      1          6           0       12.150394    0.527785   -0.796381
      2          6           0      -12.072854   -0.092682    0.899735
      3          6           0       13.377422   -0.363533   -0.753379
      4          6           0      -12.941881    1.028980    1.338053
      5          6           0       13.047893   -1.849828   -0.646884
      6          6           0      -13.374970    1.996418    0.226062
      7          6           0       11.046904    0.080474    0.235616
      8          6           0      -11.059529    0.441352   -0.187793
      9          6           0       12.274812   -2.171256    0.691809
     10          6           0      -12.198140    2.558159   -0.365641
     11          6           0       11.217600   -1.166538    0.883065
     12          6           0      -11.136139    1.643478   -0.802133
     13          6           0       11.524518    0.475161   -2.197670
     14          6           0       12.576773    2.013787   -0.477425
     15          6           0      -12.946157   -1.213282    0.200127
     16          6           0      -11.407383   -0.794001    2.087449
     17          6           0        9.888287    0.977188    0.450840
     18          6           0      -10.002291   -0.513055   -0.458550
     19          6           0       10.262201   -1.805449    1.807004
     20          6           0      -10.071394    2.210104   -1.780313
     21          6           0        8.595080    0.585250    0.451680
     22          6           0       -8.629934   -0.301334   -0.434631
     23          6           0        7.419539    1.245991    0.535453
     24          6           0       -7.579153   -1.293332   -0.625030
     25          6           0        7.550838    2.774013    0.843828
     26          6           0       -7.937948   -2.655052   -0.758817
     27          6           0        6.230432    0.680696    0.459978
     28          6           0       -6.309198   -0.851730   -0.391295
     29          6           0        4.978877    1.304052    0.587856
     30          6           0       -5.060101   -1.677169   -0.381901
     31          6           0        3.765884    0.692151    0.244068
     32          6           0       -3.751885   -1.058431   -0.151063
     33          6           0        2.426707    1.237996    0.227209
     34          6           0       -2.577740   -1.694569   -0.268204
     35          6           0        2.264799    2.832465    0.439587
     36          6           0       -2.539536   -3.161145   -0.629066
     37          6           0        1.363839    0.535791    0.080892
     38          6           0       -1.357185   -1.057168   -0.076820
     39          6           0        1.233391   -0.908838   -0.076618
     40          6           0        0.008413   -1.513542   -0.152022
     41          1           0       13.928036   -0.027152    0.080360
     42          1           0       13.997485    0.154779   -1.630337
     43          1           0      -12.538057    1.673468    2.007356
     44          1           0      -13.978904    0.660722    1.861944
     45          1           0       14.146017   -2.384791   -0.585373
     46          1           0       12.369906   -2.261249   -1.476646
     47          1           0      -13.941538    2.780548    0.645676
     48          1           0      -14.061167    1.503019   -0.554827
     49          1           0       13.160481   -2.249005    1.459023
     50          1           0       11.926659   -3.216868    0.469730
     51          1           0      -11.689947    3.382515    0.268689
     52          1           0      -12.287520    3.291131   -1.220790
     53          1           0       11.255674   -0.586988   -2.397085
     54          1           0       12.225264    1.179124   -2.820247
     55          1           0       10.453714    1.068170   -2.046213
     56          1           0       12.789346    2.248856    0.542250
     57          1           0       11.663042    2.706838   -0.973872
     58          1           0       13.423939    2.101337   -1.232464
     59          1           0      -13.468475   -0.802952   -0.634850
     60          1           0      -13.777523   -1.664496    0.845095
     61          1           0      -12.283003   -1.919611   -0.133477
     62          1           0      -10.738641   -0.097763    2.749979
     63          1           0      -10.661598   -1.564408    2.019306
     64          1           0      -12.233713   -1.125805    2.733469
     65          1           0       10.181272    1.980161    0.442515
     66          1           0      -10.210300   -1.516536   -0.683331
     67          1           0        9.762589   -0.705677    2.004338
     68          1           0       10.489375   -2.076041    2.584854
     69          1           0        9.372291   -2.658650    1.537788
     70          1           0       -9.282211    1.327730   -2.102932
     71          1           0       -9.399056    2.796186   -1.320139
     72          1           0      -10.649302    2.746504   -2.600635
     73          1           0        8.486310   -0.466007    0.165940
     74          1           0       -8.590376    0.742036   -0.317106
     75          1           0        7.940909    2.730950    1.725115
     76          1           0        6.543144    3.163467    0.848532
     77          1           0        8.100521    3.301171    0.020383
     78          1           0       -8.506854   -2.830311   -1.754177
     79          1           0       -8.473169   -3.244794   -0.137753
     80          1           0       -7.108495   -3.349332   -0.979213
     81          1           0        6.282005   -0.361122    0.400833
     82          1           0       -6.097292    0.256674   -0.193353
     83          1           0        5.058718    2.450331    0.747140
     84          1           0       -5.206745   -2.713457   -0.938015
     85          1           0        3.845997   -0.366111   -0.081878
     86          1           0       -3.842182   -0.041377    0.123132
     87          1           0        2.770334    3.354709    1.268370
     88          1           0        1.247182    3.149209    0.605973
     89          1           0        2.595460    3.235817   -0.532606
     90          1           0       -3.163706   -3.395995   -1.497750
     91          1           0       -2.915387   -3.734449    0.131587
     92          1           0       -1.563445   -3.543689   -0.721216
     93          1           0        0.408923    0.914761    0.063727
     94          1           0       -1.476205   -0.123203   -0.034045
     95          1           0        2.199514   -1.327548   -0.197013
     96          1           0        0.013594   -2.740962   -0.227824
 ---------------------------------------------------------------------

 SCF Done:  E(RB3LYP) =  -1557.48634655     A.U. after   17 cycles

 Excitation energies and oscillator strengths:

 Excited State   1:      Singlet-A      2.1120 eV  587.06 nm  f=3.1116  <S**2>=0.000
     148 ->149         0.70211
     148 <-149        -0.10865
 This state for optimization and/or second-order correction.
 Total Energy, E(TD-HF/TD-DFT) =  -1557.40873315
 Copying the excited state density for this state as the 1-particle RhoCI density.

 The electronic state is 1-A.
 Alpha  occ. eigenvalues --  -10.21329 -10.20702 -10.20467 -10.20374 -10.20022
 Alpha  occ. eigenvalues --  -10.19954 -10.19905 -10.19880 -10.19753 -10.19602
 Alpha  occ. eigenvalues --  -10.19538 -10.19445 -10.19262 -10.19230 -10.19212
 Alpha  occ. eigenvalues --  -10.19141 -10.19049 -10.19010 -10.18890 -10.18700
 Alpha  occ. eigenvalues --  -10.18516 -10.18471 -10.18398 -10.18310 -10.18231
 Alpha  occ. eigenvalues --  -10.18128 -10.18046 -10.17869 -10.17858 -10.17816
 Alpha  occ. eigenvalues --  -10.17797 -10.17768 -10.17760 -10.17717 -10.17471
 Alpha  occ. eigenvalues --  -10.17246 -10.16734 -10.16581 -10.16573 -10.16156
 Alpha  occ. eigenvalues --   -0.85763  -0.85120  -0.84248  -0.83942  -0.83226
 Alpha  occ. eigenvalues --   -0.82662  -0.79024  -0.78916  -0.78647  -0.78184
 Alpha  occ. eigenvalues --   -0.77125  -0.75010  -0.73987  -0.72733  -0.72159
 Alpha  occ. eigenvalues --   -0.70651  -0.69829  -0.69483  -0.68410  -0.67994
 Alpha  occ. eigenvalues --   -0.67858  -0.67500  -0.66942  -0.66672  -0.66469
 Alpha  occ. eigenvalues --   -0.63780  -0.62936  -0.60432  -0.59079  -0.57462
 Alpha  occ. eigenvalues --   -0.56655  -0.56273  -0.55020  -0.54572  -0.53643
 Alpha  occ. eigenvalues --   -0.53298  -0.52298  -0.51846  -0.50699  -0.49843
 Alpha  occ. eigenvalues --   -0.49010  -0.48375  -0.47917  -0.47387  -0.46835
 Alpha  occ. eigenvalues --   -0.46595  -0.45446  -0.45083  -0.44998  -0.44781
 Alpha  occ. eigenvalues --   -0.44086  -0.43841  -0.43281  -0.42904  -0.42452
 Alpha  occ. eigenvalues --   -0.42197  -0.42036  -0.41745  -0.41733  -0.41303
 Alpha  occ. eigenvalues --   -0.40734  -0.40689  -0.40421  -0.39823  -0.39438
 Alpha  occ. eigenvalues --   -0.39284  -0.38984  -0.38767  -0.38353  -0.38215
 Alpha  occ. eigenvalues --   -0.37976  -0.37622  -0.37240  -0.37057  -0.36955
 Alpha  occ. eigenvalues --   -0.36364  -0.36329  -0.36104  -0.35414  -0.35199
 Alpha  occ. eigenvalues --   -0.34554  -0.34498  -0.34236  -0.34095  -0.34020
 Alpha  occ. eigenvalues --   -0.33856  -0.33495  -0.33399  -0.32989  -0.32616
 Alpha  occ. eigenvalues --   -0.31840  -0.31436  -0.31184  -0.31029  -0.30771
 Alpha  occ. eigenvalues --   -0.30375  -0.30103  -0.29876  -0.29672  -0.29274
 Alpha  occ. eigenvalues --   -0.28445  -0.26837  -0.25339  -0.24084  -0.22738
 Alpha  occ. eigenvalues --   -0.21547  -0.19020  -0.16675
 Alpha virt. eigenvalues --   -0.08872  -0.05995  -0.01606   0.00201   0.02393
 Alpha virt. eigenvalues --    0.03800   0.05350   0.06069   0.06811   0.07767
 Alpha virt. eigenvalues --    0.07944   0.08152   0.08494   0.09406   0.09551

 Mulliken charges:
               1
     1  C   -0.025509
     2  C    0.015514
     3  C   -0.137364
     4  C   -0.164214
     5  C   -0.197338
     6  C   -0.187790
     7  C    0.087096
     8  C    0.044262
     9  C   -0.218665
    10  C   -0.209589
    11  C    0.033874
    12  C    0.080718
    13  C   -0.265851
    14  C   -0.300655
    15  C   -0.297436
    16  C   -0.302410
    17  C   -0.161225
    18  C   -0.139251
    19  C   -0.299886
    20  C   -0.367653
    21  C   -0.086960
    22  C   -0.094519
    23  C    0.114953
    24  C    0.137740
    25  C   -0.355061
    26  C   -0.400280
    27  C   -0.096730
    28  C   -0.118196
    29  C   -0.095809
    30  C   -0.105113
    31  C   -0.133496
    32  C   -0.133779
    33  C    0.118969
    34  C    0.148062
    35  C   -0.376233
    36  C   -0.374487
    37  C   -0.112864
    38  C   -0.090195
    39  C   -0.063404
    40  C   -0.103693
    41  H    0.098963
    42  H    0.062555
    43  H    0.105375
    44  H    0.056222
    45  H    0.060713
    46  H    0.091829
    47  H    0.098967
    48  H    0.089907
    49  H    0.097064
    50  H    0.109016
    51  H    0.091352
    52  H    0.078039
    53  H    0.110619
    54  H    0.089798
    55  H    0.075857
    56  H    0.119225
    57  H    0.071753
    58  H    0.090824
    59  H    0.103718
    60  H    0.086478
    61  H    0.110728
    62  H    0.077236
    63  H    0.111350
    64  H    0.100110
    65  H    0.086136
    66  H    0.072985
    67  H    0.076333
    68  H    0.106972
    69  H    0.065103
    70  H    0.100016
    71  H    0.138782
    72  H    0.101507
    73  H    0.087642
    74  H    0.069797
    75  H    0.140280
    76  H    0.093504
    77  H    0.111271
    78  H    0.104033
    79  H    0.144961
    80  H    0.104961
    81  H    0.072467
    82  H    0.079954
    83  H    0.081628
    84  H    0.082355
    85  H    0.081474
    86  H    0.084460
    87  H    0.115161
    88  H    0.109289
    89  H    0.123074
    90  H    0.114253
    91  H    0.130375
    92  H    0.106735
    93  H    0.072984
    94  H    0.052343
    95  H    0.081371
    96  H    0.054561
 Sum of Mulliken charges =  -0.00000

 Dipole moment (field-independent basis, Debye):
    X=             -1.4621    Y=              0.5004    Z=              0.0189  Tot=              1.5455
 Quadrupole moment (field-independent basis, Debye-Ang):
   XX=           -233.0206   YY=           -233.4967   ZZ=           -257.4933
   XY=              0.3671   XZ=              2.8123   YZ=              2.4556

 Normal termination of Gaussian 16 at Sun Jul 28 20:24:09 2019.
