 Gaussian 16, Revision A.03,
 Gaussian 16:  ES64L-G16RevA.03 25-Dec-2016

 ---------------------------------
 # td=(NStates=1) B3LYP/6-31G(d,p)
 ---------------------------------

 --
 TD
 --
 Symbolic Z-matrix:
 Charge =  0 Multiplicity = 1

                         Standard orientation:
 ---------------------------------------------------------------------
 Center     Atomic      Atomic             Coordinates (Angstroms)
 Number     Number       Type             X           Y           Z
 ---------------------------------------------------------------------
      1          6           0      -12.191169   -0.530545   -0.639157
      2          6           0       12.124241    0.036356    0.949315
      3          6           0      -13.396087    0.381779   -0.641143
      4          6           0       13.001365   -1.082393    1.362052
      5          6           0      -13.122566    1.756457   -0.698665
      6          6           0       13.477409   -1.954893    0.074700
      7          6           0      -11.114381    0.094086    0.288657
      8          6           0       11.093568   -0.392543   -0.187944
      9          6           0      -12.302633    2.247181    0.560689
     10          6           0       12.181174   -2.542583   -0.658259
     11          6           0      -11.121369    1.292025    0.808827
     12          6           0       11.082540   -1.612158   -0.778104
     13          6           0      -11.634934   -0.674740   -2.120145
     14          6           0      -12.616970   -1.969043   -0.191446
     15          6           0       12.968984    1.136613    0.223358
     16          6           0       11.483467    0.597122    2.239891
     17          6           0       -9.934978   -0.796514    0.562740
     18          6           0       10.076915    0.598550   -0.243714
     19          6           0      -10.140345    1.840372    1.851325
     20          6           0       10.103617   -1.975327   -1.865316
     21          6           0       -8.633903   -0.544063    0.279145
     22          6           0        8.691021    0.341713   -0.286688
     23          6           0       -7.449832   -1.379656    0.400775
     24          6           0        7.564877    1.211603   -0.371318
     25          6           0       -7.625599   -2.912334    0.785502
     26          6           0        7.789701    2.699861   -0.510425
     27          6           0       -6.219840   -0.848636    0.232263
     28          6           0        6.288907    0.807986   -0.314942
     29          6           0       -4.914139   -1.432828    0.257436
     30          6           0        5.015252    1.657344   -0.352140
     31          6           0       -3.726950   -0.717418    0.175521
     32          6           0        3.861674    0.948616   -0.265713
     33          6           0       -2.422204   -1.310573    0.307375
     34          6           0        2.626967    1.706505   -0.479770
     35          6           0       -2.361143   -2.775749    0.653085
     36          6           0        2.574392    3.307506   -0.598973
     37          6           0       -1.336796   -0.523588    0.041606
     38          6           0        1.357432    1.037957   -0.296638
     39          6           0       -1.154834    0.881606   -0.241982
     40          6           0        0.014864    1.561982   -0.476192
     41          1           0      -14.033304    0.207265    0.242627
     42          1           0      -14.125448    0.083586   -1.368923
     43          1           0       12.641923   -1.630964    2.175846
     44          1           0       13.820354   -0.934711    1.825136
     45          1           0      -13.953296    2.428027   -0.645727
     46          1           0      -12.943765    2.108228   -1.593832
     47          1           0       14.013819   -2.784747    0.598264
     48          1           0       14.063262   -1.370500   -0.608772
     49          1           0      -12.929950    2.552012    1.439828
     50          1           0      -11.899872    3.066958    0.085896
     51          1           0       11.676438   -3.428833   -0.299160
     52          1           0       12.477265   -2.918249   -1.593942
     53          1           0      -11.248251    0.312688   -2.335400
     54          1           0      -12.391400   -1.091086   -2.627973
     55          1           0      -10.700565   -1.306345   -2.029988
     56          1           0      -12.986022   -1.889395    0.899582
     57          1           0      -11.889735   -2.703348   -0.202262
     58          1           0      -13.478345   -2.343566   -0.860396
     59          1           0       13.472379    0.843810   -0.696968
     60          1           0       13.794919    1.164023    0.813768
     61          1           0       12.239098    2.014324    0.006208
     62          1           0       10.949648   -0.270592    2.783475
     63          1           0       10.773659    1.604335    1.985876
     64          1           0       12.274065    1.140076    2.923132
     65          1           0      -10.121017   -1.996712    0.803430
     66          1           0       10.351435    1.580046   -0.496389
     67          1           0       -9.679904    1.179618    2.469155
     68          1           0      -10.729252    2.305833    2.604682
     69          1           0       -9.262858    2.486532    1.460175
     70          1           0        9.622875   -1.155573   -2.273615
     71          1           0        9.496966   -2.550402   -1.431134
     72          1           0       10.547980   -2.665318   -2.786612
     73          1           0       -8.382363    0.556221    0.015144
     74          1           0        8.550538   -0.721597   -0.036524
     75          1           0       -8.131760   -3.012090    1.786970
     76          1           0       -6.765295   -3.377841    0.635336
     77          1           0       -8.252912   -3.323353    0.017551
     78          1           0        8.332397    2.996534   -1.361302
     79          1           0        8.312318    3.254783    0.410357
     80          1           0        7.053230    3.476587   -0.434405
     81          1           0       -6.177886    0.270229    0.258368
     82          1           0        6.110736   -0.217130   -0.074971
     83          1           0       -4.893821   -2.512270    0.436299
     84          1           0        5.089420    2.690352   -0.349401
     85          1           0       -3.707831    0.372967   -0.015611
     86          1           0        3.653751    0.061531   -0.280169
     87          1           0       -2.615381   -2.870664    1.835293
     88          1           0       -1.370934   -3.258834    0.409673
     89          1           0       -2.963931   -3.355625    0.069058
     90          1           0        3.020521    3.473079   -1.643345
     91          1           0        3.118686    3.641781    0.136117
     92          1           0        1.480718    3.791173   -0.563965
     93          1           0       -0.301405   -0.971911    0.181707
     94          1           0        1.410793    0.063360   -0.259074
     95          1           0       -2.085091    1.437054   -0.503580
     96          1           0       -0.073771    2.492829   -0.949056
 ---------------------------------------------------------------------

 SCF Done:  E(RB3LYP) =  -1557.52633265     A.U. after   15 cycles

 Excitation energies and oscillator strengths:

 Excited State   1:      Singlet-A      2.2586 eV  548.95 nm  f=3.0198  <S**2>=0.000
     148 ->149         0.70783
 This state for optimization and/or second-order correction.
 Total Energy, E(TD-HF/TD-DFT) =  -1557.44333132
 Copying the excited state density for this state as the 1-particle RhoCI density.

 The electronic state is 1-A.
 Alpha  occ. eigenvalues --  -10.20794 -10.19893 -10.19867 -10.19761 -10.19655
 Alpha  occ. eigenvalues --  -10.19598 -10.19559 -10.19538 -10.19445 -10.19147
 Alpha  occ. eigenvalues --  -10.19000 -10.18970 -10.18968 -10.18938 -10.18918
 Alpha  occ. eigenvalues --  -10.18910 -10.18754 -10.18731 -10.18513 -10.18464
 Alpha  occ. eigenvalues --  -10.18435 -10.18317 -10.18238 -10.18138 -10.18120
 Alpha  occ. eigenvalues --  -10.18072 -10.17904 -10.17892 -10.17724 -10.17622
 Alpha  occ. eigenvalues --  -10.17541 -10.17478 -10.17259 -10.16774 -10.16732
 Alpha  occ. eigenvalues --  -10.16290 -10.16108 -10.15853 -10.15623 -10.15315
 Alpha  occ. eigenvalues --   -0.85083  -0.84986  -0.83136  -0.82762  -0.81473
 Alpha  occ. eigenvalues --   -0.80931  -0.79502  -0.78743  -0.78152  -0.77481
 Alpha  occ. eigenvalues --   -0.76732  -0.74821  -0.73453  -0.71936  -0.71673
 Alpha  occ. eigenvalues --   -0.69909  -0.69379  -0.68792  -0.68757  -0.68137
 Alpha  occ. eigenvalues --   -0.67922  -0.67605  -0.67366  -0.67061  -0.66216
 Alpha  occ. eigenvalues --   -0.63286  -0.62333  -0.60939  -0.60124  -0.58125
 Alpha  occ. eigenvalues --   -0.56952  -0.56248  -0.55984  -0.54794  -0.53735
 Alpha  occ. eigenvalues --   -0.52648  -0.51664  -0.49818  -0.49610  -0.48489
 Alpha  occ. eigenvalues --   -0.48406  -0.47996  -0.47759  -0.46438  -0.45961
 Alpha  occ. eigenvalues --   -0.45864  -0.45439  -0.45060  -0.44579  -0.44242
 Alpha  occ. eigenvalues --   -0.43771  -0.43454  -0.42925  -0.42669  -0.42387
 Alpha  occ. eigenvalues --   -0.42170  -0.42038  -0.41998  -0.41680  -0.41413
 Alpha  occ. eigenvalues --   -0.41242  -0.40737  -0.40408  -0.39973  -0.39823
 Alpha  occ. eigenvalues --   -0.39224  -0.39167  -0.38969  -0.38624  -0.37963
 Alpha  occ. eigenvalues --   -0.37845  -0.37542  -0.37480  -0.37008  -0.36692
 Alpha  occ. eigenvalues --   -0.36530  -0.36208  -0.35752  -0.35465  -0.34861
 Alpha  occ. eigenvalues --   -0.34771  -0.34388  -0.34359  -0.34046  -0.33432
 Alpha  occ. eigenvalues --   -0.33215  -0.33063  -0.32815  -0.32602  -0.32516
 Alpha  occ. eigenvalues --   -0.31847  -0.31606  -0.31477  -0.31422  -0.30886
 Alpha  occ. eigenvalues --   -0.30239  -0.29603  -0.29182  -0.28638  -0.28561
 Alpha  occ. eigenvalues --   -0.27569  -0.27202  -0.25653  -0.23870  -0.22940
 Alpha  occ. eigenvalues --   -0.21107  -0.18904  -0.16490
 Alpha virt. eigenvalues --   -0.07888  -0.04817  -0.01695   0.01191   0.03363
 Alpha virt. eigenvalues --    0.04460   0.06085   0.07454   0.07589   0.08041
 Alpha virt. eigenvalues --    0.08523   0.08665   0.09007   0.09508   0.09642

 Mulliken charges:
               1
     1  C   -0.012709
     2  C    0.008079
     3  C   -0.155245
     4  C   -0.171795
     5  C   -0.202742
     6  C   -0.210835
     7  C    0.085012
     8  C    0.070872
     9  C   -0.229853
    10  C   -0.220302
    11  C    0.047016
    12  C    0.043134
    13  C   -0.287852
    14  C   -0.301438
    15  C   -0.295791
    16  C   -0.288394
    17  C   -0.163249
    18  C   -0.121010
    19  C   -0.356300
    20  C   -0.345055
    21  C   -0.072862
    22  C   -0.133918
    23  C    0.097734
    24  C    0.160685
    25  C   -0.363989
    26  C   -0.390214
    27  C   -0.121651
    28  C   -0.150447
    29  C   -0.092621
    30  C   -0.084182
    31  C   -0.104169
    32  C   -0.012669
    33  C    0.125678
    34  C    0.040823
    35  C   -0.365129
    36  C   -0.355139
    37  C   -0.138038
    38  C   -0.109797
    39  C   -0.080720
    40  C   -0.094796
    41  H    0.082460
    42  H    0.074736
    43  H    0.084548
    44  H    0.091801
    45  H    0.081260
    46  H    0.103959
    47  H    0.088321
    48  H    0.110742
    49  H    0.103108
    50  H    0.118590
    51  H    0.100591
    52  H    0.106628
    53  H    0.105629
    54  H    0.107392
    55  H    0.098859
    56  H    0.088888
    57  H    0.110139
    58  H    0.084473
    59  H    0.099477
    60  H    0.104084
    61  H    0.094552
    62  H    0.103382
    63  H    0.073747
    64  H    0.088650
    65  H    0.058427
    66  H    0.087629
    67  H    0.124934
    68  H    0.103350
    69  H    0.100789
    70  H    0.129074
    71  H    0.134862
    72  H    0.064133
    73  H    0.066971
    74  H    0.073899
    75  H    0.122329
    76  H    0.113198
    77  H    0.118884
    78  H    0.123776
    79  H    0.085720
    80  H    0.111083
    81  H    0.068574
    82  H    0.073237
    83  H    0.078360
    84  H    0.093177
    85  H    0.080470
    86  H    0.054167
    87  H    0.107664
    88  H    0.100730
    89  H    0.133549
    90  H    0.113112
    91  H    0.137100
    92  H    0.097918
    93  H    0.064449
    94  H    0.068555
    95  H    0.072294
    96  H    0.085442
 Sum of Mulliken charges =  -0.00000

 Dipole moment (field-independent basis, Debye):
    X=              1.0177    Y=             -0.1619    Z=              0.1014  Tot=              1.0354
 Quadrupole moment (field-independent basis, Debye-Ang):
   XX=           -213.1531   YY=           -231.6166   ZZ=           -252.9537
   XY=             -6.6726   XZ=              2.5333   YZ=             -2.7725

 Normal termination of Gaussian 16 at Wed Jul 31 05:14:59 2019.
