 Gaussian 16, Revision A.03,
 Gaussian 16:  ES64L-G16RevA.03 25-Dec-2016

 ---------------------------------
 # td=(NStates=1) B3LYP/6-31G(d,p)
 ---------------------------------

 --
 TD
 --
 Symbolic Z-matrix:
 Charge =  0 Multiplicity = 1

                         Standard orientation:
 ---------------------------------------------------------------------
 Center     Atomic      Atomic             Coordinates (Angstroms)
 Number     Number       Type             X           Y           Z
 ---------------------------------------------------------------------
      1          6           0       12.186131    0.578160   -0.516990
      2          6           0      -12.133873   -0.051662    0.938874
      3          6           0       13.405997   -0.419896   -0.314963
      4          6           0      -12.965429    1.089549    1.377352
      5          6           0       13.125284   -1.885765   -0.432510
      6          6           0      -13.502909    2.024799    0.184399
      7          6           0       11.042313   -0.049963    0.334096
      8          6           0      -11.013808    0.371354   -0.021764
      9          6           0       12.263453   -2.195913    0.679705
     10          6           0      -12.185349    2.567517   -0.411172
     11          6           0       11.141594   -1.214740    0.944429
     12          6           0      -10.978065    1.610392   -0.507441
     13          6           0       11.873157    0.607353   -1.983887
     14          6           0       12.667492    1.994570   -0.126405
     15          6           0      -13.104061   -1.065387    0.197586
     16          6           0      -11.558949   -0.657825    2.186100
     17          6           0        9.815668    0.799395    0.424041
     18          6           0       -9.844564   -0.655299   -0.270241
     19          6           0       10.039962   -1.743292    1.847355
     20          6           0       -9.978011    2.015534   -1.679134
     21          6           0        8.527840    0.471009    0.339418
     22          6           0       -8.635576   -0.329934   -0.299847
     23          6           0        7.381158    1.372752    0.346220
     24          6           0       -7.561422   -1.295566   -0.312678
     25          6           0        7.706275    2.816009    0.700285
     26          6           0       -7.859557   -2.700975   -0.643390
     27          6           0        6.160108    0.756639    0.226507
     28          6           0       -6.235562   -0.776998   -0.137137
     29          6           0        4.899753    1.462341    0.211695
     30          6           0       -4.965260   -1.621944   -0.284957
     31          6           0        3.702942    0.807179   -0.030813
     32          6           0       -3.773538   -0.974197   -0.472224
     33          6           0        2.351138    1.341178   -0.092151
     34          6           0       -2.568072   -1.752009   -0.478825
     35          6           0        2.215470    2.780811    0.178379
     36          6           0       -2.656544   -3.295384   -0.752521
     37          6           0        1.209705    0.533693   -0.122055
     38          6           0       -1.347119   -1.088247   -0.413745
     39          6           0        1.171296   -0.923302   -0.415785
     40          6           0       -0.036949   -1.583821   -0.510007
     41          1           0       13.881984   -0.141460    0.743319
     42          1           0       14.113905   -0.145937   -1.058571
     43          1           0      -12.646070    1.697910    2.032308
     44          1           0      -13.879770    0.601553    1.911529
     45          1           0       14.062256   -2.399138   -0.035055
     46          1           0       12.915977   -2.268710   -1.420551
     47          1           0      -14.210984    2.767390    0.579472
     48          1           0      -13.828484    1.313801   -0.597959
     49          1           0       12.893413   -2.275672    1.609829
     50          1           0       11.915127   -3.180790    0.714840
     51          1           0      -11.868028    3.411869    0.284841
     52          1           0      -12.203578    3.256610   -1.332429
     53          1           0       11.791199   -0.373192   -2.465837
     54          1           0       12.724611    1.131015   -2.662758
     55          1           0       10.934042    1.084431   -2.080808
     56          1           0       13.189547    2.062218    0.865341
     57          1           0       11.990308    2.662987   -0.297315
     58          1           0       13.379637    2.223136   -0.536453
     59          1           0      -13.358972   -0.550517   -0.713366
     60          1           0      -14.071964   -1.407399    0.742220
     61          1           0      -12.395669   -1.913058   -0.103420
     62          1           0      -10.865649    0.090397    2.696616
     63          1           0      -10.965517   -1.550030    2.194475
     64          1           0      -12.478038   -1.126203    2.833386
     65          1           0        9.856165    1.840406    0.458611
     66          1           0      -10.381638   -1.605418   -0.522076
     67          1           0        9.682462   -0.881494    2.350805
     68          1           0       10.669598   -2.341248    2.665474
     69          1           0        9.208185   -2.283189    1.173838
     70          1           0       -9.427584    1.183962   -2.014389
     71          1           0       -9.299271    2.678111   -1.205471
     72          1           0      -10.489055    2.318495   -2.625402
     73          1           0        8.205147   -0.551929   -0.008935
     74          1           0       -8.543681    0.643326   -0.096415
     75          1           0        8.122678    2.964262    1.728498
     76          1           0        6.835429    3.561861    0.825399
     77          1           0        8.404044    3.269182    0.032140
     78          1           0       -8.370477   -2.705820   -1.635309
     79          1           0       -8.740165   -2.958493    0.084311
     80          1           0       -7.070805   -3.454156   -0.611901
     81          1           0        6.221023   -0.274415   -0.434707
     82          1           0       -6.236314    0.309465    0.192788
     83          1           0        4.928951    2.514423    0.536073
     84          1           0       -5.106442   -2.721126   -0.523493
     85          1           0        3.840852   -0.238301   -0.320838
     86          1           0       -3.493407    0.141932   -0.341758
     87          1           0        2.730908    2.986508    1.218274
     88          1           0        1.304369    3.076579    0.084004
     89          1           0        2.772172    3.266214   -0.549662
     90          1           0       -3.048199   -3.636711   -1.854441
     91          1           0       -3.224512   -3.782299    0.070594
     92          1           0       -1.367809   -3.587155   -0.571044
     93          1           0        0.254976    1.047376    0.166082
     94          1           0       -1.432330   -0.154628   -0.214837
     95          1           0        2.059170   -1.234542   -0.553070
     96          1           0        0.223567   -2.671077   -0.721577
 ---------------------------------------------------------------------

 SCF Done:  E(RB3LYP) =  -1557.49968734     A.U. after   15 cycles

 Excitation energies and oscillator strengths:

 Excited State   1:      Singlet-A      2.2668 eV  546.96 nm  f=2.8925  <S**2>=0.000
     148 ->149         0.70713
 This state for optimization and/or second-order correction.
 Total Energy, E(TD-HF/TD-DFT) =  -1557.41638454
 Copying the excited state density for this state as the 1-particle RhoCI density.

 The electronic state is 1-A.
 Alpha  occ. eigenvalues --  -10.21462 -10.20649 -10.20399 -10.20220 -10.20220
 Alpha  occ. eigenvalues --  -10.20173 -10.19883 -10.19681 -10.19622 -10.19613
 Alpha  occ. eigenvalues --  -10.19389 -10.19342 -10.19303 -10.19237 -10.19236
 Alpha  occ. eigenvalues --  -10.19112 -10.19058 -10.18999 -10.18883 -10.18651
 Alpha  occ. eigenvalues --  -10.18503 -10.18428 -10.18344 -10.18326 -10.18090
 Alpha  occ. eigenvalues --  -10.18028 -10.18008 -10.17860 -10.17749 -10.17581
 Alpha  occ. eigenvalues --  -10.17353 -10.17283 -10.17270 -10.17234 -10.17185
 Alpha  occ. eigenvalues --  -10.17059 -10.16714 -10.16531 -10.16510 -10.13750
 Alpha  occ. eigenvalues --   -0.85329  -0.85188  -0.83358  -0.83027  -0.82549
 Alpha  occ. eigenvalues --   -0.81688  -0.79257  -0.78909  -0.77941  -0.77653
 Alpha  occ. eigenvalues --   -0.76559  -0.75345  -0.74037  -0.72517  -0.72120
 Alpha  occ. eigenvalues --   -0.70491  -0.69635  -0.68809  -0.68271  -0.67784
 Alpha  occ. eigenvalues --   -0.67272  -0.67083  -0.66617  -0.66350  -0.66178
 Alpha  occ. eigenvalues --   -0.62685  -0.61728  -0.59955  -0.59058  -0.57254
 Alpha  occ. eigenvalues --   -0.56746  -0.55995  -0.54875  -0.54303  -0.53129
 Alpha  occ. eigenvalues --   -0.52363  -0.52014  -0.50821  -0.50128  -0.49307
 Alpha  occ. eigenvalues --   -0.48634  -0.47788  -0.47115  -0.46514  -0.46186
 Alpha  occ. eigenvalues --   -0.45655  -0.45398  -0.44906  -0.44686  -0.43866
 Alpha  occ. eigenvalues --   -0.43320  -0.42792  -0.42628  -0.42451  -0.42026
 Alpha  occ. eigenvalues --   -0.41990  -0.41763  -0.41681  -0.41430  -0.41337
 Alpha  occ. eigenvalues --   -0.41233  -0.41022  -0.40630  -0.40520  -0.39893
 Alpha  occ. eigenvalues --   -0.39576  -0.39301  -0.39223  -0.38834  -0.38637
 Alpha  occ. eigenvalues --   -0.37348  -0.37022  -0.36624  -0.36600  -0.36310
 Alpha  occ. eigenvalues --   -0.36037  -0.35688  -0.35550  -0.35234  -0.35042
 Alpha  occ. eigenvalues --   -0.34964  -0.34659  -0.34355  -0.34139  -0.33781
 Alpha  occ. eigenvalues --   -0.33293  -0.33143  -0.32970  -0.32764  -0.32756
 Alpha  occ. eigenvalues --   -0.32248  -0.31574  -0.31458  -0.31296  -0.30663
 Alpha  occ. eigenvalues --   -0.30462  -0.30288  -0.29884  -0.29186  -0.28699
 Alpha  occ. eigenvalues --   -0.28358  -0.26795  -0.26258  -0.24220  -0.23037
 Alpha  occ. eigenvalues --   -0.21416  -0.19105  -0.16505
 Alpha virt. eigenvalues --   -0.07903  -0.04878  -0.01554   0.01060   0.02863
 Alpha virt. eigenvalues --    0.04016   0.05812   0.06417   0.06719   0.07114
 Alpha virt. eigenvalues --    0.07462   0.07740   0.08324   0.08693   0.09027

 Mulliken charges:
               1
     1  C   -0.019197
     2  C   -0.007541
     3  C   -0.176177
     4  C   -0.137977
     5  C   -0.182600
     6  C   -0.204835
     7  C    0.105660
     8  C    0.041668
     9  C   -0.210479
    10  C   -0.222835
    11  C    0.044959
    12  C    0.020737
    13  C   -0.290330
    14  C   -0.254245
    15  C   -0.297004
    16  C   -0.286781
    17  C   -0.157879
    18  C   -0.103256
    19  C   -0.344293
    20  C   -0.368883
    21  C   -0.071844
    22  C   -0.064449
    23  C    0.132159
    24  C    0.112172
    25  C   -0.392077
    26  C   -0.375088
    27  C   -0.147068
    28  C   -0.138602
    29  C   -0.083629
    30  C   -0.119121
    31  C   -0.107275
    32  C   -0.084594
    33  C    0.080156
    34  C    0.121611
    35  C   -0.348289
    36  C   -0.350322
    37  C   -0.129584
    38  C   -0.079243
    39  C   -0.050875
    40  C   -0.098417
    41  H    0.066826
    42  H    0.078531
    43  H    0.098466
    44  H    0.063116
    45  H    0.087008
    46  H    0.102489
    47  H    0.099702
    48  H    0.102662
    49  H    0.093171
    50  H    0.101618
    51  H    0.088222
    52  H    0.087815
    53  H    0.098943
    54  H    0.072072
    55  H    0.106492
    56  H    0.076609
    57  H    0.096969
    58  H    0.101388
    59  H    0.110683
    60  H    0.097850
    61  H    0.085078
    62  H    0.096130
    63  H    0.103310
    64  H    0.066755
    65  H    0.067580
    66  H    0.080624
    67  H    0.132404
    68  H    0.078898
    69  H    0.108150
    70  H    0.125589
    71  H    0.120714
    72  H    0.105926
    73  H    0.059228
    74  H    0.084842
    75  H    0.126524
    76  H    0.097406
    77  H    0.133908
    78  H    0.125420
    79  H    0.109486
    80  H    0.112813
    81  H    0.073632
    82  H    0.080513
    83  H    0.081466
    84  H    0.097633
    85  H    0.074424
    86  H    0.080974
    87  H    0.104380
    88  H    0.105984
    89  H    0.125451
    90  H    0.109746
    91  H    0.124281
    92  H    0.065819
    93  H    0.075590
    94  H    0.055090
    95  H    0.063159
    96  H    0.076111
 Sum of Mulliken charges =  -0.00000

 Dipole moment (field-independent basis, Debye):
    X=             -0.4002    Y=              0.5168    Z=             -0.4838  Tot=              0.8132
 Quadrupole moment (field-independent basis, Debye-Ang):
   XX=           -220.6053   YY=           -234.5127   ZZ=           -255.2306
   XY=              2.6680   XZ=             -0.4717   YZ=              3.8740

 Normal termination of Gaussian 16 at Thu Aug  1 19:39:46 2019.
