 Gaussian 16, Revision A.03,
 Gaussian 16:  ES64L-G16RevA.03 25-Dec-2016

 ---------------------------------
 # td=(NStates=1) B3LYP/6-31G(d,p)
 ---------------------------------

 --
 TD
 --
 Symbolic Z-matrix:
 Charge =  0 Multiplicity = 1

                         Standard orientation:
 ---------------------------------------------------------------------
 Center     Atomic      Atomic             Coordinates (Angstroms)
 Number     Number       Type             X           Y           Z
 ---------------------------------------------------------------------
      1          6           0       12.077173    0.500753   -0.783643
      2          6           0      -12.031603    0.049741    0.769486
      3          6           0       13.366291   -0.432632   -0.665966
      4          6           0      -12.960181    1.109156    1.362144
      5          6           0       13.056039   -1.820505   -0.384331
      6          6           0      -13.282143    2.122634    0.246634
      7          6           0       11.092673    0.043546    0.261432
      8          6           0      -10.912339    0.424265   -0.206625
      9          6           0       12.319951   -2.123179    0.919800
     10          6           0      -12.049034    2.709507   -0.332495
     11          6           0       11.169780   -1.094011    0.972225
     12          6           0      -10.989474    1.589942   -0.749577
     13          6           0       11.484022    0.304712   -2.203406
     14          6           0       12.520108    1.939291   -0.615157
     15          6           0      -13.114102   -0.956351    0.033785
     16          6           0      -11.528772   -0.765832    1.935762
     17          6           0        9.846653    0.870811    0.283835
     18          6           0       -9.875440   -0.635801   -0.366961
     19          6           0       10.245498   -1.524809    2.151078
     20          6           0       -9.916866    2.309309   -1.664778
     21          6           0        8.559487    0.524511    0.237169
     22          6           0       -8.535708   -0.453415   -0.336874
     23          6           0        7.285683    1.316912    0.366490
     24          6           0       -7.513106   -1.377875   -0.413655
     25          6           0        7.552976    2.827713    0.449171
     26          6           0       -8.010483   -2.816666   -0.699330
     27          6           0        6.135927    0.851840    0.240882
     28          6           0       -6.145846   -0.926269   -0.402505
     29          6           0        4.898961    1.457621    0.326645
     30          6           0       -5.026497   -1.709837   -0.562417
     31          6           0        3.734404    0.813857    0.130629
     32          6           0       -3.804618   -1.235132   -0.182575
     33          6           0        2.306332    1.311798    0.289052
     34          6           0       -2.559935   -1.973827   -0.404089
     35          6           0        2.267375    2.822683    0.711076
     36          6           0       -2.488890   -3.419210   -0.594675
     37          6           0        1.245413    0.589994    0.122411
     38          6           0       -1.468694   -1.126103   -0.137710
     39          6           0        1.155761   -0.809218   -0.027528
     40          6           0       -0.039540   -1.640310   -0.120574
     41          1           0       13.891182    0.137938    0.176171
     42          1           0       14.020356   -0.411178   -1.605022
     43          1           0      -12.381619    1.613866    2.273406
     44          1           0      -13.986307    0.864784    1.843582
     45          1           0       13.912607   -2.464788   -0.542477
     46          1           0       12.611543   -2.008396   -1.184062
     47          1           0      -13.909229    3.002113    0.567747
     48          1           0      -13.845766    1.438659   -0.367137
     49          1           0       13.129125   -1.829438    1.763759
     50          1           0       11.911112   -3.168893    0.835125
     51          1           0      -11.547161    3.369827    0.498093
     52          1           0      -12.322266    3.500612   -1.185767
     53          1           0       11.485648   -0.620604   -2.578675
     54          1           0       12.222750    0.737421   -2.984985
     55          1           0       10.555922    0.797575   -2.368028
     56          1           0       12.835129    2.158006    0.375805
     57          1           0       11.607814    2.630008   -0.894446
     58          1           0       13.452782    2.244368   -1.373515
     59          1           0      -13.581544   -0.605508   -0.946333
     60          1           0      -13.953247   -1.121104    0.590067
     61          1           0      -12.673912   -1.896274   -0.496798
     62          1           0      -10.780722   -0.105510    2.529909
     63          1           0      -10.918613   -1.721815    1.830251
     64          1           0      -12.329906   -0.978632    2.693576
     65          1           0       10.078221    2.005949    0.282115
     66          1           0      -10.354826   -1.666319   -0.346132
     67          1           0        9.457577   -0.725079    2.265918
     68          1           0       10.758098   -1.545827    3.123643
     69          1           0        9.750889   -2.410266    1.980734
     70          1           0       -9.365065    1.363579   -2.022460
     71          1           0       -9.238583    2.767687   -0.885792
     72          1           0      -10.299034    2.892334   -2.490891
     73          1           0        8.435247   -0.556107    0.094798
     74          1           0       -8.152119    0.536209   -0.236804
     75          1           0        8.211390    3.137065    1.374649
     76          1           0        6.679810    3.625404    0.329659
     77          1           0        8.235882    3.083291   -0.246271
     78          1           0       -8.683159   -2.975462   -1.631153
     79          1           0       -8.534927   -3.365248    0.214237
     80          1           0       -7.154634   -3.559294   -0.872941
     81          1           0        6.125780   -0.287463    0.142142
     82          1           0       -5.878937    0.190662   -0.121024
     83          1           0        4.668186    2.515289    0.466905
     84          1           0       -5.091312   -2.873438   -0.897014
     85          1           0        3.962816   -0.307370    0.075738
     86          1           0       -3.970019   -0.190496    0.171588
     87          1           0        2.595391    3.016620    1.720581
     88          1           0        1.294551    3.216510    0.490379
     89          1           0        2.994213    3.244973   -0.068786
     90          1           0       -2.390516   -3.757072   -1.916956
     91          1           0       -3.548548   -3.929390   -0.293025
     92          1           0       -1.495416   -3.782140   -0.119164
     93          1           0        0.231843    1.078580    0.489480
     94          1           0       -1.595219   -0.099499    0.107219
     95          1           0        2.160518   -1.358625   -0.148283
     96          1           0        0.302807   -2.745766   -0.212365
 ---------------------------------------------------------------------

 SCF Done:  E(RB3LYP) =  -1557.55814173     A.U. after   15 cycles

 Excitation energies and oscillator strengths:

 Excited State   1:      Singlet-A      2.2863 eV  542.30 nm  f=2.7859  <S**2>=0.000
     148 ->149         0.69801
     148 ->150        -0.11448
     148 <-149        -0.10813
 This state for optimization and/or second-order correction.
 Total Energy, E(TD-HF/TD-DFT) =  -1557.47412248
 Copying the excited state density for this state as the 1-particle RhoCI density.

 The electronic state is 1-A.
 Alpha  occ. eigenvalues --  -10.22857 -10.21338 -10.21102 -10.20689 -10.20557
 Alpha  occ. eigenvalues --  -10.20500 -10.20438 -10.20423 -10.20291 -10.20280
 Alpha  occ. eigenvalues --  -10.20010 -10.19826 -10.19649 -10.19587 -10.19504
 Alpha  occ. eigenvalues --  -10.19489 -10.19391 -10.19303 -10.19299 -10.19142
 Alpha  occ. eigenvalues --  -10.19108 -10.19105 -10.19069 -10.19067 -10.18997
 Alpha  occ. eigenvalues --  -10.18964 -10.18667 -10.18611 -10.18519 -10.18101
 Alpha  occ. eigenvalues --  -10.18094 -10.18012 -10.17970 -10.17706 -10.17597
 Alpha  occ. eigenvalues --  -10.17343 -10.17118 -10.16985 -10.16276 -10.15159
 Alpha  occ. eigenvalues --   -0.85568  -0.84840  -0.84471  -0.83573  -0.82554
 Alpha  occ. eigenvalues --   -0.81623  -0.79148  -0.78334  -0.78155  -0.77035
 Alpha  occ. eigenvalues --   -0.76766  -0.75865  -0.74498  -0.72648  -0.70935
 Alpha  occ. eigenvalues --   -0.69871  -0.68866  -0.68638  -0.67983  -0.67620
 Alpha  occ. eigenvalues --   -0.67590  -0.67075  -0.66657  -0.66078  -0.65293
 Alpha  occ. eigenvalues --   -0.62764  -0.61896  -0.59708  -0.58238  -0.57211
 Alpha  occ. eigenvalues --   -0.56801  -0.55908  -0.54941  -0.53535  -0.53282
 Alpha  occ. eigenvalues --   -0.52886  -0.51739  -0.50188  -0.49722  -0.49089
 Alpha  occ. eigenvalues --   -0.47843  -0.47726  -0.46698  -0.46336  -0.45889
 Alpha  occ. eigenvalues --   -0.45488  -0.45199  -0.44561  -0.44334  -0.43806
 Alpha  occ. eigenvalues --   -0.43109  -0.42807  -0.42728  -0.42390  -0.41971
 Alpha  occ. eigenvalues --   -0.41809  -0.41416  -0.40952  -0.40515  -0.40270
 Alpha  occ. eigenvalues --   -0.40185  -0.39998  -0.39673  -0.39465  -0.39028
 Alpha  occ. eigenvalues --   -0.38834  -0.38604  -0.38560  -0.38437  -0.37953
 Alpha  occ. eigenvalues --   -0.37872  -0.37598  -0.37043  -0.36944  -0.36773
 Alpha  occ. eigenvalues --   -0.36540  -0.36061  -0.35847  -0.35153  -0.35061
 Alpha  occ. eigenvalues --   -0.34833  -0.34780  -0.34316  -0.34256  -0.34132
 Alpha  occ. eigenvalues --   -0.33552  -0.33332  -0.33294  -0.32837  -0.32588
 Alpha  occ. eigenvalues --   -0.32414  -0.32037  -0.31816  -0.31415  -0.30721
 Alpha  occ. eigenvalues --   -0.30296  -0.29956  -0.29272  -0.29046  -0.28669
 Alpha  occ. eigenvalues --   -0.27359  -0.26873  -0.26580  -0.24553  -0.23608
 Alpha  occ. eigenvalues --   -0.21831  -0.19928  -0.16819
 Alpha virt. eigenvalues --   -0.08396  -0.05101  -0.02287   0.00654   0.02949
 Alpha virt. eigenvalues --    0.03730   0.05411   0.05908   0.06474   0.07049
 Alpha virt. eigenvalues --    0.07517   0.07928   0.08052   0.08339   0.08669

 Mulliken charges:
               1
     1  C   -0.004323
     2  C    0.003050
     3  C   -0.177856
     4  C   -0.180446
     5  C   -0.168228
     6  C   -0.170034
     7  C    0.095801
     8  C    0.141420
     9  C   -0.204882
    10  C   -0.188979
    11  C    0.029179
    12  C   -0.012129
    13  C   -0.297253
    14  C   -0.289905
    15  C   -0.316843
    16  C   -0.295816
    17  C   -0.135185
    18  C   -0.150055
    19  C   -0.362492
    20  C   -0.357691
    21  C   -0.106473
    22  C   -0.070485
    23  C    0.168198
    24  C    0.123096
    25  C   -0.384568
    26  C   -0.376036
    27  C   -0.142091
    28  C   -0.153472
    29  C   -0.048431
    30  C   -0.042331
    31  C   -0.110626
    32  C   -0.115710
    33  C    0.097354
    34  C    0.145677
    35  C   -0.368904
    36  C   -0.345339
    37  C   -0.110729
    38  C   -0.109113
    39  C   -0.101059
    40  C   -0.121929
    41  H    0.067903
    42  H    0.076993
    43  H    0.061934
    44  H    0.090761
    45  H    0.075892
    46  H    0.109312
    47  H    0.073600
    48  H    0.105396
    49  H    0.097379
    50  H    0.104085
    51  H    0.091439
    52  H    0.073803
    53  H    0.111398
    54  H    0.074828
    55  H    0.109476
    56  H    0.112372
    57  H    0.085584
    58  H    0.078123
    59  H    0.087866
    60  H    0.113665
    61  H    0.079572
    62  H    0.082973
    63  H    0.094724
    64  H    0.093623
    65  H    0.065269
    66  H    0.092091
    67  H    0.105120
    68  H    0.110536
    69  H    0.118834
    70  H    0.104289
    71  H    0.118631
    72  H    0.114285
    73  H    0.074368
    74  H    0.074849
    75  H    0.098249
    76  H    0.095338
    77  H    0.136301
    78  H    0.118736
    79  H    0.107803
    80  H    0.092893
    81  H    0.069106
    82  H    0.079199
    83  H    0.074164
    84  H    0.068985
    85  H    0.065047
    86  H    0.081060
    87  H    0.134793
    88  H    0.113044
    89  H    0.114015
    90  H    0.068621
    91  H    0.110896
    92  H    0.125910
    93  H    0.067628
    94  H    0.095721
    95  H    0.082920
    96  H    0.084235
 Sum of Mulliken charges =  -0.00000

 Dipole moment (field-independent basis, Debye):
    X=              1.4520    Y=             -0.2672    Z=              0.3027  Tot=              1.5071
 Quadrupole moment (field-independent basis, Debye-Ang):
   XX=           -239.8909   YY=           -235.7030   ZZ=           -256.4080
   XY=             -3.5154   XZ=             -3.1465   YZ=              3.0329

 Normal termination of Gaussian 16 at Mon Jul 29 08:38:18 2019.
