 Gaussian 16, Revision A.03,
 Gaussian 16:  ES64L-G16RevA.03 25-Dec-2016

 ---------------------------------
 # td=(NStates=1) B3LYP/6-31G(d,p)
 ---------------------------------

 --
 TD
 --
 Symbolic Z-matrix:
 Charge =  0 Multiplicity = 1

                         Standard orientation:
 ---------------------------------------------------------------------
 Center     Atomic      Atomic             Coordinates (Angstroms)
 Number     Number       Type             X           Y           Z
 ---------------------------------------------------------------------
      1          6           0      -12.190227   -0.545362   -0.468981
      2          6           0       12.081207   -0.014008    0.928538
      3          6           0      -13.457170    0.350844   -0.294680
      4          6           0       13.046362   -1.141103    1.407554
      5          6           0      -13.075275    1.825782   -0.451843
      6          6           0       13.392740   -2.059545    0.244037
      7          6           0      -10.994467   -0.013049    0.437463
      8          6           0       10.936919   -0.443554   -0.095720
      9          6           0      -12.234853    2.180734    0.623008
     10          6           0       12.135580   -2.604074   -0.360042
     11          6           0      -11.080871    1.248481    0.987463
     12          6           0       10.984910   -1.675599   -0.665408
     13          6           0      -11.845804   -0.750111   -1.945185
     14          6           0      -12.640707   -2.060826    0.065819
     15          6           0       13.007346    1.145740    0.311773
     16          6           0       11.297710    0.603138    2.116854
     17          6           0       -9.878495   -0.916916    0.451070
     18          6           0        9.875151    0.534420   -0.346085
     19          6           0       -9.809792    1.821427    1.698374
     20          6           0        9.928573   -2.131751   -1.626833
     21          6           0       -8.594165   -0.537072    0.059466
     22          6           0        8.548947    0.241942   -0.251975
     23          6           0       -7.379550   -1.389853    0.128429
     24          6           0        7.469624    1.222739   -0.441496
     25          6           0       -7.577904   -2.806772    0.745431
     26          6           0        7.792690    2.721856   -0.646059
     27          6           0       -6.172079   -0.812723    0.019436
     28          6           0        6.171599    0.839710   -0.453527
     29          6           0       -4.872663   -1.365431    0.159256
     30          6           0        5.070799    1.658347   -0.433583
     31          6           0       -3.734775   -0.655808   -0.108407
     32          6           0        3.794908    1.167899   -0.262134
     33          6           0       -2.399434   -1.236081   -0.033472
     34          6           0        2.593740    1.902428   -0.397369
     35          6           0       -2.272516   -2.652821    0.429535
     36          6           0        2.704437    3.390821   -0.644314
     37          6           0       -1.239029   -0.486657   -0.147550
     38          6           0        1.412736    1.204296   -0.305823
     39          6           0       -1.129582    1.009647   -0.242405
     40          6           0        0.054981    1.661540   -0.425766
     41          1           0      -13.763986    0.166980    0.766068
     42          1           0      -14.365240   -0.164011   -0.910083
     43          1           0       12.556261   -1.748493    1.997530
     44          1           0       14.014612   -0.590018    1.721784
     45          1           0      -13.887201    2.468997   -0.541078
     46          1           0      -12.616892    2.045681   -1.364162
     47          1           0       14.135963   -2.921578    0.536827
     48          1           0       14.047281   -1.374572   -0.557825
     49          1           0      -12.887241    2.313791    1.542459
     50          1           0      -11.580636    3.182586    0.420921
     51          1           0       11.729716   -3.302690    0.362660
     52          1           0       12.524162   -3.276860   -1.219050
     53          1           0      -11.372718    0.224152   -2.472110
     54          1           0      -12.693726   -1.212415   -2.538047
     55          1           0      -11.040592   -1.636415   -2.194547
     56          1           0      -12.815404   -1.928076    1.248887
     57          1           0      -11.727615   -2.703476   -0.220404
     58          1           0      -13.496185   -2.487385   -0.150150
     59          1           0       13.510536    0.619258   -0.455955
     60          1           0       13.716187    1.517586    0.935234
     61          1           0       12.514234    1.989801    0.025057
     62          1           0       10.675544   -0.325303    2.429328
     63          1           0       10.631940    1.490225    2.150012
     64          1           0       12.004829    0.894802    2.991669
     65          1           0      -10.004607   -1.965022    0.714547
     66          1           0       10.120817    1.636582   -0.362472
     67          1           0       -9.158650    1.137978    2.059838
     68          1           0      -10.293783    2.425022    2.560733
     69          1           0       -9.154881    2.487012    1.197801
     70          1           0        9.363772   -1.298119   -2.075591
     71          1           0        9.094121   -2.852606   -1.215500
     72          1           0       10.414653   -2.900052   -2.487242
     73          1           0       -8.445621    0.478340   -0.085997
     74          1           0        8.352367   -0.751977   -0.241988
     75          1           0       -8.151167   -2.805547    1.622885
     76          1           0       -6.538054   -3.218032    0.713565
     77          1           0       -8.143566   -3.680550   -0.019996
     78          1           0        8.543874    2.945026   -1.381132
     79          1           0        8.379486    3.147908    0.216232
     80          1           0        7.127810    3.423908   -0.930249
     81          1           0       -6.033472    0.249453   -0.299314
     82          1           0        5.875659   -0.245800   -0.440111
     83          1           0       -4.692423   -2.283293    0.303142
     84          1           0        5.190180    2.645287   -0.688546
     85          1           0       -3.948025    0.347122   -0.474854
     86          1           0        3.790098    0.092895    0.052569
     87          1           0       -2.457097   -3.032789    1.487379
     88          1           0       -1.143412   -2.897160    0.063122
     89          1           0       -2.773869   -3.232867   -0.400190
     90          1           0        3.199685    3.579396   -1.453459
     91          1           0        3.043164    3.769809    0.281314
     92          1           0        1.709229    3.767080   -0.745357
     93          1           0       -0.511590   -1.057054    0.059217
     94          1           0        1.340973    0.081782   -0.245072
     95          1           0       -2.024705    1.382347   -0.416805
     96          1           0       -0.214391    2.785319   -0.462578
 ---------------------------------------------------------------------

 SCF Done:  E(RB3LYP) =  -1557.56651141     A.U. after   15 cycles

 Excitation energies and oscillator strengths:

 Excited State   1:      Singlet-A      2.2437 eV  552.60 nm  f=3.0257  <S**2>=0.000
     148 ->149         0.70472
 This state for optimization and/or second-order correction.
 Total Energy, E(TD-HF/TD-DFT) =  -1557.48405865
 Copying the excited state density for this state as the 1-particle RhoCI density.

 The electronic state is 1-A.
 Alpha  occ. eigenvalues --  -10.20695 -10.20651 -10.20560 -10.20223 -10.20109
 Alpha  occ. eigenvalues --  -10.20038 -10.19961 -10.19950 -10.19903 -10.19821
 Alpha  occ. eigenvalues --  -10.19583 -10.19533 -10.19468 -10.19409 -10.19313
 Alpha  occ. eigenvalues --  -10.19209 -10.19017 -10.18938 -10.18914 -10.18831
 Alpha  occ. eigenvalues --  -10.18803 -10.18720 -10.18710 -10.18481 -10.18458
 Alpha  occ. eigenvalues --  -10.18321 -10.18298 -10.18178 -10.18148 -10.18016
 Alpha  occ. eigenvalues --  -10.17911 -10.17653 -10.17630 -10.17621 -10.17374
 Alpha  occ. eigenvalues --  -10.17156 -10.17111 -10.16785 -10.16371 -10.15059
 Alpha  occ. eigenvalues --   -0.84921  -0.84522  -0.84040  -0.83525  -0.82170
 Alpha  occ. eigenvalues --   -0.81413  -0.79292  -0.78628  -0.77813  -0.77476
 Alpha  occ. eigenvalues --   -0.76783  -0.75658  -0.74948  -0.72353  -0.71794
 Alpha  occ. eigenvalues --   -0.70731  -0.69497  -0.68669  -0.67810  -0.67637
 Alpha  occ. eigenvalues --   -0.67440  -0.67109  -0.66380  -0.66121  -0.65862
 Alpha  occ. eigenvalues --   -0.63134  -0.62788  -0.59945  -0.59547  -0.56824
 Alpha  occ. eigenvalues --   -0.56736  -0.55766  -0.55144  -0.54591  -0.54337
 Alpha  occ. eigenvalues --   -0.54212  -0.52466  -0.51397  -0.50525  -0.49677
 Alpha  occ. eigenvalues --   -0.48887  -0.47495  -0.47068  -0.46650  -0.46218
 Alpha  occ. eigenvalues --   -0.45915  -0.45202  -0.44730  -0.44666  -0.44086
 Alpha  occ. eigenvalues --   -0.43838  -0.43550  -0.42868  -0.42739  -0.42276
 Alpha  occ. eigenvalues --   -0.42061  -0.41898  -0.41531  -0.41242  -0.41020
 Alpha  occ. eigenvalues --   -0.40957  -0.40329  -0.39982  -0.39745  -0.39274
 Alpha  occ. eigenvalues --   -0.39003  -0.38756  -0.38505  -0.38262  -0.38042
 Alpha  occ. eigenvalues --   -0.37831  -0.37378  -0.37238  -0.36888  -0.36558
 Alpha  occ. eigenvalues --   -0.36418  -0.36163  -0.35994  -0.35888  -0.35730
 Alpha  occ. eigenvalues --   -0.35416  -0.34565  -0.34439  -0.34005  -0.33871
 Alpha  occ. eigenvalues --   -0.33607  -0.33472  -0.33284  -0.32838  -0.32337
 Alpha  occ. eigenvalues --   -0.32011  -0.31707  -0.31527  -0.31330  -0.30864
 Alpha  occ. eigenvalues --   -0.30788  -0.30469  -0.30105  -0.29001  -0.28502
 Alpha  occ. eigenvalues --   -0.27938  -0.27691  -0.26146  -0.24154  -0.22609
 Alpha  occ. eigenvalues --   -0.21395  -0.19022  -0.16686
 Alpha virt. eigenvalues --   -0.08162  -0.05272  -0.01708   0.00467   0.02485
 Alpha virt. eigenvalues --    0.04080   0.05877   0.06877   0.07020   0.07190
 Alpha virt. eigenvalues --    0.08102   0.08563   0.09026   0.09311   0.09519

 Mulliken charges:
               1
     1  C    0.009385
     2  C   -0.011926
     3  C   -0.179849
     4  C   -0.150854
     5  C   -0.168126
     6  C   -0.176373
     7  C    0.070233
     8  C    0.067461
     9  C   -0.212002
    10  C   -0.227013
    11  C    0.050777
    12  C    0.095807
    13  C   -0.276007
    14  C   -0.310534
    15  C   -0.313400
    16  C   -0.296098
    17  C   -0.141837
    18  C   -0.140485
    19  C   -0.364773
    20  C   -0.371510
    21  C   -0.083880
    22  C   -0.078879
    23  C    0.092835
    24  C    0.117817
    25  C   -0.355218
    26  C   -0.394659
    27  C   -0.114147
    28  C   -0.129173
    29  C   -0.031871
    30  C   -0.050399
    31  C   -0.103330
    32  C   -0.111583
    33  C    0.056319
    34  C    0.089334
    35  C   -0.376564
    36  C   -0.359087
    37  C   -0.071902
    38  C   -0.120078
    39  C   -0.075441
    40  C   -0.088550
    41  H    0.091409
    42  H    0.067160
    43  H    0.098891
    44  H    0.092352
    45  H    0.097860
    46  H    0.106522
    47  H    0.080853
    48  H    0.063274
    49  H    0.098824
    50  H    0.079546
    51  H    0.113068
    52  H    0.093031
    53  H    0.083282
    54  H    0.099176
    55  H    0.076844
    56  H    0.071057
    57  H    0.093200
    58  H    0.113338
    59  H    0.103701
    60  H    0.103636
    61  H    0.100564
    62  H    0.084183
    63  H    0.108199
    64  H    0.074172
    65  H    0.089969
    66  H    0.079262
    67  H    0.131894
    68  H    0.084744
    69  H    0.117571
    70  H    0.131917
    71  H    0.099776
    72  H    0.071966
    73  H    0.075750
    74  H    0.083639
    75  H    0.139886
    76  H    0.111408
    77  H    0.067562
    78  H    0.119898
    79  H    0.110513
    80  H    0.120506
    81  H    0.071126
    82  H    0.070821
    83  H    0.054729
    84  H    0.072342
    85  H    0.072753
    86  H    0.073464
    87  H    0.132509
    88  H    0.083158
    89  H    0.118969
    90  H    0.134105
    91  H    0.133993
    92  H    0.111499
    93  H    0.049406
    94  H    0.083163
    95  H    0.078416
    96  H    0.064724
 Sum of Mulliken charges =  -0.00000

 Dipole moment (field-independent basis, Debye):
    X=              1.1037    Y=              0.5375    Z=              0.0746  Tot=              1.2299
 Quadrupole moment (field-independent basis, Debye-Ang):
   XX=           -231.6536   YY=           -231.9767   ZZ=           -257.1423
   XY=             -0.8712   XZ=              1.6771   YZ=             -3.6984

 Normal termination of Gaussian 16 at Fri Jul 26 20:23:34 2019.
