 Gaussian 16, Revision A.03,
 Gaussian 16:  ES64L-G16RevA.03 25-Dec-2016

 ---------------------------------
 # td=(NStates=1) B3LYP/6-31G(d,p)
 ---------------------------------

 --
 TD
 --
 Symbolic Z-matrix:
 Charge =  0 Multiplicity = 1

                         Standard orientation:
 ---------------------------------------------------------------------
 Center     Atomic      Atomic             Coordinates (Angstroms)
 Number     Number       Type             X           Y           Z
 ---------------------------------------------------------------------
      1          6           0       12.133093    0.448802   -0.870800
      2          6           0      -12.069980   -0.091921    0.927452
      3          6           0       13.411661   -0.352780   -0.718017
      4          6           0      -13.015575    1.147969    1.326183
      5          6           0       13.119543   -1.871772   -0.532079
      6          6           0      -13.416342    2.086765    0.120671
      7          6           0       11.034572    0.068420    0.177450
      8          6           0      -11.051079    0.406937   -0.082292
      9          6           0       12.488600   -1.935703    0.766310
     10          6           0      -12.141389    2.622454   -0.519616
     11          6           0       11.234948   -0.949718    1.103194
     12          6           0      -11.024466    1.604075   -0.876775
     13          6           0       11.452839    0.363810   -2.309721
     14          6           0       12.508241    1.905829   -0.724918
     15          6           0      -13.025660   -1.226770    0.280639
     16          6           0      -11.456275   -0.610816    2.098544
     17          6           0        9.807317    0.835780    0.409353
     18          6           0       -9.950617   -0.515420   -0.298854
     19          6           0       10.408081   -1.453308    2.138051
     20          6           0      -10.025323    2.014688   -1.887968
     21          6           0        8.572232    0.392486    0.371650
     22          6           0       -8.611090   -0.319169   -0.142188
     23          6           0        7.361338    1.284345    0.540164
     24          6           0       -7.518061   -1.236185   -0.342008
     25          6           0        7.535816    2.852067    0.558175
     26          6           0       -8.063799   -2.649453   -0.771185
     27          6           0        6.103963    0.721446    0.371068
     28          6           0       -6.177049   -0.826076   -0.297973
     29          6           0        4.830766    1.431389    0.377260
     30          6           0       -4.995790   -1.572732   -0.555325
     31          6           0        3.652220    0.613215    0.345110
     32          6           0       -3.766765   -1.102876   -0.292237
     33          6           0        2.421602    1.225659    0.352589
     34          6           0       -2.501813   -1.858595   -0.352202
     35          6           0        2.342564    2.661531    0.711550
     36          6           0       -2.433796   -3.339342   -0.732818
     37          6           0        1.171875    0.502464    0.192362
     38          6           0       -1.351643   -1.191498   -0.312074
     39          6           0        1.132335   -0.865242   -0.067249
     40          6           0        0.005294   -1.611728   -0.319637
     41          1           0       14.064258   -0.012141    0.108346
     42          1           0       13.908414   -0.078359   -1.574601
     43          1           0      -12.414100    1.787215    1.969443
     44          1           0      -13.899423    0.682991    1.864108
     45          1           0       14.183706   -2.455765   -0.796903
     46          1           0       12.439045   -1.983140   -1.323942
     47          1           0      -13.932278    2.690781    0.425433
     48          1           0      -13.868522    1.748409   -0.742578
     49          1           0       13.330808   -1.739681    1.510613
     50          1           0       12.102955   -3.147222    1.086592
     51          1           0      -11.946011    3.609295    0.002198
     52          1           0      -12.203972    3.141538   -1.725709
     53          1           0       11.153294   -0.675216   -2.606286
     54          1           0       12.116759    0.694279   -3.133083
     55          1           0       10.537763    0.913056   -2.283640
     56          1           0       12.710258    2.237175    0.173203
     57          1           0       11.800411    2.676255   -1.005011
     58          1           0       13.348447    2.350565   -1.165205
     59          1           0      -13.731831   -0.896196   -0.583098
     60          1           0      -13.697884   -1.566085    1.033444
     61          1           0      -12.562615   -1.997342    0.047085
     62          1           0      -10.810148    0.178650    2.443231
     63          1           0      -10.739960   -1.696890    1.937587
     64          1           0      -12.270139   -0.955964    2.829312
     65          1           0       10.049937    1.940905    0.412391
     66          1           0       -9.973190   -1.645990   -0.581740
     67          1           0        9.546892   -0.620262    2.461185
     68          1           0       10.979003   -1.853928    2.821254
     69          1           0        9.831303   -2.292414    1.937406
     70          1           0       -9.300043    1.352149   -2.081747
     71          1           0       -9.534489    2.813509   -1.545678
     72          1           0      -10.565678    2.397731   -2.694235
     73          1           0        8.429241   -0.642249    0.276480
     74          1           0       -8.331636    0.533058   -0.014280
     75          1           0        8.114410    3.117485    1.528016
     76          1           0        6.605883    3.419204    0.543687
     77          1           0        7.966474    3.303006   -0.165476
     78          1           0       -8.655375   -2.699105   -1.641495
     79          1           0       -8.371563   -3.346890    0.126482
     80          1           0       -7.285081   -3.410543   -0.929801
     81          1           0        5.966317   -0.330911    0.501287
     82          1           0       -6.360099    0.355103    0.019038
     83          1           0        4.890418    2.444122    0.417384
     84          1           0       -5.161718   -2.626839   -0.774365
     85          1           0        3.834493   -0.476499    0.137647
     86          1           0       -3.912749   -0.066189    0.077456
     87          1           0        2.652488    2.940139    1.761318
     88          1           0        1.269703    2.935506    0.626227
     89          1           0        2.881499    3.385913    0.121871
     90          1           0       -2.954379   -3.391529   -1.717146
     91          1           0       -2.839070   -3.945189   -0.080640
     92          1           0       -1.325189   -3.778578   -0.923163
     93          1           0        0.222954    1.244803    0.383766
     94          1           0       -1.332969   -0.118893   -0.062044
     95          1           0        2.170536   -1.353424   -0.068542
     96          1           0        0.078119   -2.743547   -0.334139
 ---------------------------------------------------------------------

 SCF Done:  E(RB3LYP) =  -1557.40839324     A.U. after   16 cycles

 Excitation energies and oscillator strengths:

 Excited State   1:      Singlet-A      2.0955 eV  591.67 nm  f=2.9927  <S**2>=0.000
     147 ->149        -0.10630
     148 ->149         0.70285
     148 <-149        -0.12373
 This state for optimization and/or second-order correction.
 Total Energy, E(TD-HF/TD-DFT) =  -1557.33138573
 Copying the excited state density for this state as the 1-particle RhoCI density.

 The electronic state is 1-A.
 Alpha  occ. eigenvalues --  -10.21076 -10.20739 -10.20305 -10.20299 -10.20277
 Alpha  occ. eigenvalues --  -10.20225 -10.20150 -10.20143 -10.20135 -10.19996
 Alpha  occ. eigenvalues --  -10.19949 -10.19609 -10.19526 -10.19440 -10.19135
 Alpha  occ. eigenvalues --  -10.19098 -10.19019 -10.18909 -10.18900 -10.18772
 Alpha  occ. eigenvalues --  -10.18632 -10.18631 -10.18531 -10.18516 -10.18472
 Alpha  occ. eigenvalues --  -10.18465 -10.18437 -10.18269 -10.18253 -10.18110
 Alpha  occ. eigenvalues --  -10.18068 -10.17785 -10.17461 -10.16992 -10.16690
 Alpha  occ. eigenvalues --  -10.15823 -10.15667 -10.15473 -10.15354 -10.15135
 Alpha  occ. eigenvalues --   -0.85013  -0.84593  -0.83685  -0.82943  -0.81655
 Alpha  occ. eigenvalues --   -0.81225  -0.79360  -0.79121  -0.78817  -0.77886
 Alpha  occ. eigenvalues --   -0.77223  -0.76027  -0.74931  -0.72864  -0.72516
 Alpha  occ. eigenvalues --   -0.70182  -0.69618  -0.69034  -0.68987  -0.68776
 Alpha  occ. eigenvalues --   -0.68368  -0.68077  -0.66908  -0.66327  -0.65700
 Alpha  occ. eigenvalues --   -0.63250  -0.62259  -0.60048  -0.58771  -0.57109
 Alpha  occ. eigenvalues --   -0.56788  -0.55930  -0.55593  -0.54583  -0.53884
 Alpha  occ. eigenvalues --   -0.52902  -0.52610  -0.50676  -0.50448  -0.49161
 Alpha  occ. eigenvalues --   -0.49081  -0.47489  -0.47113  -0.46692  -0.46344
 Alpha  occ. eigenvalues --   -0.46244  -0.45485  -0.44943  -0.44746  -0.44058
 Alpha  occ. eigenvalues --   -0.43607  -0.43032  -0.42893  -0.42765  -0.42144
 Alpha  occ. eigenvalues --   -0.42060  -0.41957  -0.41473  -0.41422  -0.41293
 Alpha  occ. eigenvalues --   -0.41138  -0.40888  -0.40852  -0.40637  -0.40231
 Alpha  occ. eigenvalues --   -0.39471  -0.38934  -0.38849  -0.38312  -0.37974
 Alpha  occ. eigenvalues --   -0.37883  -0.37468  -0.36871  -0.36580  -0.36437
 Alpha  occ. eigenvalues --   -0.36078  -0.36042  -0.35661  -0.35198  -0.34818
 Alpha  occ. eigenvalues --   -0.34644  -0.34587  -0.34535  -0.34226  -0.33920
 Alpha  occ. eigenvalues --   -0.33814  -0.33500  -0.33332  -0.33110  -0.32639
 Alpha  occ. eigenvalues --   -0.32277  -0.31925  -0.31610  -0.31434  -0.31149
 Alpha  occ. eigenvalues --   -0.30898  -0.30018  -0.29770  -0.29160  -0.28772
 Alpha  occ. eigenvalues --   -0.28047  -0.27757  -0.26071  -0.23615  -0.21857
 Alpha  occ. eigenvalues --   -0.21012  -0.18870  -0.16093
 Alpha virt. eigenvalues --   -0.08565  -0.04861  -0.01482   0.00491   0.01837
 Alpha virt. eigenvalues --    0.03908   0.05947   0.06642   0.06920   0.07331
 Alpha virt. eigenvalues --    0.07652   0.07940   0.08403   0.08725   0.09080

 Mulliken charges:
               1
     1  C   -0.001561
     2  C    0.009477
     3  C   -0.176442
     4  C   -0.195002
     5  C   -0.177216
     6  C   -0.119746
     7  C    0.046404
     8  C    0.045061
     9  C   -0.194912
    10  C   -0.232620
    11  C    0.085954
    12  C    0.067162
    13  C   -0.308891
    14  C   -0.319097
    15  C   -0.293334
    16  C   -0.268832
    17  C   -0.140956
    18  C   -0.144018
    19  C   -0.359656
    20  C   -0.348889
    21  C   -0.070934
    22  C   -0.035196
    23  C    0.076035
    24  C    0.118060
    25  C   -0.366141
    26  C   -0.404941
    27  C   -0.123507
    28  C   -0.131423
    29  C   -0.057793
    30  C   -0.084610
    31  C   -0.121615
    32  C   -0.100017
    33  C    0.109902
    34  C    0.085598
    35  C   -0.381874
    36  C   -0.367672
    37  C   -0.108248
    38  C   -0.080719
    39  C   -0.089562
    40  C   -0.097368
    41  H    0.089187
    42  H    0.094056
    43  H    0.095736
    44  H    0.082733
    45  H    0.071764
    46  H    0.111276
    47  H    0.078498
    48  H    0.111379
    49  H    0.095186
    50  H    0.035367
    51  H    0.096267
    52  H    0.020023
    53  H    0.092662
    54  H    0.096941
    55  H    0.118091
    56  H    0.111020
    57  H    0.089657
    58  H    0.098633
    59  H    0.087131
    60  H    0.093215
    61  H    0.114587
    62  H    0.109663
    63  H    0.062882
    64  H    0.089902
    65  H    0.076540
    66  H    0.069674
    67  H    0.093362
    68  H    0.117844
    69  H    0.127764
    70  H    0.123869
    71  H    0.132297
    72  H    0.114819
    73  H    0.087566
    74  H    0.022825
    75  H    0.106770
    76  H    0.100193
    77  H    0.136942
    78  H    0.140247
    79  H    0.106675
    80  H    0.092990
    81  H    0.075603
    82  H    0.062312
    83  H    0.078404
    84  H    0.084626
    85  H    0.089171
    86  H    0.088631
    87  H    0.119367
    88  H    0.098440
    89  H    0.120128
    90  H    0.122208
    91  H    0.134306
    92  H    0.095472
    93  H    0.078148
    94  H    0.067036
    95  H    0.085808
    96  H    0.063242
 Sum of Mulliken charges =  -0.00000

 Dipole moment (field-independent basis, Debye):
    X=              0.6122    Y=              0.7757    Z=              0.0763  Tot=              0.9911
 Quadrupole moment (field-independent basis, Debye-Ang):
   XX=           -221.3163   YY=           -231.0791   ZZ=           -255.0575
   XY=              5.9242   XZ=             -4.2601   YZ=              1.0287

 Normal termination of Gaussian 16 at Tue Jul 23 16:13:57 2019.
