 Gaussian 16, Revision A.03,
 Gaussian 16:  ES64L-G16RevA.03 25-Dec-2016

 ---------------------------------
 # td=(NStates=1) B3LYP/6-31G(d,p)
 ---------------------------------

 --
 TD
 --
 Symbolic Z-matrix:
 Charge =  0 Multiplicity = 1

                         Standard orientation:
 ---------------------------------------------------------------------
 Center     Atomic      Atomic             Coordinates (Angstroms)
 Number     Number       Type             X           Y           Z
 ---------------------------------------------------------------------
      1          6           0       12.061215    0.555157   -0.713379
      2          6           0      -12.052946    0.028248    0.807115
      3          6           0       13.414902   -0.203845   -0.627768
      4          6           0      -12.985115    1.123012    1.328154
      5          6           0       13.107762   -1.785702   -0.507828
      6          6           0      -13.305741    2.016512    0.132297
      7          6           0       11.007070    0.095543    0.381624
      8          6           0      -10.996924    0.440148   -0.171704
      9          6           0       12.389334   -2.078373    0.745388
     10          6           0      -12.134997    2.694181   -0.541354
     11          6           0       11.226028   -1.134116    0.948668
     12          6           0      -11.064525    1.693532   -0.748813
     13          6           0       11.530780    0.557555   -2.117510
     14          6           0       12.472349    2.103895   -0.496390
     15          6           0      -12.927717   -1.141862    0.138509
     16          6           0      -11.421691   -0.530570    2.166033
     17          6           0        9.772784    0.954089    0.416423
     18          6           0       -9.895720   -0.470721   -0.385809
     19          6           0       10.164734   -1.565906    1.995133
     20          6           0      -10.056409    2.097219   -1.715841
     21          6           0        8.584536    0.484445    0.279210
     22          6           0       -8.559324   -0.267593   -0.017881
     23          6           0        7.420471    1.305741    0.443419
     24          6           0       -7.562159   -1.135605   -0.398718
     25          6           0        7.463086    2.855825    0.795572
     26          6           0       -7.883415   -2.537904   -0.754017
     27          6           0        6.176982    0.633520    0.143881
     28          6           0       -6.177559   -0.845016   -0.099609
     29          6           0        4.903814    1.320727    0.390044
     30          6           0       -5.057971   -1.697433   -0.394050
     31          6           0        3.752069    0.657840    0.103862
     32          6           0       -3.791829   -1.225873   -0.236371
     33          6           0        2.378004    1.214676    0.256842
     34          6           0       -2.513665   -1.959681   -0.384437
     35          6           0        2.252629    2.653288    0.420443
     36          6           0       -2.704462   -3.337956   -0.757999
     37          6           0        1.257581    0.327406    0.125950
     38          6           0       -1.347732   -1.281541   -0.242616
     39          6           0        1.179971   -1.076307   -0.229458
     40          6           0       -0.015735   -1.781071   -0.339783
     41          1           0       14.077297    0.015994    0.118042
     42          1           0       14.072211    0.136119   -1.551953
     43          1           0      -12.421152    1.665022    2.096842
     44          1           0      -13.887446    0.770794    1.825845
     45          1           0       13.880106   -2.526826   -0.476281
     46          1           0       12.554534   -2.228731   -1.380627
     47          1           0      -14.011976    2.687702    0.460851
     48          1           0      -13.852061    1.399072   -0.713916
     49          1           0       12.895523   -1.836000    1.685077
     50          1           0       12.009776   -3.184947    0.631956
     51          1           0      -11.809435    3.472611    0.257536
     52          1           0      -12.321446    3.221637   -1.431008
     53          1           0       11.391520   -0.556379   -2.573109
     54          1           0       12.246206    1.099026   -2.940130
     55          1           0       10.478430    0.965694   -2.016895
     56          1           0       12.845816    2.215418    0.508067
     57          1           0       11.743009    2.785973   -0.829607
     58          1           0       13.496336    2.324975   -1.055253
     59          1           0      -13.537642   -0.717222   -0.503392
     60          1           0      -13.473394   -1.516648    1.068809
     61          1           0      -12.236002   -2.104120    0.014339
     62          1           0      -10.459850    0.022169    2.451534
     63          1           0      -10.916453   -1.644456    2.046501
     64          1           0      -12.270907   -0.679134    2.879718
     65          1           0       10.055551    2.065214    0.277370
     66          1           0       -9.915916   -1.681402   -0.669766
     67          1           0        9.407234   -0.835045    2.244550
     68          1           0       10.743031   -1.991706    2.886570
     69          1           0        9.626428   -2.474899    1.685111
     70          1           0       -9.378109    1.255525   -2.018392
     71          1           0       -9.191322    3.063447   -1.418772
     72          1           0      -10.645989    2.400182   -2.616185
     73          1           0        8.533881   -0.570960    0.109729
     74          1           0       -8.169860    0.748292    0.030746
     75          1           0        7.932412    3.013619    1.696272
     76          1           0        6.503768    3.410157    0.962995
     77          1           0        8.296606    3.210961    0.051402
     78          1           0       -8.245678   -2.626917   -1.715733
     79          1           0       -8.838298   -2.990561    0.047596
     80          1           0       -6.914128   -3.272996   -0.674963
     81          1           0        6.307587   -0.486375   -0.156733
     82          1           0       -6.126548    0.107410    0.249992
     83          1           0        4.774320    2.325816    0.695473
     84          1           0       -5.219167   -2.784440   -0.610222
     85          1           0        3.780946   -0.404830   -0.242715
     86          1           0       -3.746200   -0.106900    0.078816
     87          1           0        2.807930    2.785128    1.398232
     88          1           0        1.220927    3.032937    0.348762
     89          1           0        2.728920    3.413510   -0.246124
     90          1           0       -3.421069   -3.489899   -1.695526
     91          1           0       -3.300735   -3.918796   -0.008902
     92          1           0       -1.717103   -3.709320   -0.884945
     93          1           0        0.242641    0.755130   -0.010747
     94          1           0       -1.501084   -0.175837   -0.043829
     95          1           0        2.179210   -1.508819   -0.363963
     96          1           0        0.334034   -2.878258   -0.782443
 ---------------------------------------------------------------------

 SCF Done:  E(RB3LYP) =  -1557.56737139     A.U. after   15 cycles

 Excitation energies and oscillator strengths:

 Excited State   1:      Singlet-A      2.1435 eV  578.41 nm  f=2.8880  <S**2>=0.000
     148 ->149         0.70675
 This state for optimization and/or second-order correction.
 Total Energy, E(TD-HF/TD-DFT) =  -1557.48859778
 Copying the excited state density for this state as the 1-particle RhoCI density.

 The electronic state is 1-A.
 Alpha  occ. eigenvalues --  -10.21022 -10.21021 -10.20852 -10.20487 -10.20068
 Alpha  occ. eigenvalues --  -10.20058 -10.20023 -10.19906 -10.19847 -10.19802
 Alpha  occ. eigenvalues --  -10.19675 -10.19580 -10.19405 -10.19375 -10.19335
 Alpha  occ. eigenvalues --  -10.19333 -10.19252 -10.19205 -10.19172 -10.19094
 Alpha  occ. eigenvalues --  -10.19057 -10.18967 -10.18953 -10.18758 -10.18720
 Alpha  occ. eigenvalues --  -10.18698 -10.18663 -10.18637 -10.18636 -10.18559
 Alpha  occ. eigenvalues --  -10.18509 -10.18376 -10.18041 -10.17985 -10.17980
 Alpha  occ. eigenvalues --  -10.17801 -10.17730 -10.17702 -10.17503 -10.17355
 Alpha  occ. eigenvalues --   -0.85422  -0.84491  -0.83730  -0.82803  -0.82410
 Alpha  occ. eigenvalues --   -0.81589  -0.78969  -0.78471  -0.78172  -0.77593
 Alpha  occ. eigenvalues --   -0.76822  -0.75424  -0.74560  -0.72028  -0.71249
 Alpha  occ. eigenvalues --   -0.70444  -0.68533  -0.67872  -0.67546  -0.67363
 Alpha  occ. eigenvalues --   -0.66946  -0.66821  -0.66343  -0.66239  -0.65889
 Alpha  occ. eigenvalues --   -0.62451  -0.61656  -0.59978  -0.59108  -0.57093
 Alpha  occ. eigenvalues --   -0.56156  -0.55199  -0.54510  -0.54080  -0.53093
 Alpha  occ. eigenvalues --   -0.52640  -0.51619  -0.50340  -0.50111  -0.48847
 Alpha  occ. eigenvalues --   -0.48459  -0.47118  -0.46867  -0.46675  -0.46211
 Alpha  occ. eigenvalues --   -0.45553  -0.45347  -0.44923  -0.44633  -0.44117
 Alpha  occ. eigenvalues --   -0.43818  -0.43298  -0.42714  -0.42552  -0.42132
 Alpha  occ. eigenvalues --   -0.41761  -0.41536  -0.41397  -0.41044  -0.40856
 Alpha  occ. eigenvalues --   -0.40409  -0.40066  -0.39720  -0.39441  -0.39375
 Alpha  occ. eigenvalues --   -0.38931  -0.38870  -0.38558  -0.38446  -0.38042
 Alpha  occ. eigenvalues --   -0.37777  -0.37629  -0.36970  -0.36928  -0.36889
 Alpha  occ. eigenvalues --   -0.36721  -0.36533  -0.35915  -0.35704  -0.35199
 Alpha  occ. eigenvalues --   -0.34285  -0.33949  -0.33827  -0.33759  -0.33714
 Alpha  occ. eigenvalues --   -0.33445  -0.33136  -0.32739  -0.32573  -0.32500
 Alpha  occ. eigenvalues --   -0.31883  -0.31747  -0.31330  -0.31061  -0.30971
 Alpha  occ. eigenvalues --   -0.30948  -0.30239  -0.29916  -0.28544  -0.28451
 Alpha  occ. eigenvalues --   -0.28047  -0.27609  -0.26012  -0.23465  -0.22211
 Alpha  occ. eigenvalues --   -0.21084  -0.18657  -0.16479
 Alpha virt. eigenvalues --   -0.08333  -0.05493  -0.02581   0.00441   0.01716
 Alpha virt. eigenvalues --    0.03419   0.04372   0.06130   0.06656   0.06936
 Alpha virt. eigenvalues --    0.07362   0.07431   0.08077   0.08271   0.08606

 Mulliken charges:
               1
     1  C    0.009075
     2  C   -0.007424
     3  C   -0.174560
     4  C   -0.176175
     5  C   -0.196525
     6  C   -0.191297
     7  C    0.061237
     8  C    0.095222
     9  C   -0.205547
    10  C   -0.203639
    11  C    0.037844
    12  C    0.092673
    13  C   -0.269228
    14  C   -0.312835
    15  C   -0.284873
    16  C   -0.306828
    17  C   -0.150201
    18  C   -0.166690
    19  C   -0.365946
    20  C   -0.348641
    21  C   -0.064364
    22  C   -0.091287
    23  C    0.091345
    24  C    0.130692
    25  C   -0.366661
    26  C   -0.365874
    27  C   -0.132841
    28  C   -0.108958
    29  C   -0.077245
    30  C   -0.072382
    31  C   -0.090107
    32  C   -0.118746
    33  C    0.097183
    34  C    0.156909
    35  C   -0.379429
    36  C   -0.383980
    37  C   -0.130791
    38  C   -0.126020
    39  C   -0.079325
    40  C   -0.103686
    41  H    0.103603
    42  H    0.070312
    43  H    0.099794
    44  H    0.097662
    45  H    0.089271
    46  H    0.096316
    47  H    0.088310
    48  H    0.073115
    49  H    0.120167
    50  H    0.093136
    51  H    0.096514
    52  H    0.105675
    53  H    0.070173
    54  H    0.082750
    55  H    0.100677
    56  H    0.105046
    57  H    0.104885
    58  H    0.074101
    59  H    0.111041
    60  H    0.081918
    61  H    0.097733
    62  H    0.109012
    63  H    0.059789
    64  H    0.099826
    65  H    0.075558
    66  H    0.073733
    67  H    0.125795
    68  H    0.085909
    69  H    0.103308
    70  H    0.116429
    71  H    0.055443
    72  H    0.098101
    73  H    0.100042
    74  H    0.081132
    75  H    0.138005
    76  H    0.114453
    77  H    0.112822
    78  H    0.139776
    79  H    0.075811
    80  H    0.084343
    81  H    0.086109
    82  H    0.069091
    83  H    0.080608
    84  H    0.078373
    85  H    0.073585
    86  H    0.066729
    87  H    0.117488
    88  H    0.113176
    89  H    0.122967
    90  H    0.108821
    91  H    0.122753
    92  H    0.110585
    93  H    0.070000
    94  H    0.090772
    95  H    0.081584
    96  H    0.075800
 Sum of Mulliken charges =  -0.00000

 Dipole moment (field-independent basis, Debye):
    X=              0.7413    Y=              0.6279    Z=              0.1561  Tot=              0.9840
 Quadrupole moment (field-independent basis, Debye-Ang):
   XX=           -223.3237   YY=           -235.5022   ZZ=           -257.6332
   XY=             -8.0912   XZ=              3.9769   YZ=              4.6223

 Normal termination of Gaussian 16 at Sun Jul 28 02:47:38 2019.
