 Gaussian 16, Revision A.03,
 Gaussian 16:  ES64L-G16RevA.03 25-Dec-2016

 ---------------------------------
 # td=(NStates=1) B3LYP/6-31G(d,p)
 ---------------------------------

 --
 TD
 --
 Symbolic Z-matrix:
 Charge =  0 Multiplicity = 1

                         Standard orientation:
 ---------------------------------------------------------------------
 Center     Atomic      Atomic             Coordinates (Angstroms)
 Number     Number       Type             X           Y           Z
 ---------------------------------------------------------------------
      1          6           0       12.221390    0.376564   -0.773315
      2          6           0      -12.148211   -0.145130    0.823837
      3          6           0       13.457595   -0.531247   -0.675521
      4          6           0      -13.027724    1.096651    1.239956
      5          6           0       13.067593   -2.004647   -0.585192
      6          6           0      -13.412171    1.973275    0.156601
      7          6           0       11.066094   -0.027310    0.293649
      8          6           0      -10.966793    0.314549   -0.114477
      9          6           0       12.208106   -2.236496    0.675850
     10          6           0      -12.193762    2.647814   -0.497230
     11          6           0       10.969218   -1.277545    0.770031
     12          6           0      -11.092534    1.509711   -0.845784
     13          6           0       11.654620    0.541734   -2.251424
     14          6           0       12.711969    1.780356   -0.257156
     15          6           0      -13.058765   -1.224544    0.125049
     16          6           0      -11.467800   -0.709343    2.112036
     17          6           0        9.933191    0.887372    0.333857
     18          6           0       -9.900688   -0.675197   -0.345715
     19          6           0       10.007633   -1.586679    1.960844
     20          6           0      -10.066567    1.999007   -1.777244
     21          6           0        8.665702    0.475674    0.171807
     22          6           0       -8.672526   -0.366209   -0.370323
     23          6           0        7.461886    1.412274    0.261504
     24          6           0       -7.517202   -1.370216   -0.468628
     25          6           0        7.650523    2.869724    0.724268
     26          6           0       -7.855137   -2.802021   -0.539777
     27          6           0        6.227677    0.778810    0.229202
     28          6           0       -6.270891   -0.884927   -0.365856
     29          6           0        4.894508    1.447581    0.417033
     30          6           0       -5.005181   -1.505429   -0.280154
     31          6           0        3.705182    0.748877    0.409600
     32          6           0       -3.790601   -0.950632   -0.249000
     33          6           0        2.493033    1.368539    0.466286
     34          6           0       -2.526251   -1.597413   -0.315038
     35          6           0        2.432182    2.820182    0.614004
     36          6           0       -2.550216   -3.085341   -0.561496
     37          6           0        1.231877    0.721453    0.081469
     38          6           0       -1.409412   -0.965688   -0.159115
     39          6           0        1.112153   -0.725924   -0.177996
     40          6           0       -0.055568   -1.393786   -0.373443
     41          1           0       13.831846   -0.252370    0.246556
     42          1           0       14.074220   -0.272247   -1.371357
     43          1           0      -12.330004    1.706375    1.873408
     44          1           0      -13.900268    0.891668    1.924723
     45          1           0       13.970227   -2.601472   -0.529188
     46          1           0       12.563266   -2.408250   -1.527101
     47          1           0      -13.936448    2.839146    0.803156
     48          1           0      -14.044269    1.452605   -0.706305
     49          1           0       12.823469   -1.975190    1.694252
     50          1           0       11.803647   -3.220288    0.885873
     51          1           0      -11.742027    3.400266    0.203860
     52          1           0      -12.570080    3.228067   -1.413231
     53          1           0       11.516571   -0.252880   -2.724219
     54          1           0       12.329507    1.328834   -2.757850
     55          1           0       10.585387    1.069028   -2.010083
     56          1           0       12.596871    1.894138    0.815919
     57          1           0       11.961959    2.534358   -0.600187
     58          1           0       13.721232    1.729574   -0.799533
     59          1           0      -13.270289   -0.975016   -0.939394
     60          1           0      -13.961035   -1.293875    0.732186
     61          1           0      -12.278929   -2.021620    0.037147
     62          1           0      -10.673222   -0.063393    2.605260
     63          1           0      -10.872516   -1.464966    1.646657
     64          1           0      -11.992539   -1.093038    3.051330
     65          1           0       10.075397    1.918653    0.548600
     66          1           0      -10.340412   -1.735439   -0.051188
     67          1           0        9.461120   -0.773922    2.360194
     68          1           0       10.638333   -1.951248    2.807983
     69          1           0        9.330435   -2.400207    1.764043
     70          1           0       -9.601886    0.968289   -1.975827
     71          1           0       -9.392320    2.592662   -1.442157
     72          1           0      -10.606924    2.558863   -2.767331
     73          1           0        8.447009   -0.629804   -0.316965
     74          1           0       -8.381619    0.733977   -0.297227
     75          1           0        8.326300    3.042540    1.539144
     76          1           0        6.609149    3.425898    0.870519
     77          1           0        8.123385    3.410963   -0.084393
     78          1           0       -8.588947   -2.787176   -1.496064
     79          1           0       -8.306772   -3.209848    0.290640
     80          1           0       -7.118245   -3.457939   -0.821865
     81          1           0        6.301838   -0.247503   -0.082309
     82          1           0       -6.233206    0.217795   -0.235484
     83          1           0        4.731652    2.509115    0.692955
     84          1           0       -5.210949   -2.703848   -0.172166
     85          1           0        3.802205   -0.453768    0.224929
     86          1           0       -3.593376    0.077146   -0.141653
     87          1           0        2.803593    3.061692    1.622834
     88          1           0        1.411054    3.155232    0.367132
     89          1           0        3.034191    3.226521   -0.080174
     90          1           0       -3.298798   -3.308273   -1.485078
     91          1           0       -3.126250   -3.808071    0.160257
     92          1           0       -1.608284   -3.680889   -0.847640
     93          1           0        0.296409    1.338033   -0.207423
     94          1           0       -1.536753    0.168506   -0.064233
     95          1           0        2.101964   -1.175073   -0.330339
     96          1           0        0.139351   -2.488866   -0.789590
 ---------------------------------------------------------------------

 SCF Done:  E(RB3LYP) =  -1557.56647858     A.U. after   15 cycles

 Excitation energies and oscillator strengths:

 Excited State   1:      Singlet-A      2.3172 eV  535.06 nm  f=2.8971  <S**2>=0.000
     148 ->149         0.70352
 This state for optimization and/or second-order correction.
 Total Energy, E(TD-HF/TD-DFT) =  -1557.48132297
 Copying the excited state density for this state as the 1-particle RhoCI density.

 The electronic state is 1-A.
 Alpha  occ. eigenvalues --  -10.21012 -10.20459 -10.20292 -10.20235 -10.20222
 Alpha  occ. eigenvalues --  -10.20111 -10.20103 -10.19927 -10.19881 -10.19811
 Alpha  occ. eigenvalues --  -10.19741 -10.19676 -10.19667 -10.19663 -10.19547
 Alpha  occ. eigenvalues --  -10.19466 -10.19407 -10.19293 -10.19279 -10.19214
 Alpha  occ. eigenvalues --  -10.18998 -10.18931 -10.18891 -10.18864 -10.18642
 Alpha  occ. eigenvalues --  -10.18621 -10.18541 -10.18388 -10.18126 -10.18056
 Alpha  occ. eigenvalues --  -10.17943 -10.17870 -10.17791 -10.17376 -10.17298
 Alpha  occ. eigenvalues --  -10.17273 -10.17177 -10.17158 -10.17076 -10.15786
 Alpha  occ. eigenvalues --   -0.84770  -0.84340  -0.84253  -0.83803  -0.82413
 Alpha  occ. eigenvalues --   -0.81102  -0.79359  -0.78322  -0.77855  -0.77249
 Alpha  occ. eigenvalues --   -0.76794  -0.75422  -0.74126  -0.73350  -0.71891
 Alpha  occ. eigenvalues --   -0.70158  -0.68942  -0.68475  -0.68193  -0.67714
 Alpha  occ. eigenvalues --   -0.67627  -0.67242  -0.66742  -0.66293  -0.66088
 Alpha  occ. eigenvalues --   -0.62883  -0.61575  -0.59863  -0.58335  -0.56384
 Alpha  occ. eigenvalues --   -0.55890  -0.55339  -0.54605  -0.52935  -0.52457
 Alpha  occ. eigenvalues --   -0.52388  -0.51717  -0.50181  -0.49690  -0.48826
 Alpha  occ. eigenvalues --   -0.48537  -0.48203  -0.47618  -0.46806  -0.46428
 Alpha  occ. eigenvalues --   -0.45682  -0.45155  -0.44761  -0.44564  -0.44037
 Alpha  occ. eigenvalues --   -0.43910  -0.43330  -0.43170  -0.42447  -0.42097
 Alpha  occ. eigenvalues --   -0.42065  -0.41886  -0.41310  -0.41204  -0.40998
 Alpha  occ. eigenvalues --   -0.40609  -0.40105  -0.39811  -0.39689  -0.39439
 Alpha  occ. eigenvalues --   -0.39258  -0.38952  -0.38723  -0.38681  -0.38496
 Alpha  occ. eigenvalues --   -0.38183  -0.37935  -0.37528  -0.37174  -0.36897
 Alpha  occ. eigenvalues --   -0.35908  -0.35844  -0.35669  -0.35375  -0.35040
 Alpha  occ. eigenvalues --   -0.34866  -0.34429  -0.34306  -0.34209  -0.33910
 Alpha  occ. eigenvalues --   -0.33558  -0.33385  -0.33271  -0.33154  -0.32607
 Alpha  occ. eigenvalues --   -0.32238  -0.31759  -0.31291  -0.31062  -0.30938
 Alpha  occ. eigenvalues --   -0.30754  -0.30263  -0.29620  -0.28707  -0.28173
 Alpha  occ. eigenvalues --   -0.27781  -0.26512  -0.26242  -0.24522  -0.22714
 Alpha  occ. eigenvalues --   -0.21389  -0.19642  -0.16982
 Alpha virt. eigenvalues --   -0.08176  -0.05095  -0.01645   0.00040   0.02262
 Alpha virt. eigenvalues --    0.03648   0.05719   0.05962   0.06714   0.07121
 Alpha virt. eigenvalues --    0.07460   0.08024   0.08362   0.08746   0.09174

 Mulliken charges:
               1
     1  C   -0.001297
     2  C   -0.031880
     3  C   -0.161331
     4  C   -0.157276
     5  C   -0.188988
     6  C   -0.157710
     7  C    0.073061
     8  C    0.070251
     9  C   -0.210377
    10  C   -0.202943
    11  C    0.019462
    12  C    0.028520
    13  C   -0.281819
    14  C   -0.311453
    15  C   -0.286361
    16  C   -0.294954
    17  C   -0.139489
    18  C   -0.143834
    19  C   -0.358014
    20  C   -0.342482
    21  C   -0.083710
    22  C   -0.077819
    23  C    0.101004
    24  C    0.100426
    25  C   -0.378393
    26  C   -0.370814
    27  C   -0.120641
    28  C   -0.107605
    29  C   -0.113554
    30  C   -0.082700
    31  C   -0.072937
    32  C   -0.113513
    33  C    0.092751
    34  C    0.220880
    35  C   -0.380093
    36  C   -0.384323
    37  C   -0.138797
    38  C   -0.153676
    39  C   -0.074357
    40  C   -0.098799
    41  H    0.107916
    42  H    0.089758
    43  H    0.083432
    44  H    0.078416
    45  H    0.092527
    46  H    0.088781
    47  H    0.062759
    48  H    0.080037
    49  H    0.082664
    50  H    0.098492
    51  H    0.101370
    52  H    0.086363
    53  H    0.111294
    54  H    0.084759
    55  H    0.084994
    56  H    0.109011
    57  H    0.094097
    58  H    0.093598
    59  H    0.108127
    60  H    0.112807
    61  H    0.088946
    62  H    0.098240
    63  H    0.085890
    64  H    0.092174
    65  H    0.079843
    66  H    0.083661
    67  H    0.124613
    68  H    0.093195
    69  H    0.107305
    70  H    0.108078
    71  H    0.131382
    72  H    0.064202
    73  H    0.079368
    74  H    0.100817
    75  H    0.129529
    76  H    0.098324
    77  H    0.125574
    78  H    0.098998
    79  H    0.134650
    80  H    0.119636
    81  H    0.082966
    82  H    0.062614
    83  H    0.086605
    84  H    0.064193
    85  H    0.070043
    86  H    0.074259
    87  H    0.121378
    88  H    0.106014
    89  H    0.136304
    90  H    0.091137
    91  H    0.108189
    92  H    0.105440
    93  H    0.086373
    94  H    0.065953
    95  H    0.085857
    96  H    0.072634
 Sum of Mulliken charges =  -0.00000

 Dipole moment (field-independent basis, Debye):
    X=              1.5184    Y=              0.2496    Z=              0.3657  Tot=              1.5817
 Quadrupole moment (field-independent basis, Debye-Ang):
   XX=           -235.6174   YY=           -236.1171   ZZ=           -256.2122
   XY=              2.1184   XZ=             -4.7999   YZ=              3.2657

 Normal termination of Gaussian 16 at Fri Jul 26 19:51:39 2019.
