 Gaussian 16, Revision A.03,
 Gaussian 16:  ES64L-G16RevA.03 25-Dec-2016

 ---------------------------------
 # td=(NStates=1) B3LYP/6-31G(d,p)
 ---------------------------------

 --
 TD
 --
 Symbolic Z-matrix:
 Charge =  0 Multiplicity = 1

                         Standard orientation:
 ---------------------------------------------------------------------
 Center     Atomic      Atomic             Coordinates (Angstroms)
 Number     Number       Type             X           Y           Z
 ---------------------------------------------------------------------
      1          6           0       12.088876    0.651194   -0.608244
      2          6           0      -12.105863    0.020472    0.811170
      3          6           0       13.454560   -0.105512   -0.614754
      4          6           0      -12.905198    1.360541    1.171110
      5          6           0       13.150266   -1.634085   -0.555927
      6          6           0      -13.263113    2.335284   -0.025447
      7          6           0       10.991019    0.017610    0.304292
      8          6           0      -10.971458    0.465095   -0.055881
      9          6           0       12.409275   -2.023753    0.710707
     10          6           0      -11.912797    2.715468   -0.525068
     11          6           0       11.117464   -1.147744    0.950004
     12          6           0      -10.811283    1.661831   -0.707374
     13          6           0       11.573941    0.605809   -2.104767
     14          6           0       12.301098    2.207325   -0.345134
     15          6           0      -12.889119   -0.922031    0.109400
     16          6           0      -11.679064   -0.739817    2.196679
     17          6           0        9.787847    0.880298    0.354945
     18          6           0       -9.901815   -0.497305   -0.131879
     19          6           0       10.186645   -1.724966    1.946970
     20          6           0       -9.669113    2.137377   -1.522273
     21          6           0        8.551448    0.406279    0.273893
     22          6           0       -8.564068   -0.456053   -0.067513
     23          6           0        7.371336    1.249440    0.427369
     24          6           0       -7.496692   -1.395624   -0.419755
     25          6           0        7.633246    2.712763    0.621048
     26          6           0       -7.989081   -2.728561   -0.715367
     27          6           0        6.149122    0.677842    0.150210
     28          6           0       -6.230894   -0.986628   -0.290548
     29          6           0        4.802559    1.291488    0.327631
     30          6           0       -5.037012   -1.827371   -0.561763
     31          6           0        3.619035    0.624427    0.182833
     32          6           0       -3.863347   -1.201851   -0.332574
     33          6           0        2.346343    1.176786    0.344513
     34          6           0       -2.505999   -1.964200   -0.441664
     35          6           0        2.118938    2.653016    0.592348
     36          6           0       -2.549191   -3.381755   -0.668012
     37          6           0        1.244660    0.323736    0.086872
     38          6           0       -1.428488   -1.190659   -0.298936
     39          6           0        1.099269   -0.989805   -0.104680
     40          6           0       -0.029890   -1.712952   -0.394925
     41          1           0       13.949154    0.148879    0.164663
     42          1           0       14.070578   -0.035121   -1.510881
     43          1           0      -12.437423    1.932511    2.038354
     44          1           0      -13.946087    1.122365    1.674605
     45          1           0       13.995912   -2.325702   -0.537217
     46          1           0       12.607559   -1.989021   -1.303227
     47          1           0      -13.891755    3.228060    0.381558
     48          1           0      -13.745873    1.800567   -0.866673
     49          1           0       13.032008   -1.961355    1.679669
     50          1           0       12.060923   -3.047480    0.785934
     51          1           0      -11.447048    3.541422   -0.026144
     52          1           0      -12.042544    3.110860   -1.449758
     53          1           0       11.068872   -0.350254   -2.265703
     54          1           0       12.127576    0.986951   -2.991382
     55          1           0       10.738399    1.163767   -2.069187
     56          1           0       12.507651    2.419171    0.659334
     57          1           0       11.398533    2.860732   -0.692946
     58          1           0       13.129383    2.301324   -1.084209
     59          1           0      -13.196154   -0.629240   -0.818572
     60          1           0      -13.741292   -1.253840    0.650672
     61          1           0      -12.378454   -1.913416   -0.058915
     62          1           0      -10.941892    0.019209    2.756309
     63          1           0      -11.201212   -1.576196    2.074603
     64          1           0      -12.614426   -0.946272    2.841575
     65          1           0       10.038135    2.032444    0.696010
     66          1           0      -10.273830   -1.427052   -0.229187
     67          1           0        9.385708   -1.076343    2.197464
     68          1           0       10.911638   -1.767855    2.794499
     69          1           0        9.913359   -2.755661    1.685809
     70          1           0       -9.276178    1.048026   -2.138803
     71          1           0       -8.774553    2.557521   -1.026475
     72          1           0      -10.023768    2.955596   -2.242867
     73          1           0        8.434725   -0.676428   -0.138226
     74          1           0       -8.059233    0.532787    0.334859
     75          1           0        8.024137    3.038718    1.796440
     76          1           0        6.672482    3.400957    0.498225
     77          1           0        8.108675    3.085447   -0.341803
     78          1           0       -8.447995   -2.910156   -1.728131
     79          1           0       -8.720803   -3.135756   -0.011635
     80          1           0       -7.159347   -3.587887   -0.547689
     81          1           0        6.025165   -0.349301   -0.080141
     82          1           0       -6.037509   -0.062017   -0.065678
     83          1           0        4.786750    2.329737    0.749300
     84          1           0       -5.139897   -2.861988   -0.812923
     85          1           0        3.731717   -0.279894   -0.340133
     86          1           0       -3.870746   -0.077678   -0.282085
     87          1           0        2.778137    3.069074    1.614097
     88          1           0        0.977327    2.699302    0.707529
     89          1           0        2.362895    3.190096   -0.406063
     90          1           0       -3.176896   -3.590816   -1.499279
     91          1           0       -2.910208   -3.928829    0.176493
     92          1           0       -1.596263   -3.684396   -0.952391
     93          1           0        0.381236    0.874063    0.100530
     94          1           0       -1.535184   -0.065993   -0.236458
     95          1           0        2.107246   -1.612326   -0.322486
     96          1           0        0.099935   -2.831769   -0.398334
 ---------------------------------------------------------------------

 SCF Done:  E(RB3LYP) =  -1557.59172601     A.U. after   15 cycles

 Excitation energies and oscillator strengths:

 Excited State   1:      Singlet-A      2.3384 eV  530.20 nm  f=2.8113  <S**2>=0.000
     147 ->149         0.10817
     148 ->149         0.69520
 This state for optimization and/or second-order correction.
 Total Energy, E(TD-HF/TD-DFT) =  -1557.50579044
 Copying the excited state density for this state as the 1-particle RhoCI density.

 The electronic state is 1-A.
 Alpha  occ. eigenvalues --  -10.21369 -10.21218 -10.20142 -10.20040 -10.19925
 Alpha  occ. eigenvalues --  -10.19858 -10.19767 -10.19765 -10.19549 -10.19437
 Alpha  occ. eigenvalues --  -10.19020 -10.19016 -10.18994 -10.18984 -10.18947
 Alpha  occ. eigenvalues --  -10.18917 -10.18882 -10.18832 -10.18825 -10.18774
 Alpha  occ. eigenvalues --  -10.18657 -10.18559 -10.18505 -10.18468 -10.18257
 Alpha  occ. eigenvalues --  -10.17840 -10.17691 -10.17637 -10.17599 -10.17549
 Alpha  occ. eigenvalues --  -10.17409 -10.17334 -10.17247 -10.17104 -10.16502
 Alpha  occ. eigenvalues --  -10.16420 -10.16385 -10.16095 -10.15494 -10.15405
 Alpha  occ. eigenvalues --   -0.85234  -0.84254  -0.83783  -0.83205  -0.82159
 Alpha  occ. eigenvalues --   -0.81589  -0.79173  -0.78757  -0.78045  -0.77549
 Alpha  occ. eigenvalues --   -0.76793  -0.75436  -0.74302  -0.72122  -0.71912
 Alpha  occ. eigenvalues --   -0.70643  -0.68721  -0.68081  -0.67984  -0.67721
 Alpha  occ. eigenvalues --   -0.67645  -0.67451  -0.66978  -0.66406  -0.65918
 Alpha  occ. eigenvalues --   -0.62214  -0.61106  -0.59909  -0.58533  -0.57391
 Alpha  occ. eigenvalues --   -0.56417  -0.55777  -0.55260  -0.54741  -0.53067
 Alpha  occ. eigenvalues --   -0.52406  -0.51885  -0.50259  -0.49176  -0.48539
 Alpha  occ. eigenvalues --   -0.48246  -0.47571  -0.47011  -0.46577  -0.46259
 Alpha  occ. eigenvalues --   -0.45252  -0.45054  -0.44783  -0.43967  -0.43597
 Alpha  occ. eigenvalues --   -0.43540  -0.43077  -0.42712  -0.42579  -0.42206
 Alpha  occ. eigenvalues --   -0.41961  -0.41771  -0.41650  -0.41459  -0.41302
 Alpha  occ. eigenvalues --   -0.40909  -0.40498  -0.40190  -0.40071  -0.39569
 Alpha  occ. eigenvalues --   -0.39125  -0.38899  -0.38730  -0.38590  -0.38382
 Alpha  occ. eigenvalues --   -0.37985  -0.37802  -0.37435  -0.37124  -0.36685
 Alpha  occ. eigenvalues --   -0.36081  -0.35908  -0.35231  -0.35191  -0.35096
 Alpha  occ. eigenvalues --   -0.34665  -0.34527  -0.34441  -0.33838  -0.33650
 Alpha  occ. eigenvalues --   -0.33419  -0.33183  -0.32815  -0.32529  -0.32359
 Alpha  occ. eigenvalues --   -0.32159  -0.31741  -0.31589  -0.31283  -0.30651
 Alpha  occ. eigenvalues --   -0.30355  -0.30046  -0.29715  -0.28965  -0.28380
 Alpha  occ. eigenvalues --   -0.27844  -0.27189  -0.25917  -0.23992  -0.22709
 Alpha  occ. eigenvalues --   -0.20968  -0.18939  -0.16563
 Alpha virt. eigenvalues --   -0.07762  -0.04203  -0.01636   0.01254   0.03096
 Alpha virt. eigenvalues --    0.04627   0.06148   0.06745   0.07028   0.07649
 Alpha virt. eigenvalues --    0.07789   0.08035   0.08619   0.08778   0.09181

 Mulliken charges:
               1
     1  C   -0.027621
     2  C   -0.008687
     3  C   -0.153388
     4  C   -0.179644
     5  C   -0.194739
     6  C   -0.191696
     7  C    0.053721
     8  C    0.094307
     9  C   -0.224553
    10  C   -0.213848
    11  C    0.050187
    12  C    0.067204
    13  C   -0.309066
    14  C   -0.306230
    15  C   -0.278469
    16  C   -0.294229
    17  C   -0.130989
    18  C   -0.138525
    19  C   -0.354245
    20  C   -0.349577
    21  C   -0.098069
    22  C   -0.113062
    23  C    0.123692
    24  C    0.173234
    25  C   -0.368291
    26  C   -0.393954
    27  C   -0.126828
    28  C   -0.113688
    29  C   -0.094310
    30  C   -0.070523
    31  C   -0.095363
    32  C   -0.118968
    33  C    0.104186
    34  C    0.115697
    35  C   -0.353690
    36  C   -0.379293
    37  C   -0.095215
    38  C   -0.111968
    39  C   -0.066212
    40  C   -0.125971
    41  H    0.097990
    42  H    0.092807
    43  H    0.090727
    44  H    0.054076
    45  H    0.081468
    46  H    0.116034
    47  H    0.089303
    48  H    0.102246
    49  H    0.084062
    50  H    0.092497
    51  H    0.105977
    52  H    0.095286
    53  H    0.094855
    54  H    0.095107
    55  H    0.110283
    56  H    0.107624
    57  H    0.090735
    58  H    0.101394
    59  H    0.104570
    60  H    0.098954
    61  H    0.088277
    62  H    0.083509
    63  H    0.116058
    64  H    0.092768
    65  H    0.085467
    66  H    0.062723
    67  H    0.123680
    68  H    0.106867
    69  H    0.110682
    70  H    0.087119
    71  H    0.125068
    72  H    0.092437
    73  H    0.086592
    74  H    0.048466
    75  H    0.098026
    76  H    0.091269
    77  H    0.134731
    78  H    0.120609
    79  H    0.124302
    80  H    0.077469
    81  H    0.075662
    82  H    0.061975
    83  H    0.068731
    84  H    0.085451
    85  H    0.080299
    86  H    0.083275
    87  H    0.096200
    88  H    0.104734
    89  H    0.125840
    90  H    0.126002
    91  H    0.132045
    92  H    0.116320
    93  H    0.054830
    94  H    0.082092
    95  H    0.058939
    96  H    0.084174
 Sum of Mulliken charges =  -0.00000

 Dipole moment (field-independent basis, Debye):
    X=              0.0338    Y=             -0.3045    Z=             -0.3336  Tot=              0.4529
 Quadrupole moment (field-independent basis, Debye-Ang):
   XX=           -232.2228   YY=           -231.9013   ZZ=           -254.2095
   XY=             -0.3821   XZ=              2.7443   YZ=              2.2747

 Normal termination of Gaussian 16 at Sat Jul 27 05:08:19 2019.
