 Gaussian 16, Revision A.03,
 Gaussian 16:  ES64L-G16RevA.03 25-Dec-2016

 ---------------------------------
 # td=(NStates=1) B3LYP/6-31G(d,p)
 ---------------------------------

 --
 TD
 --
 Symbolic Z-matrix:
 Charge =  0 Multiplicity = 1

                         Standard orientation:
 ---------------------------------------------------------------------
 Center     Atomic      Atomic             Coordinates (Angstroms)
 Number     Number       Type             X           Y           Z
 ---------------------------------------------------------------------
      1          6           0      -12.212633    0.408869    0.867798
      2          6           0       12.195459   -0.091384   -0.722919
      3          6           0      -13.498349   -0.390824    0.790080
      4          6           0       13.140998    1.090564   -1.038938
      5          6           0      -13.220837   -1.813077    0.635783
      6          6           0       13.446803    2.010625    0.095794
      7          6           0      -11.129788    0.087660   -0.090368
      8          6           0       11.070014    0.355944    0.122004
      9          6           0      -12.309057   -2.073386   -0.647226
     10          6           0       12.126753    2.521666    0.691148
     11          6           0      -11.148710   -1.147313   -0.702422
     12          6           0       11.067040    1.518637    0.824333
     13          6           0      -11.651211    0.262231    2.408278
     14          6           0      -12.633352    1.918834    0.757050
     15          6           0       13.053483   -1.239295   -0.003018
     16          6           0       11.703687   -0.728207   -1.993979
     17          6           0       -9.896250    0.930229   -0.271666
     18          6           0        9.934105   -0.603135    0.311646
     19          6           0      -10.268590   -1.523985   -1.910819
     20          6           0        9.965059    2.014814    1.733579
     21          6           0       -8.643260    0.466037   -0.304754
     22          6           0        8.611749   -0.219096    0.257200
     23          6           0       -7.478904    1.281509   -0.502109
     24          6           0        7.536953   -1.249058    0.358822
     25          6           0       -7.634238    2.758716   -0.893211
     26          6           0        7.887683   -2.625499    0.721906
     27          6           0       -6.171988    0.704522   -0.516978
     28          6           0        6.242454   -0.778860    0.186748
     29          6           0       -4.882916    1.318152   -0.616048
     30          6           0        5.016444   -1.606061    0.343385
     31          6           0       -3.729790    0.648465   -0.610925
     32          6           0        3.781186   -0.964493    0.114186
     33          6           0       -2.422727    1.268611   -0.546631
     34          6           0        2.554374   -1.681956    0.153738
     35          6           0       -2.247338    2.728927   -0.745566
     36          6           0        2.598598   -3.199648    0.441405
     37          6           0       -1.230436    0.552364   -0.350250
     38          6           0        1.369954   -0.979912   -0.025433
     39          6           0       -1.070056   -0.765332   -0.010142
     40          6           0        0.042081   -1.441393    0.162001
     41          1           0      -14.115272   -0.136335   -0.074523
     42          1           0      -14.168944   -0.257820    1.748374
     43          1           0       12.893722    1.650595   -1.857169
     44          1           0       14.176154    0.793167   -1.491329
     45          1           0      -14.077408   -2.466283    0.635383
     46          1           0      -12.666323   -2.362856    1.511315
     47          1           0       14.275913    2.711734   -0.244566
     48          1           0       13.972350    1.476203    0.923652
     49          1           0      -12.848866   -1.994934   -1.385150
     50          1           0      -12.078818   -3.089581   -0.687608
     51          1           0       11.825980    3.381838    0.070547
     52          1           0       12.215010    2.989458    1.700617
     53          1           0      -11.265566   -0.615948    2.703630
     54          1           0      -12.387718    0.693567    3.104783
     55          1           0      -10.636908    0.760824    2.468141
     56          1           0      -13.432641    1.929305   -0.199581
     57          1           0      -11.710827    2.737592    0.728634
     58          1           0      -13.289196    2.295441    1.830620
     59          1           0       13.521742   -0.977884    1.062954
     60          1           0       13.839229   -1.612126   -0.759320
     61          1           0       12.455283   -2.022966    0.250266
     62          1           0       11.031997    0.042701   -2.594099
     63          1           0       11.279197   -1.708731   -1.781624
     64          1           0       12.402569   -0.825533   -2.771495
     65          1           0      -10.109061    2.044159   -0.546461
     66          1           0       10.203969   -1.646029    0.483373
     67          1           0       -9.882374   -0.734169   -2.424251
     68          1           0      -10.989333   -2.075582   -2.746595
     69          1           0       -9.360950   -2.252887   -1.501717
     70          1           0        9.447056    1.183823    2.243508
     71          1           0        9.124035    2.412504    0.869206
     72          1           0       10.136698    2.830416    2.472865
     73          1           0       -8.332177   -0.413241    0.105860
     74          1           0        8.304110    0.885195    0.194712
     75          1           0       -8.512446    2.936908   -1.671616
     76          1           0       -6.757145    3.378816   -1.106964
     77          1           0       -8.256885    3.236475    0.024153
     78          1           0        8.274243   -2.506860    1.984553
     79          1           0        8.938270   -3.116588    0.257544
     80          1           0        6.984402   -3.286308    0.682453
     81          1           0       -5.941218   -0.481304   -0.418006
     82          1           0        5.942616    0.128421    0.359327
     83          1           0       -4.923552    2.394263   -0.644970
     84          1           0        4.928477   -2.697125    0.407046
     85          1           0       -3.957099   -0.388762   -0.194768
     86          1           0        3.752150    0.139779    0.092363
     87          1           0       -2.681452    3.488502   -1.622245
     88          1           0       -1.155464    2.939252   -0.959836
     89          1           0       -2.581955    3.123459    0.264113
     90          1           0        3.208854   -3.273354    1.418938
     91          1           0        3.140561   -3.815182   -0.207256
     92          1           0        1.657338   -3.678991    0.495333
     93          1           0       -0.423065    1.155715   -0.558551
     94          1           0        1.364324    0.139150   -0.096907
     95          1           0       -2.023886   -1.220780    0.145046
     96          1           0        0.083625   -2.573860    0.466416
 ---------------------------------------------------------------------

 SCF Done:  E(RB3LYP) =  -1557.54529542     A.U. after   16 cycles

 Excitation energies and oscillator strengths:

 Excited State   1:      Singlet-A      2.0935 eV  592.22 nm  f=3.0125  <S**2>=0.000
     148 ->149         0.70539
     148 <-149        -0.10779
 This state for optimization and/or second-order correction.
 Total Energy, E(TD-HF/TD-DFT) =  -1557.46835933
 Copying the excited state density for this state as the 1-particle RhoCI density.

 The electronic state is 1-A.
 Alpha  occ. eigenvalues --  -10.21986 -10.21776 -10.21162 -10.20602 -10.20591
 Alpha  occ. eigenvalues --  -10.20459 -10.20422 -10.20350 -10.20344 -10.20256
 Alpha  occ. eigenvalues --  -10.19830 -10.19829 -10.19478 -10.19301 -10.19267
 Alpha  occ. eigenvalues --  -10.19227 -10.19204 -10.19092 -10.19060 -10.18888
 Alpha  occ. eigenvalues --  -10.18782 -10.18745 -10.18736 -10.18626 -10.18618
 Alpha  occ. eigenvalues --  -10.18528 -10.18255 -10.18038 -10.18019 -10.17976
 Alpha  occ. eigenvalues --  -10.17918 -10.17857 -10.17738 -10.17708 -10.17657
 Alpha  occ. eigenvalues --  -10.17561 -10.17097 -10.17018 -10.16638 -10.15746
 Alpha  occ. eigenvalues --   -0.85333  -0.85258  -0.84107  -0.82929  -0.82157
 Alpha  occ. eigenvalues --   -0.81369  -0.79658  -0.78686  -0.77959  -0.77590
 Alpha  occ. eigenvalues --   -0.76953  -0.75650  -0.74264  -0.71775  -0.71477
 Alpha  occ. eigenvalues --   -0.70320  -0.68194  -0.68062  -0.67704  -0.67601
 Alpha  occ. eigenvalues --   -0.67238  -0.67175  -0.66987  -0.66036  -0.65738
 Alpha  occ. eigenvalues --   -0.62747  -0.61693  -0.59412  -0.58976  -0.57046
 Alpha  occ. eigenvalues --   -0.56623  -0.56338  -0.55458  -0.54171  -0.53438
 Alpha  occ. eigenvalues --   -0.52800  -0.52376  -0.50972  -0.50242  -0.49788
 Alpha  occ. eigenvalues --   -0.48610  -0.47744  -0.47299  -0.46482  -0.45896
 Alpha  occ. eigenvalues --   -0.45752  -0.45009  -0.44819  -0.44364  -0.43643
 Alpha  occ. eigenvalues --   -0.43536  -0.43265  -0.42798  -0.42483  -0.42082
 Alpha  occ. eigenvalues --   -0.41820  -0.41196  -0.41011  -0.40929  -0.40542
 Alpha  occ. eigenvalues --   -0.40425  -0.40003  -0.39658  -0.39208  -0.38979
 Alpha  occ. eigenvalues --   -0.38835  -0.38466  -0.38225  -0.38159  -0.37923
 Alpha  occ. eigenvalues --   -0.37785  -0.37111  -0.37094  -0.36766  -0.36692
 Alpha  occ. eigenvalues --   -0.36324  -0.35919  -0.35684  -0.35604  -0.35126
 Alpha  occ. eigenvalues --   -0.34972  -0.34683  -0.34323  -0.34186  -0.33839
 Alpha  occ. eigenvalues --   -0.33721  -0.33621  -0.33521  -0.32805  -0.32460
 Alpha  occ. eigenvalues --   -0.31832  -0.31772  -0.31470  -0.31103  -0.31024
 Alpha  occ. eigenvalues --   -0.30633  -0.29653  -0.29415  -0.29295  -0.28915
 Alpha  occ. eigenvalues --   -0.28652  -0.27826  -0.26130  -0.23863  -0.22427
 Alpha  occ. eigenvalues --   -0.21000  -0.18952  -0.16196
 Alpha virt. eigenvalues --   -0.08439  -0.05337  -0.01832   0.00413   0.01941
 Alpha virt. eigenvalues --    0.03296   0.05393   0.05570   0.06335   0.06490
 Alpha virt. eigenvalues --    0.07625   0.07986   0.08083   0.08158   0.08489

 Mulliken charges:
               1
     1  C    0.006349
     2  C   -0.008452
     3  C   -0.149591
     4  C   -0.171828
     5  C   -0.202602
     6  C   -0.192270
     7  C    0.082693
     8  C    0.095755
     9  C   -0.214157
    10  C   -0.216228
    11  C    0.047155
    12  C    0.076229
    13  C   -0.303004
    14  C   -0.264224
    15  C   -0.296181
    16  C   -0.296835
    17  C   -0.149209
    18  C   -0.145928
    19  C   -0.327622
    20  C   -0.354745
    21  C   -0.052221
    22  C   -0.080985
    23  C    0.107232
    24  C    0.135757
    25  C   -0.373427
    26  C   -0.346969
    27  C   -0.144652
    28  C   -0.115108
    29  C   -0.035297
    30  C   -0.112175
    31  C   -0.123038
    32  C   -0.110949
    33  C    0.087531
    34  C    0.122512
    35  C   -0.367027
    36  C   -0.386352
    37  C   -0.101222
    38  C   -0.121648
    39  C   -0.059780
    40  C   -0.090931
    41  H    0.091985
    42  H    0.081304
    43  H    0.099970
    44  H    0.062950
    45  H    0.082639
    46  H    0.076907
    47  H    0.079094
    48  H    0.093911
    49  H    0.123278
    50  H    0.100681
    51  H    0.105671
    52  H    0.086828
    53  H    0.112404
    54  H    0.098504
    55  H    0.088332
    56  H    0.076091
    57  H    0.085028
    58  H    0.056588
    59  H    0.083588
    60  H    0.094676
    61  H    0.106080
    62  H    0.083490
    63  H    0.100120
    64  H    0.105600
    65  H    0.080108
    66  H    0.080692
    67  H    0.133125
    68  H    0.070078
    69  H    0.088165
    70  H    0.127808
    71  H    0.081770
    72  H    0.105319
    73  H    0.088234
    74  H    0.079024
    75  H    0.112897
    76  H    0.118706
    77  H    0.096246
    78  H    0.081673
    79  H    0.096755
    80  H    0.114238
    81  H    0.054889
    82  H    0.083052
    83  H    0.076064
    84  H    0.080064
    85  H    0.080379
    86  H    0.078797
    87  H    0.092806
    88  H    0.107077
    89  H    0.126449
    90  H    0.114287
    91  H    0.133707
    92  H    0.113605
    93  H    0.067715
    94  H    0.072947
    95  H    0.076430
    96  H    0.064620
 Sum of Mulliken charges =  -0.00000

 Dipole moment (field-independent basis, Debye):
    X=              0.0575    Y=             -0.0454    Z=              0.3268  Tot=              0.3349
 Quadrupole moment (field-independent basis, Debye-Ang):
   XX=           -227.3795   YY=           -235.4825   ZZ=           -254.9124
   XY=              3.8934   XZ=              3.4197   YZ=             -2.7970

 Normal termination of Gaussian 16 at Mon Jul 29 18:11:27 2019.
