 Gaussian 16, Revision A.03,
 Gaussian 16:  ES64L-G16RevA.03 25-Dec-2016

 ---------------------------------
 # td=(NStates=1) B3LYP/6-31G(d,p)
 ---------------------------------

 --
 TD
 --
 Symbolic Z-matrix:
 Charge =  0 Multiplicity = 1

                         Standard orientation:
 ---------------------------------------------------------------------
 Center     Atomic      Atomic             Coordinates (Angstroms)
 Number     Number       Type             X           Y           Z
 ---------------------------------------------------------------------
      1          6           0       12.127682    0.519263   -0.538839
      2          6           0      -12.133373   -0.057440    1.001181
      3          6           0       13.392417   -0.479240   -0.421525
      4          6           0      -12.916491    1.138478    1.538491
      5          6           0       13.021121   -1.948759   -0.318514
      6          6           0      -13.402814    2.015101    0.337620
      7          6           0       11.024323    0.025861    0.356106
      8          6           0      -10.960335    0.460387    0.009018
      9          6           0       12.163238   -2.185050    0.936440
     10          6           0      -12.129572    2.607438   -0.394241
     11          6           0       10.995760   -1.134832    1.098336
     12          6           0      -11.013866    1.612574   -0.600082
     13          6           0       11.585013    0.547136   -1.972769
     14          6           0       12.741312    1.883774   -0.288646
     15          6           0      -13.006589   -1.197428    0.332870
     16          6           0      -11.485046   -0.727651    2.301701
     17          6           0        9.874414    1.020663    0.313407
     18          6           0       -9.919591   -0.513613   -0.179647
     19          6           0       10.058105   -1.677474    2.133414
     20          6           0       -9.972536    1.997497   -1.583170
     21          6           0        8.623850    0.514316    0.320339
     22          6           0       -8.581065   -0.277396   -0.196356
     23          6           0        7.386981    1.334240    0.241744
     24          6           0       -7.548769   -1.252474   -0.519482
     25          6           0        7.659358    2.765842    0.447176
     26          6           0       -7.910347   -2.662613   -0.957464
     27          6           0        6.172995    0.684954    0.194821
     28          6           0       -6.212130   -0.835553   -0.456026
     29          6           0        4.933991    1.407230    0.208413
     30          6           0       -5.000039   -1.589670   -0.630976
     31          6           0        3.727092    0.666248    0.086724
     32          6           0       -3.805076   -1.136233   -0.551102
     33          6           0        2.450010    1.274954    0.088349
     34          6           0       -2.536775   -1.779747   -0.585656
     35          6           0        2.403754    2.830535    0.243319
     36          6           0       -2.610795   -3.336366   -0.826610
     37          6           0        1.269911    0.518536   -0.194083
     38          6           0       -1.389758   -1.085542   -0.481696
     39          6           0        1.085492   -0.863291   -0.158282
     40          6           0        0.014906   -1.549438   -0.451551
     41          1           0       14.014141   -0.035349    0.372368
     42          1           0       14.107360   -0.285100   -1.420024
     43          1           0      -12.516743    1.664607    2.248486
     44          1           0      -13.800534    0.741403    2.239904
     45          1           0       13.658466   -2.672018   -0.430456
     46          1           0       12.103510   -2.005738   -1.201067
     47          1           0      -14.181893    2.669776    0.796862
     48          1           0      -13.908700    1.481097   -0.456058
     49          1           0       12.806920   -2.305466    1.956752
     50          1           0       11.619261   -3.053324    0.859074
     51          1           0      -11.760653    3.532080    0.191421
     52          1           0      -12.418597    3.134028   -1.420884
     53          1           0       11.273250   -0.521347   -2.374089
     54          1           0       12.084513    1.127345   -2.724574
     55          1           0       10.747309    1.166215   -2.084223
     56          1           0       13.200474    2.159413    0.694504
     57          1           0       12.010056    2.752425   -0.421053
     58          1           0       13.554544    1.944281   -1.030525
     59          1           0      -13.550839   -0.751649   -0.416270
     60          1           0      -13.784415   -1.434992    1.019366
     61          1           0      -12.356591   -1.994106    0.003470
     62          1           0      -10.707061    0.054797    2.529658
     63          1           0      -11.088999   -1.738253    2.008337
     64          1           0      -12.354444   -0.642768    2.977003
     65          1           0       10.120276    2.098354    0.473208
     66          1           0      -10.318870   -1.528477   -0.359248
     67          1           0        9.495207   -0.827125    2.777446
     68          1           0       10.366733   -1.855937    3.070987
     69          1           0        9.311977   -2.420811    1.847743
     70          1           0       -9.560318    1.062857   -1.689686
     71          1           0       -9.177155    2.814981   -1.133365
     72          1           0      -10.473774    2.411070   -2.484504
     73          1           0        8.277211   -0.549250    0.180005
     74          1           0       -7.983206    0.896214    0.019475
     75          1           0        7.981678    3.046218    1.396596
     76          1           0        6.943960    3.669388    0.444101
     77          1           0        8.324162    3.195448   -0.182971
     78          1           0       -8.310980   -2.679280   -1.899769
     79          1           0       -8.504368   -3.005207   -0.165767
     80          1           0       -7.032359   -3.223069   -0.938430
     81          1           0        6.281108   -0.408870    0.079257
     82          1           0       -6.127687    0.166794   -0.378362
     83          1           0        4.942277    2.534684    0.093071
     84          1           0       -5.176741   -2.677528   -0.838890
     85          1           0        3.965780   -0.488063    0.042156
     86          1           0       -3.914387    0.049705   -0.482335
     87          1           0        2.872646    3.174890    1.081713
     88          1           0        1.331511    3.111907   -0.015286
     89          1           0        3.167922    3.031454   -0.475790
     90          1           0       -3.046374   -3.458400   -1.779620
     91          1           0       -3.206480   -3.883275    0.055324
     92          1           0       -1.567600   -3.630572   -0.794122
     93          1           0        0.527805    1.060717    0.123127
     94          1           0       -1.577705    0.204977   -0.568854
     95          1           0        2.005788   -1.481239   -0.137423
     96          1           0        0.251081   -2.611206   -0.574290
 ---------------------------------------------------------------------

 SCF Done:  E(RB3LYP) =  -1557.52288606     A.U. after   16 cycles

 Excitation energies and oscillator strengths:

 Excited State   1:      Singlet-A      2.2738 eV  545.27 nm  f=2.9017  <S**2>=0.000
     148 ->149         0.70322
 This state for optimization and/or second-order correction.
 Total Energy, E(TD-HF/TD-DFT) =  -1557.43932446
 Copying the excited state density for this state as the 1-particle RhoCI density.

 The electronic state is 1-A.
 Alpha  occ. eigenvalues --  -10.20771 -10.20625 -10.20543 -10.20458 -10.20067
 Alpha  occ. eigenvalues --  -10.19945 -10.19894 -10.19881 -10.19851 -10.19677
 Alpha  occ. eigenvalues --  -10.19668 -10.19608 -10.19253 -10.19243 -10.19159
 Alpha  occ. eigenvalues --  -10.19040 -10.18995 -10.18900 -10.18774 -10.18650
 Alpha  occ. eigenvalues --  -10.18409 -10.18367 -10.18342 -10.18302 -10.18301
 Alpha  occ. eigenvalues --  -10.18260 -10.17961 -10.17957 -10.17937 -10.17907
 Alpha  occ. eigenvalues --  -10.17735 -10.17557 -10.17442 -10.17266 -10.17263
 Alpha  occ. eigenvalues --  -10.17006 -10.16930 -10.16908 -10.16557 -10.16239
 Alpha  occ. eigenvalues --   -0.84772  -0.84594  -0.83551  -0.83062  -0.82169
 Alpha  occ. eigenvalues --   -0.81180  -0.79411  -0.78646  -0.78471  -0.77038
 Alpha  occ. eigenvalues --   -0.76538  -0.75299  -0.74464  -0.72455  -0.72126
 Alpha  occ. eigenvalues --   -0.70272  -0.69616  -0.69129  -0.68386  -0.68336
 Alpha  occ. eigenvalues --   -0.67864  -0.67531  -0.66966  -0.66353  -0.65990
 Alpha  occ. eigenvalues --   -0.62881  -0.61926  -0.59640  -0.59047  -0.57626
 Alpha  occ. eigenvalues --   -0.57231  -0.55484  -0.54965  -0.53752  -0.53406
 Alpha  occ. eigenvalues --   -0.52655  -0.51586  -0.50257  -0.49292  -0.48529
 Alpha  occ. eigenvalues --   -0.48186  -0.47355  -0.46810  -0.46510  -0.46018
 Alpha  occ. eigenvalues --   -0.45496  -0.44913  -0.44434  -0.44143  -0.43970
 Alpha  occ. eigenvalues --   -0.43636  -0.43335  -0.42839  -0.42791  -0.42614
 Alpha  occ. eigenvalues --   -0.42424  -0.42272  -0.41835  -0.41644  -0.41315
 Alpha  occ. eigenvalues --   -0.40916  -0.40452  -0.40209  -0.40202  -0.39537
 Alpha  occ. eigenvalues --   -0.39302  -0.39159  -0.39038  -0.38777  -0.38010
 Alpha  occ. eigenvalues --   -0.37991  -0.37688  -0.37566  -0.37519  -0.36709
 Alpha  occ. eigenvalues --   -0.36475  -0.35744  -0.35665  -0.35318  -0.35118
 Alpha  occ. eigenvalues --   -0.34445  -0.34235  -0.34069  -0.33748  -0.33615
 Alpha  occ. eigenvalues --   -0.33462  -0.33054  -0.32951  -0.32655  -0.32372
 Alpha  occ. eigenvalues --   -0.32096  -0.31431  -0.31086  -0.30813  -0.30587
 Alpha  occ. eigenvalues --   -0.30130  -0.29924  -0.29120  -0.28583  -0.28102
 Alpha  occ. eigenvalues --   -0.27592  -0.27233  -0.26209  -0.24459  -0.23183
 Alpha  occ. eigenvalues --   -0.21607  -0.18965  -0.16654
 Alpha virt. eigenvalues --   -0.08015  -0.05073  -0.01398   0.00812   0.03000
 Alpha virt. eigenvalues --    0.04213   0.05798   0.06214   0.07009   0.07167
 Alpha virt. eigenvalues --    0.07614   0.07735   0.08151   0.08701   0.08981

 Mulliken charges:
               1
     1  C   -0.007592
     2  C   -0.022961
     3  C   -0.154176
     4  C   -0.169160
     5  C   -0.165425
     6  C   -0.197308
     7  C    0.088075
     8  C    0.087108
     9  C   -0.199598
    10  C   -0.222227
    11  C    0.042480
    12  C    0.081107
    13  C   -0.294052
    14  C   -0.315711
    15  C   -0.298110
    16  C   -0.289462
    17  C   -0.149000
    18  C   -0.192176
    19  C   -0.365600
    20  C   -0.340316
    21  C   -0.072371
    22  C   -0.074844
    23  C    0.130795
    24  C    0.091618
    25  C   -0.400127
    26  C   -0.361185
    27  C   -0.136516
    28  C   -0.118118
    29  C   -0.095944
    30  C   -0.063621
    31  C   -0.089309
    32  C   -0.087845
    33  C    0.040001
    34  C    0.106340
    35  C   -0.360814
    36  C   -0.359813
    37  C   -0.102213
    38  C   -0.123473
    39  C   -0.078529
    40  C   -0.089353
    41  H    0.094440
    42  H    0.052352
    43  H    0.111484
    44  H    0.051155
    45  H    0.095402
    46  H    0.059005
    47  H    0.084720
    48  H    0.106095
    49  H    0.071189
    50  H    0.111661
    51  H    0.095301
    52  H    0.075585
    53  H    0.090706
    54  H    0.095049
    55  H    0.111153
    56  H    0.101362
    57  H    0.081797
    58  H    0.113247
    59  H    0.107807
    60  H    0.103620
    61  H    0.099964
    62  H    0.103501
    63  H    0.090849
    64  H    0.095737
    65  H    0.100735
    66  H    0.090636
    67  H    0.074959
    68  H    0.129440
    69  H    0.119562
    70  H    0.132252
    71  H    0.081011
    72  H    0.095565
    73  H    0.077700
    74  H    0.061068
    75  H    0.135940
    76  H    0.082652
    77  H    0.129154
    78  H    0.134073
    79  H    0.122015
    80  H    0.111230
    81  H    0.079718
    82  H    0.060653
    83  H    0.091891
    84  H    0.063698
    85  H    0.080799
    86  H    0.054852
    87  H    0.135325
    88  H    0.109524
    89  H    0.131045
    90  H    0.136612
    91  H    0.104838
    92  H    0.111846
    93  H    0.078858
    94  H    0.057631
    95  H    0.070476
    96  H    0.080487
 Sum of Mulliken charges =  -0.00000

 Dipole moment (field-independent basis, Debye):
    X=              1.2491    Y=              0.3028    Z=              0.2177  Tot=              1.3036
 Quadrupole moment (field-independent basis, Debye-Ang):
   XX=           -223.9829   YY=           -232.3639   ZZ=           -254.3758
   XY=              7.4199   XZ=              7.3978   YZ=              3.0145

 Normal termination of Gaussian 16 at Tue Jul 23 11:31:06 2019.
