 Gaussian 16, Revision A.03,
 Gaussian 16:  ES64L-G16RevA.03 25-Dec-2016

 ---------------------------------
 # td=(NStates=1) B3LYP/6-31G(d,p)
 ---------------------------------

 --
 TD
 --
 Symbolic Z-matrix:
 Charge =  0 Multiplicity = 1

                         Standard orientation:
 ---------------------------------------------------------------------
 Center     Atomic      Atomic             Coordinates (Angstroms)
 Number     Number       Type             X           Y           Z
 ---------------------------------------------------------------------
      1          6           0       12.082005    0.573319   -0.700078
      2          6           0      -12.006736    0.052342    0.885626
      3          6           0       13.450945   -0.208193   -0.482992
      4          6           0      -12.953223    1.124814    1.549051
      5          6           0       13.210570   -1.708176   -0.363583
      6          6           0      -13.317426    2.137298    0.335260
      7          6           0       10.980034    0.078908    0.279642
      8          6           0      -10.899084    0.439659   -0.078716
      9          6           0       12.330149   -2.045327    0.838077
     10          6           0      -12.163564    2.738018   -0.391927
     11          6           0       11.120075   -1.101691    0.992730
     12          6           0      -11.007359    1.657492   -0.675727
     13          6           0       11.568154    0.407965   -2.080378
     14          6           0       12.474269    2.010607   -0.548361
     15          6           0      -12.911705   -1.039973    0.295549
     16          6           0      -11.354940   -0.697781    2.187744
     17          6           0        9.858275    0.889526    0.408274
     18          6           0       -9.815753   -0.526778   -0.387479
     19          6           0       10.188872   -1.510626    2.078729
     20          6           0       -9.998078    2.281788   -1.721859
     21          6           0        8.491546    0.523950    0.178643
     22          6           0       -8.484814   -0.302444   -0.461320
     23          6           0        7.299596    1.393689    0.417540
     24          6           0       -7.428108   -1.374231   -0.501097
     25          6           0        7.464105    2.747347    0.579229
     26          6           0       -7.911198   -2.830712   -0.714312
     27          6           0        6.097527    0.698773    0.250656
     28          6           0       -6.160114   -0.991828   -0.361670
     29          6           0        4.777739    1.284947    0.326023
     30          6           0       -5.021616   -1.729350   -0.485937
     31          6           0        3.621344    0.620285    0.218312
     32          6           0       -3.762251   -1.276879   -0.506617
     33          6           0        2.341557    1.200836    0.159454
     34          6           0       -2.566127   -1.827017   -0.560167
     35          6           0        2.248831    2.763257    0.419670
     36          6           0       -2.514506   -3.365096   -0.621094
     37          6           0        1.198293    0.477123    0.011877
     38          6           0       -1.398103   -1.102548   -0.440965
     39          6           0        1.120202   -1.025750   -0.266796
     40          6           0       -0.020221   -1.673502   -0.353518
     41          1           0       14.028587    0.238289    0.350186
     42          1           0       14.111945    0.036604   -1.289364
     43          1           0      -12.481260    1.708317    2.241805
     44          1           0      -13.854279    0.546763    2.015838
     45          1           0       14.188665   -2.175281   -0.224329
     46          1           0       12.849278   -2.235075   -1.321646
     47          1           0      -13.903153    2.773373    0.702992
     48          1           0      -14.269251    1.724115   -0.507749
     49          1           0       12.991703   -1.746221    1.786965
     50          1           0       11.947961   -3.146360    1.123865
     51          1           0      -11.681290    3.507809    0.097969
     52          1           0      -12.488036    3.046727   -1.460565
     53          1           0       11.126503   -0.677549   -2.479694
     54          1           0       12.408426    0.922994   -2.715647
     55          1           0       10.576028    0.958296   -2.259044
     56          1           0       13.022135    2.137501    0.523963
     57          1           0       11.592903    2.586887   -0.591342
     58          1           0       13.171328    2.194132   -1.240173
     59          1           0      -13.416569   -0.706356   -0.519795
     60          1           0      -13.509119   -1.444127    1.042620
     61          1           0      -12.380426   -1.940040    0.115552
     62          1           0      -10.608108    0.085547    2.575094
     63          1           0      -10.649514   -1.478034    1.983852
     64          1           0      -12.173302   -0.949716    2.640182
     65          1           0        9.807275    1.996130    0.614610
     66          1           0      -10.180573   -1.650948   -0.412159
     67          1           0        9.378015   -0.715512    2.310853
     68          1           0       10.818579   -1.746254    3.081915
     69          1           0        9.577724   -2.300462    1.667029
     70          1           0       -9.388649    1.319941   -1.930726
     71          1           0       -9.583126    3.261206   -1.316577
     72          1           0      -10.719378    2.577974   -2.496396
     73          1           0        8.454360   -0.700530    0.111901
     74          1           0       -8.056825    0.693683   -0.419184
     75          1           0        7.839359    3.013257    1.636058
     76          1           0        6.615419    3.412216    0.575502
     77          1           0        7.849949    3.243320   -0.261565
     78          1           0       -8.308062   -2.859164   -1.625422
     79          1           0       -8.347714   -3.210971    0.403160
     80          1           0       -7.100534   -3.433353   -0.689029
     81          1           0        6.088439   -0.377581   -0.162562
     82          1           0       -5.903981   -0.009385   -0.171313
     83          1           0        4.658552    2.252795    0.656343
     84          1           0       -5.009661   -3.001205   -0.721737
     85          1           0        3.770895   -0.602726    0.168978
     86          1           0       -3.706737   -0.199812   -0.320426
     87          1           0        2.801268    3.013289    1.388903
     88          1           0        1.057745    2.932146    0.733402
     89          1           0        2.573114    3.264278   -0.448783
     90          1           0       -3.371570   -3.860376   -1.598807
     91          1           0       -2.862310   -3.695081    0.443408
     92          1           0       -1.615779   -3.884563   -0.751285
     93          1           0        0.364773    0.981100    0.154246
     94          1           0       -1.554203   -0.139574   -0.348336
     95          1           0        2.077782   -1.498894   -0.453931
     96          1           0       -0.000272   -2.627784   -0.654590
 ---------------------------------------------------------------------

 SCF Done:  E(RB3LYP) =  -1557.45597898     A.U. after   15 cycles

 Excitation energies and oscillator strengths:

 Excited State   1:      Singlet-A      2.2887 eV  541.73 nm  f=2.8053  <S**2>=0.000
     148 ->149         0.70487
 This state for optimization and/or second-order correction.
 Total Energy, E(TD-HF/TD-DFT) =  -1557.37187260
 Copying the excited state density for this state as the 1-particle RhoCI density.

 The electronic state is 1-A.
 Alpha  occ. eigenvalues --  -10.20599 -10.20366 -10.20359 -10.20308 -10.19967
 Alpha  occ. eigenvalues --  -10.19951 -10.19753 -10.19745 -10.19506 -10.19505
 Alpha  occ. eigenvalues --  -10.19316 -10.19284 -10.19277 -10.19199 -10.19164
 Alpha  occ. eigenvalues --  -10.19017 -10.19001 -10.18895 -10.18887 -10.18833
 Alpha  occ. eigenvalues --  -10.18776 -10.18635 -10.18542 -10.18507 -10.18503
 Alpha  occ. eigenvalues --  -10.18443 -10.18418 -10.18160 -10.18139 -10.18137
 Alpha  occ. eigenvalues --  -10.18044 -10.17927 -10.17869 -10.17820 -10.17740
 Alpha  occ. eigenvalues --  -10.17338 -10.17178 -10.16626 -10.15677 -10.14724
 Alpha  occ. eigenvalues --   -0.84964  -0.84675  -0.83785  -0.83536  -0.82389
 Alpha  occ. eigenvalues --   -0.81828  -0.79163  -0.78900  -0.77621  -0.77450
 Alpha  occ. eigenvalues --   -0.77142  -0.75504  -0.74399  -0.72352  -0.71926
 Alpha  occ. eigenvalues --   -0.69790  -0.69084  -0.68471  -0.68196  -0.67763
 Alpha  occ. eigenvalues --   -0.67466  -0.67081  -0.66670  -0.66535  -0.66196
 Alpha  occ. eigenvalues --   -0.63046  -0.61906  -0.59990  -0.59124  -0.57157
 Alpha  occ. eigenvalues --   -0.55855  -0.55540  -0.55078  -0.54399  -0.52928
 Alpha  occ. eigenvalues --   -0.52661  -0.51865  -0.50991  -0.49717  -0.48883
 Alpha  occ. eigenvalues --   -0.48305  -0.47664  -0.47336  -0.46918  -0.46078
 Alpha  occ. eigenvalues --   -0.45476  -0.45103  -0.44712  -0.44509  -0.44365
 Alpha  occ. eigenvalues --   -0.43970  -0.43465  -0.43394  -0.43283  -0.43161
 Alpha  occ. eigenvalues --   -0.42804  -0.42103  -0.41897  -0.41521  -0.41323
 Alpha  occ. eigenvalues --   -0.41083  -0.40684  -0.40413  -0.40092  -0.39777
 Alpha  occ. eigenvalues --   -0.39528  -0.38919  -0.38372  -0.38274  -0.38217
 Alpha  occ. eigenvalues --   -0.37936  -0.36996  -0.36847  -0.36327  -0.35731
 Alpha  occ. eigenvalues --   -0.35425  -0.35397  -0.35088  -0.34924  -0.34818
 Alpha  occ. eigenvalues --   -0.34714  -0.34635  -0.34160  -0.33665  -0.33612
 Alpha  occ. eigenvalues --   -0.33443  -0.33335  -0.33111  -0.32867  -0.31920
 Alpha  occ. eigenvalues --   -0.31877  -0.31722  -0.31343  -0.30692  -0.30659
 Alpha  occ. eigenvalues --   -0.30356  -0.30033  -0.29263  -0.28375  -0.28029
 Alpha  occ. eigenvalues --   -0.27971  -0.27277  -0.26117  -0.24378  -0.22316
 Alpha  occ. eigenvalues --   -0.21260  -0.18501  -0.16640
 Alpha virt. eigenvalues --   -0.07724  -0.05401  -0.01083   0.00488   0.02983
 Alpha virt. eigenvalues --    0.04270   0.05338   0.06034   0.06152   0.07066
 Alpha virt. eigenvalues --    0.07441   0.07595   0.08023   0.08439   0.08806

 Mulliken charges:
               1
     1  C   -0.014707
     2  C   -0.045334
     3  C   -0.174387
     4  C   -0.171694
     5  C   -0.187579
     6  C   -0.156250
     7  C    0.097011
     8  C    0.124102
     9  C   -0.205427
    10  C   -0.205003
    11  C    0.071870
    12  C   -0.013568
    13  C   -0.266501
    14  C   -0.278891
    15  C   -0.289079
    16  C   -0.298101
    17  C   -0.168417
    18  C   -0.164827
    19  C   -0.359557
    20  C   -0.347179
    21  C   -0.108457
    22  C   -0.086991
    23  C    0.138572
    24  C    0.078425
    25  C   -0.408836
    26  C   -0.351365
    27  C   -0.125899
    28  C   -0.105949
    29  C   -0.077442
    30  C   -0.055670
    31  C   -0.085555
    32  C   -0.127471
    33  C    0.079284
    34  C    0.168363
    35  C   -0.362834
    36  C   -0.350897
    37  C   -0.098650
    38  C   -0.115284
    39  C   -0.081009
    40  C   -0.078634
    41  H    0.090592
    42  H    0.089673
    43  H    0.107933
    44  H    0.088586
    45  H    0.091428
    46  H    0.095024
    47  H    0.098884
    48  H    0.028171
    49  H    0.088773
    50  H    0.088451
    51  H    0.117885
    52  H    0.098018
    53  H    0.079206
    54  H    0.075033
    55  H    0.100906
    56  H    0.072325
    57  H    0.103342
    58  H    0.108437
    59  H    0.111386
    60  H    0.091391
    61  H    0.094960
    62  H    0.086088
    63  H    0.098057
    64  H    0.099115
    65  H    0.082096
    66  H    0.089895
    67  H    0.112292
    68  H    0.088820
    69  H    0.121067
    70  H    0.113030
    71  H    0.107360
    72  H    0.107056
    73  H    0.059257
    74  H    0.090254
    75  H    0.119337
    76  H    0.114566
    77  H    0.141261
    78  H    0.137972
    79  H    0.098895
    80  H    0.122053
    81  H    0.080476
    82  H    0.073893
    83  H    0.071741
    84  H    0.046135
    85  H    0.059018
    86  H    0.057450
    87  H    0.119397
    88  H    0.081970
    89  H    0.140531
    90  H    0.052410
    91  H    0.116020
    92  H    0.119402
    93  H    0.061956
    94  H    0.061153
    95  H    0.086776
    96  H    0.072611
 Sum of Mulliken charges =  -0.00000

 Dipole moment (field-independent basis, Debye):
    X=              0.4645    Y=              1.1017    Z=              0.6321  Tot=              1.3524
 Quadrupole moment (field-independent basis, Debye-Ang):
   XX=           -223.8132   YY=           -233.0831   ZZ=           -256.0986
   XY=             -0.6063   XZ=             -3.3827   YZ=              1.9027

 Normal termination of Gaussian 16 at Tue Jul 30 22:26:09 2019.
