 Gaussian 16, Revision A.03,
 Gaussian 16:  ES64L-G16RevA.03 25-Dec-2016

 ---------------------------------
 # td=(NStates=1) B3LYP/6-31G(d,p)
 ---------------------------------

 --
 TD
 --
 Symbolic Z-matrix:
 Charge =  0 Multiplicity = 1

                         Standard orientation:
 ---------------------------------------------------------------------
 Center     Atomic      Atomic             Coordinates (Angstroms)
 Number     Number       Type             X           Y           Z
 ---------------------------------------------------------------------
      1          6           0       12.117914    0.482378   -0.694448
      2          6           0      -12.161707   -0.199918    0.817037
      3          6           0       13.362157   -0.456502   -0.591003
      4          6           0      -13.159046    0.946015    1.194542
      5          6           0       13.047910   -1.981840   -0.500497
      6          6           0      -13.537964    1.895658    0.068232
      7          6           0       11.126577   -0.067512    0.293353
      8          6           0      -11.041187    0.401669   -0.107995
      9          6           0       12.268331   -2.287482    0.690351
     10          6           0      -12.219256    2.607021   -0.392289
     11          6           0       11.090394   -1.287996    0.865601
     12          6           0      -11.063012    1.693085   -0.635476
     13          6           0       11.543489    0.436225   -2.161742
     14          6           0       12.591444    1.875233   -0.430937
     15          6           0      -13.012848   -1.107630   -0.012762
     16          6           0      -11.705821   -1.017295    2.080496
     17          6           0        9.925691    0.788074    0.399666
     18          6           0       -9.913968   -0.604584   -0.394715
     19          6           0       10.005086   -1.553922    1.878281
     20          6           0       -9.979784    2.300704   -1.583244
     21          6           0        8.607957    0.533130    0.168357
     22          6           0       -8.598012   -0.336379   -0.181547
     23          6           0        7.434503    1.387185    0.246883
     24          6           0       -7.433197   -1.349862   -0.458057
     25          6           0        7.690877    2.870506    0.440312
     26          6           0       -7.789418   -2.740877   -0.694795
     27          6           0        6.251132    0.788269    0.316008
     28          6           0       -6.181696   -0.922029   -0.277005
     29          6           0        4.942590    1.402402    0.320926
     30          6           0       -4.902935   -1.585037   -0.299634
     31          6           0        3.785271    0.727929    0.237688
     32          6           0       -3.761495   -1.082926   -0.128068
     33          6           0        2.509053    1.438171    0.375643
     34          6           0       -2.508313   -1.735273   -0.314475
     35          6           0        2.312229    3.001536    0.679859
     36          6           0       -2.531831   -3.155949   -0.773020
     37          6           0        1.245957    0.779638    0.239649
     38          6           0       -1.228282   -0.983039   -0.266289
     39          6           0        1.161099   -0.640558   -0.030227
     40          6           0        0.070269   -1.429315   -0.333433
     41          1           0       14.060092   -0.253385    0.189883
     42          1           0       13.859984   -0.048257   -1.516269
     43          1           0      -12.702633    1.567948    2.086251
     44          1           0      -14.082308    0.600593    1.755909
     45          1           0       13.953847   -2.638131   -0.328697
     46          1           0       12.499345   -2.451693   -1.206271
     47          1           0      -14.196501    2.709318    0.355880
     48          1           0      -13.905171    1.486608   -0.799504
     49          1           0       12.756476   -2.209860    1.637626
     50          1           0       11.905344   -3.414573    0.621733
     51          1           0      -11.946443    3.446471    0.180959
     52          1           0      -12.350694    3.123267   -1.292668
     53          1           0       11.485428   -0.635225   -2.556301
     54          1           0       12.272052    0.969488   -3.035926
     55          1           0       10.696881    1.128067   -2.024223
     56          1           0       12.918965    1.859394    0.773195
     57          1           0       11.861075    2.663157   -0.556889
     58          1           0       13.556581    2.140757   -0.809955
     59          1           0      -13.534887   -0.505135   -0.880015
     60          1           0      -13.873700   -1.628120    0.392068
     61          1           0      -12.558109   -1.820028   -0.567072
     62          1           0      -11.068615   -0.436199    2.608785
     63          1           0      -11.010513   -1.763654    1.573585
     64          1           0      -12.519101   -1.396603    2.822884
     65          1           0       10.179767    1.785107    0.716445
     66          1           0      -10.284150   -1.496909   -0.710822
     67          1           0        9.530572   -0.658881    2.312633
     68          1           0       10.443171   -1.901939    2.913384
     69          1           0        9.265758   -2.460060    1.475648
     70          1           0       -9.675960    1.289493   -1.943392
     71          1           0       -9.375290    2.962151   -0.933717
     72          1           0      -10.384202    2.859874   -2.169400
     73          1           0        8.418559   -0.546174   -0.174465
     74          1           0       -8.330031    0.577882    0.291416
     75          1           0        8.069797    3.047923    1.591635
     76          1           0        6.742712    3.436668    0.411962
     77          1           0        8.412322    3.304078   -0.237959
     78          1           0       -8.441799   -2.777210   -1.798809
     79          1           0       -8.395001   -3.315583    0.124731
     80          1           0       -6.936605   -3.322505   -0.816684
     81          1           0        6.319781   -0.342551    0.382848
     82          1           0       -6.205451    0.092360   -0.169061
     83          1           0        5.049086    2.531726    0.333946
     84          1           0       -5.100743   -2.530601   -0.755861
     85          1           0        3.825592   -0.377901   -0.117591
     86          1           0       -3.857557   -0.098132   -0.017277
     87          1           0        2.921047    3.055645    1.558372
     88          1           0        1.258663    3.120707    0.836162
     89          1           0        2.738451    3.529598   -0.095704
     90          1           0       -2.924042   -3.162947   -1.687396
     91          1           0       -3.249421   -4.111234   -0.354101
     92          1           0       -1.578505   -3.434294   -0.868311
     93          1           0        0.438546    1.336514    0.479205
     94          1           0       -1.356781    0.171260    0.121318
     95          1           0        1.998818   -1.428701    0.099013
     96          1           0        0.244556   -2.602988   -0.530506
 ---------------------------------------------------------------------

 SCF Done:  E(RB3LYP) =  -1557.52490023     A.U. after   16 cycles

 Excitation energies and oscillator strengths:

 Excited State   1:      Singlet-A      2.2528 eV  550.35 nm  f=2.7636  <S**2>=0.000
     148 ->149         0.70251
     148 <-149        -0.10952
 This state for optimization and/or second-order correction.
 Total Energy, E(TD-HF/TD-DFT) =  -1557.44210988
 Copying the excited state density for this state as the 1-particle RhoCI density.

 The electronic state is 1-A.
 Alpha  occ. eigenvalues --  -10.21211 -10.20732 -10.20296 -10.20104 -10.20053
 Alpha  occ. eigenvalues --  -10.20026 -10.19995 -10.19992 -10.19777 -10.19703
 Alpha  occ. eigenvalues --  -10.19493 -10.19490 -10.19459 -10.19344 -10.19339
 Alpha  occ. eigenvalues --  -10.19292 -10.19028 -10.18879 -10.18845 -10.18843
 Alpha  occ. eigenvalues --  -10.18823 -10.18808 -10.18725 -10.18516 -10.18275
 Alpha  occ. eigenvalues --  -10.18179 -10.18141 -10.18094 -10.17982 -10.17930
 Alpha  occ. eigenvalues --  -10.17500 -10.17276 -10.17272 -10.16975 -10.16922
 Alpha  occ. eigenvalues --  -10.16907 -10.16371 -10.16300 -10.15956 -10.15720
 Alpha  occ. eigenvalues --   -0.85614  -0.84034  -0.83673  -0.83416  -0.81895
 Alpha  occ. eigenvalues --   -0.80961  -0.79221  -0.79055  -0.78354  -0.77895
 Alpha  occ. eigenvalues --   -0.76692  -0.75547  -0.74491  -0.72679  -0.71829
 Alpha  occ. eigenvalues --   -0.70150  -0.68931  -0.68707  -0.67963  -0.67725
 Alpha  occ. eigenvalues --   -0.67695  -0.67049  -0.66754  -0.66663  -0.65750
 Alpha  occ. eigenvalues --   -0.62923  -0.61956  -0.60035  -0.59679  -0.57572
 Alpha  occ. eigenvalues --   -0.56706  -0.55732  -0.55460  -0.54573  -0.53049
 Alpha  occ. eigenvalues --   -0.52439  -0.51890  -0.50480  -0.49454  -0.49131
 Alpha  occ. eigenvalues --   -0.48132  -0.47555  -0.47361  -0.46669  -0.46324
 Alpha  occ. eigenvalues --   -0.45550  -0.45285  -0.45090  -0.44134  -0.43844
 Alpha  occ. eigenvalues --   -0.43679  -0.43047  -0.42669  -0.42382  -0.42309
 Alpha  occ. eigenvalues --   -0.42100  -0.41749  -0.41671  -0.41428  -0.41376
 Alpha  occ. eigenvalues --   -0.40964  -0.40507  -0.40368  -0.39852  -0.39737
 Alpha  occ. eigenvalues --   -0.39473  -0.39384  -0.39113  -0.38944  -0.38458
 Alpha  occ. eigenvalues --   -0.38049  -0.37901  -0.37190  -0.36947  -0.36650
 Alpha  occ. eigenvalues --   -0.35948  -0.35648  -0.35457  -0.35217  -0.35018
 Alpha  occ. eigenvalues --   -0.34587  -0.34364  -0.34128  -0.33926  -0.33587
 Alpha  occ. eigenvalues --   -0.33558  -0.33445  -0.33177  -0.33131  -0.32883
 Alpha  occ. eigenvalues --   -0.32657  -0.31933  -0.31716  -0.31314  -0.30724
 Alpha  occ. eigenvalues --   -0.30088  -0.29973  -0.29173  -0.28750  -0.28422
 Alpha  occ. eigenvalues --   -0.27638  -0.26842  -0.25714  -0.23807  -0.22715
 Alpha  occ. eigenvalues --   -0.21009  -0.19780  -0.16381
 Alpha virt. eigenvalues --   -0.08045  -0.04645  -0.01331   0.00554   0.02653
 Alpha virt. eigenvalues --    0.03595   0.05800   0.06085   0.06644   0.07009
 Alpha virt. eigenvalues --    0.07611   0.08336   0.08431   0.08509   0.08820

 Mulliken charges:
               1
     1  C   -0.007146
     2  C   -0.005723
     3  C   -0.173994
     4  C   -0.161859
     5  C   -0.186879
     6  C   -0.183820
     7  C    0.093700
     8  C    0.034377
     9  C   -0.217616
    10  C   -0.229309
    11  C    0.066003
    12  C    0.019060
    13  C   -0.275981
    14  C   -0.298048
    15  C   -0.285581
    16  C   -0.297340
    17  C   -0.179743
    18  C   -0.150746
    19  C   -0.348115
    20  C   -0.322745
    21  C   -0.080812
    22  C   -0.084469
    23  C    0.137213
    24  C    0.112158
    25  C   -0.367215
    26  C   -0.362357
    27  C   -0.123668
    28  C   -0.124626
    29  C   -0.080256
    30  C   -0.049105
    31  C   -0.101461
    32  C   -0.071611
    33  C    0.056192
    34  C    0.067751
    35  C   -0.357802
    36  C   -0.353268
    37  C   -0.118760
    38  C   -0.107821
    39  C   -0.074034
    40  C   -0.108082
    41  H    0.094689
    42  H    0.079963
    43  H    0.063467
    44  H    0.074646
    45  H    0.084726
    46  H    0.113118
    47  H    0.088232
    48  H    0.114078
    49  H    0.112703
    50  H    0.078001
    51  H    0.105045
    52  H    0.090319
    53  H    0.105693
    54  H    0.060829
    55  H    0.114097
    56  H    0.060867
    57  H    0.104983
    58  H    0.114933
    59  H    0.071770
    60  H    0.097604
    61  H    0.099674
    62  H    0.116592
    63  H    0.093661
    64  H    0.097180
    65  H    0.078426
    66  H    0.090790
    67  H    0.131030
    68  H    0.079530
    69  H    0.084989
    70  H    0.128143
    71  H    0.109855
    72  H    0.108401
    73  H    0.071351
    74  H    0.089643
    75  H    0.102581
    76  H    0.105765
    77  H    0.125368
    78  H    0.076083
    79  H    0.111316
    80  H    0.116401
    81  H    0.074817
    82  H    0.059390
    83  H    0.077803
    84  H    0.063140
    85  H    0.098743
    86  H    0.064983
    87  H    0.128150
    88  H    0.115378
    89  H    0.135259
    90  H    0.144410
    91  H    0.080951
    92  H    0.106876
    93  H    0.082907
    94  H    0.065514
    95  H    0.081787
    96  H    0.076888
 Sum of Mulliken charges =  -0.00000

 Dipole moment (field-independent basis, Debye):
    X=              2.0504    Y=              0.9673    Z=              0.0167  Tot=              2.2672
 Quadrupole moment (field-independent basis, Debye-Ang):
   XX=           -225.4202   YY=           -232.2441   ZZ=           -254.8402
   XY=             -2.7903   XZ=              5.4074   YZ=              3.2168

 Normal termination of Gaussian 16 at Wed Jul 31 13:36:39 2019.
