 Gaussian 16, Revision A.03,
 Gaussian 16:  ES64L-G16RevA.03 25-Dec-2016

 ---------------------------------
 # td=(NStates=1) B3LYP/6-31G(d,p)
 ---------------------------------

 --
 TD
 --
 Symbolic Z-matrix:
 Charge =  0 Multiplicity = 1

                         Standard orientation:
 ---------------------------------------------------------------------
 Center     Atomic      Atomic             Coordinates (Angstroms)
 Number     Number       Type             X           Y           Z
 ---------------------------------------------------------------------
      1          6           0       12.052996   -0.549831    0.632991
      2          6           0      -12.214769    0.025008   -0.809439
      3          6           0       13.435770    0.218691    0.725600
      4          6           0      -13.020347   -1.212548   -1.148028
      5          6           0       13.226546    1.740458    0.840653
      6          6           0      -13.424797   -2.058229    0.106205
      7          6           0       11.035610    0.052129   -0.200056
      8          6           0      -10.985367   -0.434597    0.086848
      9          6           0       12.416183    2.216046   -0.457010
     10          6           0      -12.013196   -2.584188    0.593700
     11          6           0       11.063030    1.366473   -0.754386
     12          6           0      -11.090511   -1.555344    0.892792
     13          6           0       11.563860   -0.721994    2.150371
     14          6           0       12.374321   -1.982062    0.124559
     15          6           0      -12.913400    1.139695   -0.122373
     16          6           0      -11.618584    0.544790   -2.171851
     17          6           0        9.807473   -0.874857   -0.482945
     18          6           0       -9.853358    0.547789    0.157471
     19          6           0       10.212778    1.919931   -1.769409
     20          6           0      -10.003093   -1.821965    2.014148
     21          6           0        8.513537   -0.424624   -0.283660
     22          6           0       -8.558756    0.343609    0.139901
     23          6           0        7.390223   -1.396099   -0.400177
     24          6           0       -7.495106    1.360634    0.139550
     25          6           0        7.671040   -2.714318   -0.953698
     26          6           0       -7.884971    2.815727    0.400402
     27          6           0        6.205688   -0.799360   -0.294217
     28          6           0       -6.198352    0.956552    0.157379
     29          6           0        4.829677   -1.375050   -0.373079
     30          6           0       -5.048301    1.659248    0.295660
     31          6           0        3.704433   -0.800383   -0.180625
     32          6           0       -3.764809    1.193363    0.221740
     33          6           0        2.394482   -1.303269   -0.330474
     34          6           0       -2.516959    1.706631    0.370605
     35          6           0        2.248881   -2.714859   -0.717339
     36          6           0       -2.566886    3.238191    0.609326
     37          6           0        1.293304   -0.643234   -0.051467
     38          6           0       -1.335817    0.998153    0.370870
     39          6           0        1.110524    0.683944    0.224006
     40          6           0       -0.001062    1.586954    0.347354
     41          1           0       14.099265    0.249856   -0.291260
     42          1           0       14.202564   -0.081287    1.446458
     43          1           0      -12.486812   -1.899328   -1.802408
     44          1           0      -13.969722   -0.899750   -1.814421
     45          1           0       14.180062    2.187678    0.830574
     46          1           0       12.637611    2.012456    1.734804
     47          1           0      -14.159103   -2.862844    0.021473
     48          1           0      -13.874280   -1.588669    0.995422
     49          1           0       13.118671    2.332841   -1.399493
     50          1           0       12.229867    3.144157   -0.285450
     51          1           0      -11.576616   -3.309062   -0.205020
     52          1           0      -12.106081   -3.222616    1.570399
     53          1           0       11.239279    0.217020    2.689382
     54          1           0       12.364109   -1.261748    2.809071
     55          1           0       10.703099   -1.298319    1.932461
     56          1           0       12.568471   -2.073331   -0.884404
     57          1           0       11.523638   -2.788736    0.172643
     58          1           0       13.362805   -2.449135    0.648699
     59          1           0      -13.304714    0.849578    0.822000
     60          1           0      -13.646941    1.380506   -0.906291
     61          1           0      -12.302332    2.123384   -0.132481
     62          1           0      -10.910305   -0.155266   -2.456112
     63          1           0      -11.131783    1.561654   -2.081547
     64          1           0      -12.489790    0.612399   -2.805055
     65          1           0        9.779080   -2.042035   -0.554651
     66          1           0      -10.231081    1.585280    0.345878
     67          1           0        9.246497    1.370728   -2.114737
     68          1           0       10.858908    2.337823   -2.756936
     69          1           0        9.791684    2.981714   -1.362234
     70          1           0       -9.265411   -0.940392    2.138884
     71          1           0       -9.607665   -2.664071    1.666344
     72          1           0      -10.402645   -2.253279    2.907272
     73          1           0        8.413113    0.544043    0.082671
     74          1           0       -8.364832   -0.828262    0.146410
     75          1           0        8.172606   -2.773720   -1.925302
     76          1           0        6.762397   -3.293329   -0.996698
     77          1           0        8.357051   -3.309985   -0.321415
     78          1           0       -8.460404    2.722615    1.387726
     79          1           0       -8.660641    3.149688   -0.322311
     80          1           0       -7.046182    3.624717    0.343588
     81          1           0        6.085600    0.277118    0.208756
     82          1           0       -6.003074   -0.193901    0.161835
     83          1           0        4.887472   -2.332677   -0.804275
     84          1           0       -5.112900    2.752315    0.413953
     85          1           0        3.752297    0.256021    0.112680
     86          1           0       -3.726484    0.219660    0.010007
     87          1           0        2.883841   -3.097709   -1.615859
     88          1           0        1.186786   -3.210232   -0.832004
     89          1           0        2.736087   -3.278697   -0.012927
     90          1           0       -2.859966    3.479994    1.622746
     91          1           0       -3.275715    3.847190   -0.017558
     92          1           0       -1.547252    3.739115    0.695475
     93          1           0        0.447863   -1.254243   -0.452064
     94          1           0       -1.554599   -0.140261    0.098725
     95          1           0        2.156263    1.209834    0.138828
     96          1           0        0.078863    2.650281    0.386372
 ---------------------------------------------------------------------

 SCF Done:  E(RB3LYP) =  -1557.59734980     A.U. after   15 cycles

 Excitation energies and oscillator strengths:

 Excited State   1:      Singlet-A      2.1952 eV  564.78 nm  f=3.0282  <S**2>=0.000
     148 ->149         0.69687
     148 <-149        -0.11318
 This state for optimization and/or second-order correction.
 Total Energy, E(TD-HF/TD-DFT) =  -1557.51667598
 Copying the excited state density for this state as the 1-particle RhoCI density.

 The electronic state is 1-A.
 Alpha  occ. eigenvalues --  -10.20686 -10.20640 -10.20485 -10.20399 -10.20362
 Alpha  occ. eigenvalues --  -10.20229 -10.20200 -10.19993 -10.19971 -10.19880
 Alpha  occ. eigenvalues --  -10.19859 -10.19630 -10.19582 -10.19405 -10.19389
 Alpha  occ. eigenvalues --  -10.19349 -10.19175 -10.18926 -10.18886 -10.18871
 Alpha  occ. eigenvalues --  -10.18670 -10.18579 -10.18491 -10.18435 -10.18405
 Alpha  occ. eigenvalues --  -10.18288 -10.18256 -10.18226 -10.18143 -10.18117
 Alpha  occ. eigenvalues --  -10.18092 -10.18084 -10.17953 -10.17930 -10.17833
 Alpha  occ. eigenvalues --  -10.17642 -10.17415 -10.16850 -10.16654 -10.16491
 Alpha  occ. eigenvalues --   -0.85313  -0.84935  -0.84154  -0.83749  -0.82873
 Alpha  occ. eigenvalues --   -0.81795  -0.79118  -0.78977  -0.77748  -0.77359
 Alpha  occ. eigenvalues --   -0.76326  -0.75596  -0.74242  -0.72348  -0.72152
 Alpha  occ. eigenvalues --   -0.70505  -0.69928  -0.68476  -0.68228  -0.67844
 Alpha  occ. eigenvalues --   -0.67104  -0.66924  -0.66619  -0.66323  -0.66141
 Alpha  occ. eigenvalues --   -0.63336  -0.61963  -0.60496  -0.58672  -0.57539
 Alpha  occ. eigenvalues --   -0.56314  -0.55277  -0.54732  -0.54014  -0.53307
 Alpha  occ. eigenvalues --   -0.52973  -0.52168  -0.51256  -0.49489  -0.49026
 Alpha  occ. eigenvalues --   -0.48862  -0.47612  -0.47005  -0.46907  -0.46021
 Alpha  occ. eigenvalues --   -0.45633  -0.45251  -0.44594  -0.44213  -0.43830
 Alpha  occ. eigenvalues --   -0.43466  -0.43059  -0.42802  -0.42125  -0.41746
 Alpha  occ. eigenvalues --   -0.41656  -0.41438  -0.41364  -0.41206  -0.40829
 Alpha  occ. eigenvalues --   -0.40562  -0.40482  -0.39582  -0.39540  -0.39305
 Alpha  occ. eigenvalues --   -0.38988  -0.38898  -0.38633  -0.38172  -0.38125
 Alpha  occ. eigenvalues --   -0.37822  -0.37421  -0.37021  -0.36890  -0.36779
 Alpha  occ. eigenvalues --   -0.36468  -0.36311  -0.36019  -0.35370  -0.35270
 Alpha  occ. eigenvalues --   -0.34888  -0.34812  -0.34417  -0.34236  -0.33793
 Alpha  occ. eigenvalues --   -0.33524  -0.33295  -0.33184  -0.33119  -0.32723
 Alpha  occ. eigenvalues --   -0.32575  -0.32219  -0.32010  -0.31611  -0.31105
 Alpha  occ. eigenvalues --   -0.30259  -0.29760  -0.29424  -0.29404  -0.28793
 Alpha  occ. eigenvalues --   -0.28542  -0.27815  -0.26653  -0.24205  -0.22397
 Alpha  occ. eigenvalues --   -0.20656  -0.19317  -0.16442
 Alpha virt. eigenvalues --   -0.08454  -0.04813  -0.01835   0.00289   0.01674
 Alpha virt. eigenvalues --    0.03943   0.05512   0.07053   0.07316   0.07764
 Alpha virt. eigenvalues --    0.08013   0.08398   0.08564   0.08721   0.09223

 Mulliken charges:
               1
     1  C   -0.009513
     2  C    0.004242
     3  C   -0.155442
     4  C   -0.172294
     5  C   -0.200520
     6  C   -0.188797
     7  C    0.064911
     8  C    0.020726
     9  C   -0.208188
    10  C   -0.240150
    11  C    0.082701
    12  C    0.085045
    13  C   -0.285519
    14  C   -0.293250
    15  C   -0.278330
    16  C   -0.300773
    17  C   -0.143467
    18  C   -0.126092
    19  C   -0.358740
    20  C   -0.363012
    21  C   -0.075333
    22  C   -0.093719
    23  C    0.121393
    24  C    0.097173
    25  C   -0.399697
    26  C   -0.373350
    27  C   -0.123409
    28  C   -0.103903
    29  C   -0.084097
    30  C   -0.051310
    31  C   -0.089739
    32  C   -0.116977
    33  C    0.155082
    34  C    0.164851
    35  C   -0.393950
    36  C   -0.394707
    37  C   -0.107283
    38  C   -0.131758
    39  C   -0.096314
    40  C   -0.103196
    41  H    0.058356
    42  H    0.088700
    43  H    0.109482
    44  H    0.058405
    45  H    0.095646
    46  H    0.094500
    47  H    0.092538
    48  H    0.100679
    49  H    0.079090
    50  H    0.107666
    51  H    0.100679
    52  H    0.067670
    53  H    0.095920
    54  H    0.090410
    55  H    0.111858
    56  H    0.120128
    57  H    0.077356
    58  H    0.075782
    59  H    0.111899
    60  H    0.094920
    61  H    0.094530
    62  H    0.116319
    63  H    0.091032
    64  H    0.094186
    65  H    0.072855
    66  H    0.070298
    67  H    0.119623
    68  H    0.088130
    69  H    0.088406
    70  H    0.117869
    71  H    0.126602
    72  H    0.101826
    73  H    0.090404
    74  H    0.080346
    75  H    0.139667
    76  H    0.112870
    77  H    0.124185
    78  H    0.124220
    79  H    0.118354
    80  H    0.108526
    81  H    0.063796
    82  H    0.066549
    83  H    0.063563
    84  H    0.056954
    85  H    0.071655
    86  H    0.046931
    87  H    0.099468
    88  H    0.099730
    89  H    0.139271
    90  H    0.127271
    91  H    0.115131
    92  H    0.087119
    93  H    0.073395
    94  H    0.078396
    95  H    0.063857
    96  H    0.101685
 Sum of Mulliken charges =  -0.00000

 Dipole moment (field-independent basis, Debye):
    X=             -0.2261    Y=             -0.5634    Z=             -0.1543  Tot=              0.6264
 Quadrupole moment (field-independent basis, Debye-Ang):
   XX=           -222.6921   YY=           -232.1720   ZZ=           -256.0917
   XY=              2.2679   XZ=             -1.7692   YZ=              3.2854

 Normal termination of Gaussian 16 at Mon Jul 29 01:25:01 2019.
