 Gaussian 16, Revision A.03,
 Gaussian 16:  ES64L-G16RevA.03 25-Dec-2016

 ---------------------------------
 # td=(NStates=1) B3LYP/6-31G(d,p)
 ---------------------------------

 --
 TD
 --
 Symbolic Z-matrix:
 Charge =  0 Multiplicity = 1

                         Standard orientation:
 ---------------------------------------------------------------------
 Center     Atomic      Atomic             Coordinates (Angstroms)
 Number     Number       Type             X           Y           Z
 ---------------------------------------------------------------------
      1          6           0      -12.210489   -0.578955   -0.536596
      2          6           0       11.997213   -0.012958    1.022066
      3          6           0      -13.376062    0.322644   -0.383386
      4          6           0       12.840969   -1.271054    1.359913
      5          6           0      -12.963057    1.748176   -0.687360
      6          6           0       13.396474   -1.989990    0.118316
      7          6           0      -11.009119    0.038118    0.317731
      8          6           0       10.953994   -0.446618   -0.075018
      9          6           0      -12.188632    2.268220    0.470643
     10          6           0       12.159340   -2.581564   -0.627122
     11          6           0      -11.140645    1.355906    0.841377
     12          6           0       10.978071   -1.530720   -0.827090
     13          6           0      -11.705309   -0.831304   -2.022512
     14          6           0      -12.540640   -1.974135   -0.029721
     15          6           0       12.922867    1.119533    0.501214
     16          6           0       11.381171    0.509295    2.372249
     17          6           0       -9.853093   -0.862902    0.433000
     18          6           0        9.860167    0.530120   -0.316209
     19          6           0      -10.099213    1.974758    1.711639
     20          6           0       10.043263   -1.923679   -1.793580
     21          6           0       -8.545968   -0.550364    0.375496
     22          6           0        8.572943    0.256923   -0.318851
     23          6           0       -7.432186   -1.377494    0.472163
     24          6           0        7.485624    1.307383   -0.446796
     25          6           0       -7.536933   -2.852092    0.614988
     26          6           0        7.818773    2.777152   -0.681445
     27          6           0       -6.139443   -0.858091    0.342046
     28          6           0        6.199423    0.883229   -0.518648
     29          6           0       -4.883237   -1.462363    0.501761
     30          6           0        4.968184    1.640605   -0.584366
     31          6           0       -3.667715   -0.702210    0.204205
     32          6           0        3.767247    1.171309   -0.405404
     33          6           0       -2.348645   -1.322401    0.134108
     34          6           0        2.522007    1.892324   -0.545568
     35          6           0       -2.121569   -2.824295    0.198455
     36          6           0        2.521709    3.416300   -0.594788
     37          6           0       -1.250494   -0.524430    0.013663
     38          6           0        1.302387    1.153799   -0.389812
     39          6           0       -1.123354    0.847310   -0.162415
     40          6           0       -0.000724    1.678354   -0.306209
     41          1           0      -13.985203    0.189602    0.524661
     42          1           0      -14.089318   -0.020572   -1.159349
     43          1           0       12.459043   -1.988822    2.012277
     44          1           0       13.788210   -0.753035    1.989812
     45          1           0      -13.848415    2.540784   -0.810336
     46          1           0      -12.444185    1.621050   -1.518400
     47          1           0       14.005545   -2.840517    0.495302
     48          1           0       13.883986   -1.284005   -0.407105
     49          1           0      -12.911321    2.146589    1.519470
     50          1           0      -11.876548    3.269262    0.316427
     51          1           0       11.599562   -3.333311    0.194508
     52          1           0       12.472917   -3.143811   -1.710430
     53          1           0      -11.083858   -0.016415   -2.495010
     54          1           0      -12.490985   -1.088140   -2.786448
     55          1           0      -11.141034   -1.794770   -1.941443
     56          1           0      -12.827066   -1.793752    1.162757
     57          1           0      -11.757399   -2.752110   -0.207902
     58          1           0      -13.277078   -2.426485   -0.506367
     59          1           0       13.541093    0.869800   -0.536133
     60          1           0       13.784021    1.201921    1.253335
     61          1           0       12.412395    2.076652    0.254077
     62          1           0       10.698608   -0.292605    2.780560
     63          1           0       10.884928    1.452618    2.341448
     64          1           0       12.244168    0.772071    3.077429
     65          1           0      -10.134510   -1.892856    0.422820
     66          1           0       10.299775    1.587272   -0.212335
     67          1           0       -9.328031    1.164895    2.204789
     68          1           0      -10.421650    2.576214    2.479477
     69          1           0       -9.584974    2.687843    1.267174
     70          1           0        9.411572   -1.219073   -2.229430
     71          1           0        9.419785   -2.589446   -1.359879
     72          1           0       10.456254   -2.569136   -2.576561
     73          1           0       -8.397328    0.533823    0.206879
     74          1           0        8.283947   -0.752400   -0.170299
     75          1           0       -7.797310   -3.124404    1.640168
     76          1           0       -6.536621   -3.291699    0.378522
     77          1           0       -8.288065   -3.141484   -0.053183
     78          1           0        8.484101    2.845496   -1.622673
     79          1           0        8.597880    3.070970   -0.052116
     80          1           0        7.057205    3.638966   -0.518840
     81          1           0       -5.980680    0.169927    0.143207
     82          1           0        6.101874   -0.289848   -0.513676
     83          1           0       -4.658206   -2.409796    0.924454
     84          1           0        5.186189    2.865995   -0.489631
     85          1           0       -3.694848    0.389776   -0.047706
     86          1           0        3.728435    0.131945   -0.368941
     87          1           0       -2.599885   -3.259313    1.200546
     88          1           0       -1.022299   -3.185752    0.174559
     89          1           0       -2.672893   -3.533070   -0.607084
     90          1           0        3.165789    3.547346   -1.521961
     91          1           0        2.910116    4.003500    0.261517
     92          1           0        1.673368    4.003673   -0.823911
     93          1           0       -0.211528   -1.154321    0.269472
     94          1           0        1.515672    0.007709   -0.124325
     95          1           0       -2.169159    1.370892   -0.168555
     96          1           0       -0.167836    2.721305   -0.468428
 ---------------------------------------------------------------------

 SCF Done:  E(RB3LYP) =  -1557.60297123     A.U. after   16 cycles

 Excitation energies and oscillator strengths:

 Excited State   1:      Singlet-A      1.9651 eV  630.94 nm  f=3.0531  <S**2>=0.000
     148 ->149         0.71313
     148 <-149        -0.14104
 This state for optimization and/or second-order correction.
 Total Energy, E(TD-HF/TD-DFT) =  -1557.53075664
 Copying the excited state density for this state as the 1-particle RhoCI density.

 The electronic state is 1-A.
 Alpha  occ. eigenvalues --  -10.21396 -10.20987 -10.20899 -10.20633 -10.20436
 Alpha  occ. eigenvalues --  -10.20297 -10.20112 -10.19972 -10.19662 -10.19589
 Alpha  occ. eigenvalues --  -10.19578 -10.19405 -10.19392 -10.19285 -10.19194
 Alpha  occ. eigenvalues --  -10.19173 -10.19116 -10.19116 -10.18954 -10.18906
 Alpha  occ. eigenvalues --  -10.18898 -10.18548 -10.18428 -10.18382 -10.18344
 Alpha  occ. eigenvalues --  -10.18328 -10.18249 -10.18077 -10.17931 -10.17784
 Alpha  occ. eigenvalues --  -10.17775 -10.17659 -10.17634 -10.17579 -10.17537
 Alpha  occ. eigenvalues --  -10.17439 -10.17293 -10.17264 -10.16585 -10.15503
 Alpha  occ. eigenvalues --   -0.85693  -0.84909  -0.83205  -0.82814  -0.82088
 Alpha  occ. eigenvalues --   -0.80896  -0.79571  -0.79365  -0.78453  -0.77513
 Alpha  occ. eigenvalues --   -0.76530  -0.75248  -0.74277  -0.72897  -0.72483
 Alpha  occ. eigenvalues --   -0.69546  -0.68968  -0.68577  -0.68415  -0.68038
 Alpha  occ. eigenvalues --   -0.67294  -0.66984  -0.66964  -0.65724  -0.65335
 Alpha  occ. eigenvalues --   -0.63073  -0.61392  -0.59887  -0.58908  -0.57145
 Alpha  occ. eigenvalues --   -0.56757  -0.56018  -0.55212  -0.53952  -0.52773
 Alpha  occ. eigenvalues --   -0.52616  -0.51619  -0.50354  -0.49936  -0.49296
 Alpha  occ. eigenvalues --   -0.48261  -0.47728  -0.47060  -0.46721  -0.45762
 Alpha  occ. eigenvalues --   -0.45527  -0.45005  -0.44906  -0.44570  -0.44002
 Alpha  occ. eigenvalues --   -0.43108  -0.42974  -0.42781  -0.42459  -0.42315
 Alpha  occ. eigenvalues --   -0.42089  -0.41871  -0.41384  -0.40914  -0.40528
 Alpha  occ. eigenvalues --   -0.40420  -0.39877  -0.39642  -0.39501  -0.39239
 Alpha  occ. eigenvalues --   -0.39073  -0.38788  -0.38241  -0.38205  -0.37997
 Alpha  occ. eigenvalues --   -0.37857  -0.37225  -0.37030  -0.36958  -0.36735
 Alpha  occ. eigenvalues --   -0.36710  -0.36450  -0.36139  -0.35624  -0.35206
 Alpha  occ. eigenvalues --   -0.35186  -0.34852  -0.34672  -0.34275  -0.33896
 Alpha  occ. eigenvalues --   -0.33846  -0.33084  -0.32864  -0.32825  -0.32747
 Alpha  occ. eigenvalues --   -0.32378  -0.31670  -0.31329  -0.31297  -0.31154
 Alpha  occ. eigenvalues --   -0.30907  -0.30766  -0.30301  -0.29344  -0.28894
 Alpha  occ. eigenvalues --   -0.27838  -0.27374  -0.26271  -0.24069  -0.22399
 Alpha  occ. eigenvalues --   -0.20862  -0.18549  -0.15563
 Alpha virt. eigenvalues --   -0.08641  -0.04826  -0.01551   0.00777   0.02955
 Alpha virt. eigenvalues --    0.04452   0.05891   0.06316   0.06434   0.07149
 Alpha virt. eigenvalues --    0.07480   0.07783   0.08023   0.08471   0.09370

 Mulliken charges:
               1
     1  C   -0.006183
     2  C   -0.002904
     3  C   -0.177211
     4  C   -0.166138
     5  C   -0.170317
     6  C   -0.168217
     7  C    0.060534
     8  C    0.052906
     9  C   -0.197603
    10  C   -0.207223
    11  C    0.078232
    12  C    0.092571
    13  C   -0.304248
    14  C   -0.289073
    15  C   -0.290335
    16  C   -0.293587
    17  C   -0.128305
    18  C   -0.134893
    19  C   -0.369712
    20  C   -0.379786
    21  C   -0.091992
    22  C   -0.087355
    23  C    0.113539
    24  C    0.119984
    25  C   -0.371111
    26  C   -0.381549
    27  C   -0.115648
    28  C   -0.133202
    29  C   -0.083688
    30  C   -0.069999
    31  C   -0.134200
    32  C   -0.088428
    33  C    0.138802
    34  C    0.091201
    35  C   -0.370145
    36  C   -0.374235
    37  C   -0.108251
    38  C   -0.108327
    39  C   -0.083941
    40  C   -0.094420
    41  H    0.090357
    42  H    0.080170
    43  H    0.101114
    44  H    0.040208
    45  H    0.065142
    46  H    0.114915
    47  H    0.093836
    48  H    0.112821
    49  H    0.072097
    50  H    0.104715
    51  H    0.074469
    52  H    0.067559
    53  H    0.103828
    54  H    0.093433
    55  H    0.097871
    56  H    0.074937
    57  H    0.090914
    58  H    0.109641
    59  H    0.074116
    60  H    0.098521
    61  H    0.104963
    62  H    0.101687
    63  H    0.105439
    64  H    0.090786
    65  H    0.068792
    66  H    0.067407
    67  H    0.097795
    68  H    0.106169
    69  H    0.125528
    70  H    0.128458
    71  H    0.130779
    72  H    0.097383
    73  H    0.079642
    74  H    0.088735
    75  H    0.121062
    76  H    0.106989
    77  H    0.120886
    78  H    0.114428
    79  H    0.122524
    80  H    0.110925
    81  H    0.072381
    82  H    0.056924
    83  H    0.084943
    84  H    0.056123
    85  H    0.084781
    86  H    0.077713
    87  H    0.098677
    88  H    0.110014
    89  H    0.106429
    90  H    0.114623
    91  H    0.122370
    92  H    0.115424
    93  H    0.056194
    94  H    0.073352
    95  H    0.064269
    96  H    0.089197
 Sum of Mulliken charges =  -0.00000

 Dipole moment (field-independent basis, Debye):
    X=             -0.0892    Y=              0.3958    Z=              0.0629  Tot=              0.4106
 Quadrupole moment (field-independent basis, Debye-Ang):
   XX=           -217.6201   YY=           -230.0899   ZZ=           -256.6900
   XY=             -2.4077   XZ=              5.9327   YZ=              0.3030

 Normal termination of Gaussian 16 at Wed Jul 31 16:08:39 2019.
