 Gaussian 16, Revision A.03,
 Gaussian 16:  ES64L-G16RevA.03 25-Dec-2016

 ---------------------------------
 # td=(NStates=1) B3LYP/6-31G(d,p)
 ---------------------------------

 --
 TD
 --
 Symbolic Z-matrix:
 Charge =  0 Multiplicity = 1

                         Standard orientation:
 ---------------------------------------------------------------------
 Center     Atomic      Atomic             Coordinates (Angstroms)
 Number     Number       Type             X           Y           Z
 ---------------------------------------------------------------------
      1          6           0      -12.104033   -0.601693   -0.724428
      2          6           0       12.115912   -0.020933    0.887888
      3          6           0      -13.389068    0.343913   -0.633287
      4          6           0       12.994179   -1.223398    1.223437
      5          6           0      -13.123714    1.780952   -0.399227
      6          6           0       13.388608   -2.149284    0.023486
      7          6           0      -10.990073    0.007384    0.173576
      8          6           0       10.965180   -0.415764    0.004389
      9          6           0      -12.106421    2.127777    0.774815
     10          6           0       12.105140   -2.596768   -0.675107
     11          6           0      -10.954461    1.117133    0.912561
     12          6           0       10.953884   -1.543774   -0.788685
     13          6           0      -11.612139   -0.672828   -2.188060
     14          6           0      -12.542398   -1.946429   -0.141423
     15          6           0       12.889575    1.096331    0.183796
     16          6           0       11.517000    0.438148    2.234822
     17          6           0       -9.712024   -0.903200    0.277708
     18          6           0        9.888944    0.656040   -0.122560
     19          6           0      -10.055555    1.557994    1.993131
     20          6           0        9.806308   -2.050960   -1.719843
     21          6           0       -8.486855   -0.483395    0.253125
     22          6           0        8.578190    0.313119   -0.236337
     23          6           0       -7.341364   -1.288956    0.388206
     24          6           0        7.438836    1.367980   -0.306674
     25          6           0       -7.507895   -2.754181    0.818685
     26          6           0        7.768620    2.894148   -0.369429
     27          6           0       -6.075661   -0.720028    0.204469
     28          6           0        6.094202    0.919338   -0.195963
     29          6           0       -4.799607   -1.380926    0.307944
     30          6           0        4.908275    1.718268   -0.298935
     31          6           0       -3.591627   -0.702918    0.167246
     32          6           0        3.696493    1.190957   -0.444145
     33          6           0       -2.345717   -1.304540    0.260869
     34          6           0        2.418858    1.857625   -0.499090
     35          6           0       -2.145390   -2.784997    0.605289
     36          6           0        2.529557    3.339395   -0.767219
     37          6           0       -1.218066   -0.545128    0.014138
     38          6           0        1.246563    1.171295   -0.405627
     39          6           0       -1.172734    0.812988   -0.352515
     40          6           0       -0.086715    1.692253   -0.526426
     41          1           0      -14.091318    0.154417    0.268928
     42          1           0      -14.072851    0.240472   -1.596488
     43          1           0       12.347258   -1.999087    1.874302
     44          1           0       13.794932   -0.868547    1.787717
     45          1           0      -14.068345    2.277204   -0.210181
     46          1           0      -12.928076    2.133551   -1.423929
     47          1           0       13.934094   -3.038571    0.498072
     48          1           0       13.946403   -1.656897   -0.692638
     49          1           0      -12.587896    2.200091    1.764368
     50          1           0      -11.775028    3.252314    0.544737
     51          1           0       11.619664   -3.520804   -0.236634
     52          1           0       12.371153   -2.922933   -1.674449
     53          1           0      -11.508349    0.348991   -2.663865
     54          1           0      -12.280640   -1.093206   -2.942810
     55          1           0      -10.622027   -1.122995   -2.298609
     56          1           0      -12.783755   -1.981175    0.943407
     57          1           0      -11.548021   -2.723316   -0.378965
     58          1           0      -13.251967   -2.348187   -0.867126
     59          1           0       13.365861    0.896118   -0.850272
     60          1           0       13.804256    1.432832    0.750833
     61          1           0       12.231502    2.040511   -0.251917
     62          1           0       11.191810   -0.378224    2.700266
     63          1           0       10.844098    1.413122    1.989713
     64          1           0       12.460814    0.647545    2.707757
     65          1           0       -9.980769   -2.023366    0.186211
     66          1           0       10.130144    1.808499   -0.203367
     67          1           0       -9.405902    0.613169    2.184181
     68          1           0      -10.526607    2.021035    2.963214
     69          1           0       -9.309337    2.404170    1.831330
     70          1           0        8.944231   -1.227107   -1.817207
     71          1           0        9.384809   -3.162933   -1.578398
     72          1           0       10.455576   -2.071913   -2.700793
     73          1           0       -8.487916    0.720347    0.182284
     74          1           0        7.914970   -0.661771   -0.038460
     75          1           0       -8.093106   -2.862994    1.775140
     76          1           0       -6.598623   -3.362151    0.920159
     77          1           0       -8.063487   -3.186912   -0.136910
     78          1           0        8.237552    3.064094   -1.357893
     79          1           0        8.446605    3.193263    0.536534
     80          1           0        6.899028    3.702576   -0.317358
     81          1           0       -5.927678    0.324785    0.015036
     82          1           0        6.107941   -0.079143   -0.215666
     83          1           0       -4.780068   -2.497027    0.361317
     84          1           0        5.009996    2.813021   -0.346094
     85          1           0       -3.721267    0.406430    0.235140
     86          1           0        3.662724    0.205574   -0.318140
     87          1           0       -2.427551   -2.751016    1.680299
     88          1           0       -1.126130   -3.257136    0.498819
     89          1           0       -2.959973   -3.671146    0.033407
     90          1           0        2.959741    3.671628   -1.748647
     91          1           0        2.916831    3.711630    0.192079
     92          1           0        1.439410    3.718710   -0.606149
     93          1           0       -0.098643   -0.961391    0.118699
     94          1           0        1.196614    0.107418   -0.157785
     95          1           0       -2.016491    1.344091   -0.370706
     96          1           0       -0.233034    2.684688   -1.030084
 ---------------------------------------------------------------------

 SCF Done:  E(RB3LYP) =  -1557.59634976     A.U. after   15 cycles

 Excitation energies and oscillator strengths:

 Excited State   1:      Singlet-A      2.1431 eV  578.53 nm  f=2.9204  <S**2>=0.000
     148 ->149         0.70559
     148 <-149        -0.11187
 This state for optimization and/or second-order correction.
 Total Energy, E(TD-HF/TD-DFT) =  -1557.51759267
 Copying the excited state density for this state as the 1-particle RhoCI density.

 The electronic state is 1-A.
 Alpha  occ. eigenvalues --  -10.21311 -10.21177 -10.20721 -10.20460 -10.20360
 Alpha  occ. eigenvalues --  -10.20346 -10.20237 -10.20168 -10.20002 -10.19848
 Alpha  occ. eigenvalues --  -10.19833 -10.19557 -10.19502 -10.19480 -10.19419
 Alpha  occ. eigenvalues --  -10.19247 -10.19203 -10.19200 -10.19191 -10.19156
 Alpha  occ. eigenvalues --  -10.19066 -10.19025 -10.18881 -10.18751 -10.18729
 Alpha  occ. eigenvalues --  -10.18720 -10.18677 -10.18492 -10.18467 -10.18317
 Alpha  occ. eigenvalues --  -10.18252 -10.18197 -10.18149 -10.18076 -10.17856
 Alpha  occ. eigenvalues --  -10.17853 -10.17666 -10.17294 -10.16854 -10.16530
 Alpha  occ. eigenvalues --   -0.84769  -0.84480  -0.83705  -0.82890  -0.81987
 Alpha  occ. eigenvalues --   -0.80402  -0.78705  -0.78280  -0.77898  -0.77079
 Alpha  occ. eigenvalues --   -0.76289  -0.74948  -0.73918  -0.71793  -0.71043
 Alpha  occ. eigenvalues --   -0.69453  -0.68260  -0.68158  -0.67798  -0.67702
 Alpha  occ. eigenvalues --   -0.67374  -0.66532  -0.66175  -0.65953  -0.65641
 Alpha  occ. eigenvalues --   -0.62428  -0.61220  -0.59263  -0.58310  -0.56822
 Alpha  occ. eigenvalues --   -0.56378  -0.55782  -0.55015  -0.53960  -0.53037
 Alpha  occ. eigenvalues --   -0.51816  -0.51286  -0.50164  -0.49129  -0.48470
 Alpha  occ. eigenvalues --   -0.47932  -0.47211  -0.47036  -0.46299  -0.45933
 Alpha  occ. eigenvalues --   -0.45484  -0.44983  -0.44522  -0.44077  -0.43539
 Alpha  occ. eigenvalues --   -0.43313  -0.42817  -0.42795  -0.41925  -0.41809
 Alpha  occ. eigenvalues --   -0.41603  -0.41265  -0.41082  -0.40942  -0.40868
 Alpha  occ. eigenvalues --   -0.40526  -0.40348  -0.40275  -0.39473  -0.39075
 Alpha  occ. eigenvalues --   -0.38490  -0.38317  -0.38256  -0.38052  -0.37841
 Alpha  occ. eigenvalues --   -0.37583  -0.37235  -0.36807  -0.36649  -0.35975
 Alpha  occ. eigenvalues --   -0.35643  -0.35569  -0.35247  -0.34869  -0.34830
 Alpha  occ. eigenvalues --   -0.34471  -0.34404  -0.33935  -0.33908  -0.33799
 Alpha  occ. eigenvalues --   -0.33270  -0.33203  -0.33083  -0.32959  -0.32557
 Alpha  occ. eigenvalues --   -0.32402  -0.32000  -0.31613  -0.31459  -0.30991
 Alpha  occ. eigenvalues --   -0.30422  -0.29959  -0.29408  -0.28739  -0.28455
 Alpha  occ. eigenvalues --   -0.27769  -0.26878  -0.26477  -0.24142  -0.22875
 Alpha  occ. eigenvalues --   -0.21209  -0.18936  -0.16071
 Alpha virt. eigenvalues --   -0.08166  -0.04722  -0.01656   0.01020   0.02527
 Alpha virt. eigenvalues --    0.04189   0.05774   0.06141   0.06401   0.07183
 Alpha virt. eigenvalues --    0.07580   0.07760   0.07789   0.08330   0.08934

 Mulliken charges:
               1
     1  C    0.016217
     2  C   -0.019116
     3  C   -0.173224
     4  C   -0.178368
     5  C   -0.190120
     6  C   -0.184422
     7  C    0.070143
     8  C    0.084180
     9  C   -0.222278
    10  C   -0.220088
    11  C    0.081427
    12  C    0.051958
    13  C   -0.318906
    14  C   -0.273378
    15  C   -0.297663
    16  C   -0.263535
    17  C   -0.147302
    18  C   -0.161391
    19  C   -0.374532
    20  C   -0.340820
    21  C   -0.075626
    22  C   -0.092302
    23  C    0.090444
    24  C    0.080775
    25  C   -0.357090
    26  C   -0.371796
    27  C   -0.118747
    28  C   -0.114020
    29  C   -0.076998
    30  C   -0.072001
    31  C   -0.126278
    32  C   -0.073913
    33  C    0.119468
    34  C    0.089920
    35  C   -0.348219
    36  C   -0.377861
    37  C   -0.120873
    38  C   -0.090717
    39  C   -0.060844
    40  C   -0.127644
    41  H    0.076309
    42  H    0.070051
    43  H    0.072347
    44  H    0.089222
    45  H    0.090488
    46  H    0.091305
    47  H    0.088324
    48  H    0.109738
    49  H    0.102347
    50  H    0.085438
    51  H    0.098039
    52  H    0.096480
    53  H    0.102209
    54  H    0.101326
    55  H    0.113316
    56  H    0.118841
    57  H    0.048082
    58  H    0.111263
    59  H    0.096757
    60  H    0.093687
    61  H    0.079789
    62  H    0.115172
    63  H    0.091589
    64  H    0.091742
    65  H    0.070215
    66  H    0.100592
    67  H    0.112645
    68  H    0.096097
    69  H    0.109876
    70  H    0.112758
    71  H    0.101891
    72  H    0.096590
    73  H    0.088047
    74  H    0.095295
    75  H    0.124795
    76  H    0.112485
    77  H    0.106746
    78  H    0.124010
    79  H    0.106950
    80  H    0.098056
    81  H    0.074068
    82  H    0.059284
    83  H    0.075045
    84  H    0.074579
    85  H    0.091250
    86  H    0.058489
    87  H    0.132523
    88  H    0.118059
    89  H    0.068475
    90  H    0.128239
    91  H    0.131301
    92  H    0.087617
    93  H    0.068512
    94  H    0.067680
    95  H    0.066748
    96  H    0.092759
 Sum of Mulliken charges =  -0.00000

 Dipole moment (field-independent basis, Debye):
    X=              0.1084    Y=             -0.2538    Z=              0.1554  Tot=              0.3167
 Quadrupole moment (field-independent basis, Debye-Ang):
   XX=           -211.8725   YY=           -236.2660   ZZ=           -254.2029
   XY=             -2.8032   XZ=             -1.4392   YZ=             -2.3751

 Normal termination of Gaussian 16 at Thu Aug  1 00:01:24 2019.
