 Gaussian 16, Revision A.03,
 Gaussian 16:  ES64L-G16RevA.03 25-Dec-2016

 ---------------------------------
 # td=(NStates=1) B3LYP/6-31G(d,p)
 ---------------------------------

 --
 TD
 --
 Symbolic Z-matrix:
 Charge =  0 Multiplicity = 1

                         Standard orientation:
 ---------------------------------------------------------------------
 Center     Atomic      Atomic             Coordinates (Angstroms)
 Number     Number       Type             X           Y           Z
 ---------------------------------------------------------------------
      1          6           0       12.246083    0.750990   -0.676070
      2          6           0      -12.154024   -0.061861    0.874444
      3          6           0       13.495620   -0.103038   -0.438315
      4          6           0      -12.931472    1.082729    1.409386
      5          6           0       13.401398   -1.629057   -0.612632
      6          6           0      -13.484439    2.010194    0.187400
      7          6           0       11.031919    0.007611    0.180847
      8          6           0      -10.961857    0.402272   -0.210329
      9          6           0       12.346259   -2.147340    0.501777
     10          6           0      -12.220546    2.672044   -0.393760
     11          6           0       11.076676   -1.290907    0.668181
     12          6           0      -11.073182    1.723996   -0.665323
     13          6           0       11.857405    0.762661   -2.125811
     14          6           0       12.523285    2.184849   -0.181274
     15          6           0      -13.010565   -0.994964   -0.012811
     16          6           0      -11.606920   -0.755579    2.138129
     17          6           0        9.895755    0.796357    0.433882
     18          6           0       -9.952977   -0.549786   -0.371189
     19          6           0       10.215461   -1.857215    1.817445
     20          6           0      -10.089149    2.162311   -1.686963
     21          6           0        8.624502    0.444170    0.204163
     22          6           0       -8.667619   -0.282571   -0.224775
     23          6           0        7.389305    1.178747    0.404412
     24          6           0       -7.604655   -1.255032   -0.424370
     25          6           0        7.541189    2.648951    0.739789
     26          6           0       -7.970111   -2.636162   -0.804609
     27          6           0        6.269501    0.657405    0.228105
     28          6           0       -6.341366   -0.789214   -0.240281
     29          6           0        4.967441    1.213580    0.343363
     30          6           0       -5.071002   -1.635111   -0.407855
     31          6           0        3.788865    0.469215    0.200745
     32          6           0       -3.822894   -1.025928   -0.281894
     33          6           0        2.455892    1.175349    0.278428
     34          6           0       -2.602979   -1.751152   -0.422101
     35          6           0        2.385882    2.628444    0.526986
     36          6           0       -2.627764   -3.234362   -0.738647
     37          6           0        1.300683    0.448284    0.172464
     38          6           0       -1.340010   -1.126861   -0.139217
     39          6           0        1.088807   -0.962138   -0.067233
     40          6           0       -0.129783   -1.698207   -0.124429
     41          1           0       14.087491   -0.090045    0.533498
     42          1           0       14.339229    0.064450   -1.258677
     43          1           0      -12.375394    1.836054    2.033974
     44          1           0      -13.823935    0.396191    1.979971
     45          1           0       14.325337   -2.037707   -0.510876
     46          1           0       13.002592   -1.976069   -1.659426
     47          1           0      -14.085110    2.793718    0.419813
     48          1           0      -13.779648    1.405341   -0.682437
     49          1           0       12.789357   -2.064061    1.484439
     50          1           0       12.001802   -3.239224    0.264928
     51          1           0      -11.805109    3.491894    0.112027
     52          1           0      -12.578398    3.048594   -1.338172
     53          1           0       11.580805   -0.319788   -2.547330
     54          1           0       12.565980    0.984674   -2.638243
     55          1           0       11.046730    1.642982   -2.262799
     56          1           0       12.644109    1.961336    0.840676
     57          1           0       11.638532    2.777516   -0.498859
     58          1           0       13.242830    2.616099   -0.653653
     59          1           0      -13.313219   -0.276499   -0.721673
     60          1           0      -13.858909   -1.506289    0.466986
     61          1           0      -12.267971   -1.738157   -0.460708
     62          1           0      -11.088913   -0.144560    2.969558
     63          1           0      -11.095293   -1.787996    1.789103
     64          1           0      -12.496398   -1.071575    2.460915
     65          1           0       10.062177    1.752810    0.926506
     66          1           0      -10.265295   -1.563784   -0.676512
     67          1           0        9.445413   -1.177002    2.132928
     68          1           0       10.847717   -2.217925    2.705012
     69          1           0        9.441435   -2.748832    1.358499
     70          1           0       -9.438538    1.308540   -2.234270
     71          1           0       -9.289064    2.907858   -1.416976
     72          1           0      -10.805316    2.786309   -2.444913
     73          1           0        8.455444   -0.519475   -0.226730
     74          1           0       -8.346842    0.776335   -0.090124
     75          1           0        7.927548    2.949246    1.790035
     76          1           0        6.696512    3.365504    0.533368
     77          1           0        8.001925    3.211542    0.041466
     78          1           0       -8.411773   -2.770300   -1.964790
     79          1           0       -8.728828   -2.883278    0.014823
     80          1           0       -7.056230   -3.406678   -0.841574
     81          1           0        6.209859   -0.471125    0.170090
     82          1           0       -6.321190    0.218867    0.059457
     83          1           0        5.061627    2.368416    0.800390
     84          1           0       -5.287563   -2.558209   -0.421932
     85          1           0        4.049889   -0.566340   -0.208714
     86          1           0       -3.953551    0.109271   -0.095840
     87          1           0        2.842422    2.845745    1.572635
     88          1           0        1.278867    2.860007    0.703941
     89          1           0        2.739630    3.320183   -0.307300
     90          1           0       -3.233071   -3.381891   -1.689395
     91          1           0       -3.022675   -3.936236    0.047019
     92          1           0       -1.689334   -3.661649   -0.633705
     93          1           0        0.261472    1.137159   -0.022568
     94          1           0       -1.515375   -0.237116    0.095497
     95          1           0        1.894630   -1.596244   -0.040736
     96          1           0        0.019897   -2.790634   -0.118959
 ---------------------------------------------------------------------

 SCF Done:  E(RB3LYP) =  -1557.47858395     A.U. after   16 cycles

 Excitation energies and oscillator strengths:

 Excited State   1:      Singlet-A      2.1814 eV  568.37 nm  f=3.0293  <S**2>=0.000
     148 ->149         0.70126
     148 <-149        -0.11843
 This state for optimization and/or second-order correction.
 Total Energy, E(TD-HF/TD-DFT) =  -1557.39841860
 Copying the excited state density for this state as the 1-particle RhoCI density.

 The electronic state is 1-A.
 Alpha  occ. eigenvalues --  -10.20893 -10.20752 -10.20698 -10.20259 -10.20124
 Alpha  occ. eigenvalues --  -10.20054 -10.19898 -10.19731 -10.19720 -10.19647
 Alpha  occ. eigenvalues --  -10.19625 -10.19547 -10.19540 -10.19129 -10.19060
 Alpha  occ. eigenvalues --  -10.19000 -10.18978 -10.18756 -10.18738 -10.18732
 Alpha  occ. eigenvalues --  -10.18652 -10.18626 -10.18253 -10.18237 -10.18213
 Alpha  occ. eigenvalues --  -10.18122 -10.18044 -10.18014 -10.17928 -10.17774
 Alpha  occ. eigenvalues --  -10.17654 -10.17604 -10.17565 -10.17512 -10.17279
 Alpha  occ. eigenvalues --  -10.17186 -10.17173 -10.16935 -10.16615 -10.16229
 Alpha  occ. eigenvalues --   -0.84661  -0.84634  -0.83576  -0.83104  -0.82396
 Alpha  occ. eigenvalues --   -0.81295  -0.79095  -0.78776  -0.78457  -0.77416
 Alpha  occ. eigenvalues --   -0.76913  -0.74674  -0.73663  -0.72364  -0.71823
 Alpha  occ. eigenvalues --   -0.70140  -0.69772  -0.69462  -0.68588  -0.68099
 Alpha  occ. eigenvalues --   -0.67193  -0.66675  -0.66074  -0.65952  -0.65207
 Alpha  occ. eigenvalues --   -0.62562  -0.61720  -0.60382  -0.58905  -0.57142
 Alpha  occ. eigenvalues --   -0.56489  -0.55698  -0.54469  -0.53676  -0.53072
 Alpha  occ. eigenvalues --   -0.52096  -0.51358  -0.50747  -0.50021  -0.48919
 Alpha  occ. eigenvalues --   -0.48206  -0.47669  -0.47201  -0.46315  -0.46083
 Alpha  occ. eigenvalues --   -0.45896  -0.45380  -0.45003  -0.44616  -0.44162
 Alpha  occ. eigenvalues --   -0.43799  -0.43104  -0.42763  -0.42586  -0.42330
 Alpha  occ. eigenvalues --   -0.41994  -0.41922  -0.41848  -0.41722  -0.41641
 Alpha  occ. eigenvalues --   -0.40773  -0.40305  -0.39849  -0.39539  -0.39214
 Alpha  occ. eigenvalues --   -0.38797  -0.38500  -0.38301  -0.37880  -0.37722
 Alpha  occ. eigenvalues --   -0.37357  -0.37084  -0.37017  -0.36681  -0.36048
 Alpha  occ. eigenvalues --   -0.36001  -0.35879  -0.35540  -0.34810  -0.34588
 Alpha  occ. eigenvalues --   -0.34565  -0.34452  -0.34258  -0.34120  -0.33914
 Alpha  occ. eigenvalues --   -0.33507  -0.33378  -0.33181  -0.33109  -0.32539
 Alpha  occ. eigenvalues --   -0.32002  -0.31511  -0.31249  -0.31041  -0.30911
 Alpha  occ. eigenvalues --   -0.30726  -0.29797  -0.29628  -0.28922  -0.28819
 Alpha  occ. eigenvalues --   -0.27905  -0.26799  -0.25676  -0.23734  -0.22602
 Alpha  occ. eigenvalues --   -0.20697  -0.19277  -0.16149
 Alpha virt. eigenvalues --   -0.08216  -0.04406  -0.01755   0.00648   0.02596
 Alpha virt. eigenvalues --    0.04193   0.05817   0.06844   0.06953   0.07089
 Alpha virt. eigenvalues --    0.07319   0.08041   0.08123   0.08386   0.08707

 Mulliken charges:
               1
     1  C   -0.002630
     2  C   -0.017809
     3  C   -0.173963
     4  C   -0.145817
     5  C   -0.183666
     6  C   -0.196874
     7  C    0.043243
     8  C    0.042570
     9  C   -0.219337
    10  C   -0.242746
    11  C    0.050260
    12  C    0.065918
    13  C   -0.261558
    14  C   -0.288294
    15  C   -0.288740
    16  C   -0.274335
    17  C   -0.133760
    18  C   -0.131788
    19  C   -0.336141
    20  C   -0.353658
    21  C   -0.100026
    22  C   -0.090647
    23  C    0.172376
    24  C    0.147969
    25  C   -0.393442
    26  C   -0.366336
    27  C   -0.138888
    28  C   -0.145980
    29  C   -0.064110
    30  C   -0.052602
    31  C   -0.136268
    32  C   -0.119560
    33  C    0.119328
    34  C    0.077671
    35  C   -0.367984
    36  C   -0.363972
    37  C   -0.117411
    38  C   -0.033837
    39  C   -0.079969
    40  C   -0.109784
    41  H    0.088858
    42  H    0.061745
    43  H    0.097036
    44  H    0.050849
    45  H    0.103010
    46  H    0.077159
    47  H    0.098854
    48  H    0.106051
    49  H    0.105296
    50  H    0.085261
    51  H    0.113686
    52  H    0.103129
    53  H    0.085817
    54  H    0.113694
    55  H    0.078844
    56  H    0.112968
    57  H    0.092305
    58  H    0.114626
    59  H    0.114253
    60  H    0.091682
    61  H    0.093154
    62  H    0.098098
    63  H    0.065642
    64  H    0.110555
    65  H    0.085451
    66  H    0.089815
    67  H    0.125387
    68  H    0.106496
    69  H    0.072105
    70  H    0.106555
    71  H    0.104528
    72  H    0.068202
    73  H    0.072656
    74  H    0.084670
    75  H    0.110659
    76  H    0.091676
    77  H    0.129613
    78  H    0.097518
    79  H    0.121825
    80  H    0.095147
    81  H    0.065612
    82  H    0.068270
    83  H    0.072344
    84  H    0.064877
    85  H    0.095121
    86  H    0.083403
    87  H    0.116476
    88  H    0.103577
    89  H    0.120383
    90  H    0.115885
    91  H    0.106812
    92  H    0.108979
    93  H    0.054722
    94  H    0.052706
    95  H    0.072970
    96  H    0.085583
 Sum of Mulliken charges =  -0.00000

 Dipole moment (field-independent basis, Debye):
    X=              1.3969    Y=              0.8115    Z=              0.2422  Tot=              1.6336
 Quadrupole moment (field-independent basis, Debye-Ang):
   XX=           -210.9443   YY=           -233.0328   ZZ=           -255.2662
   XY=              1.3710   XZ=              1.7626   YZ=              2.1095

 Normal termination of Gaussian 16 at Tue Jul 23 18:40:13 2019.
