 Gaussian 16, Revision A.03,
 Gaussian 16:  ES64L-G16RevA.03 25-Dec-2016

 ---------------------------------
 # td=(NStates=1) B3LYP/6-31G(d,p)
 ---------------------------------

 --
 TD
 --
 Symbolic Z-matrix:
 Charge =  0 Multiplicity = 1

                         Standard orientation:
 ---------------------------------------------------------------------
 Center     Atomic      Atomic             Coordinates (Angstroms)
 Number     Number       Type             X           Y           Z
 ---------------------------------------------------------------------
      1          6           0       12.070857    0.614871   -0.821324
      2          6           0      -12.167642   -0.091015    0.875842
      3          6           0       13.415678   -0.181126   -0.742926
      4          6           0      -13.055406    1.177651    1.148854
      5          6           0       13.166930   -1.723442   -0.646099
      6          6           0      -13.393576    2.093586    0.023127
      7          6           0       11.085240    0.002617    0.190675
      8          6           0      -10.963981    0.456412   -0.101283
      9          6           0       12.429023   -2.019348    0.655981
     10          6           0      -12.049514    2.763581   -0.488387
     11          6           0       11.208037   -1.223891    0.865959
     12          6           0      -11.031483    1.652544   -0.663182
     13          6           0       11.659087    0.672280   -2.229862
     14          6           0       12.489408    2.067024   -0.305507
     15          6           0      -12.953284   -1.136331    0.115847
     16          6           0      -11.509015   -0.607338    2.161866
     17          6           0        9.981585    0.794541    0.402626
     18          6           0       -9.911754   -0.566677   -0.269326
     19          6           0       10.216638   -1.592884    1.849176
     20          6           0       -9.949203    2.109939   -1.701327
     21          6           0        8.604858    0.418737    0.298232
     22          6           0       -8.617046   -0.290701   -0.326524
     23          6           0        7.450814    1.229145    0.420654
     24          6           0       -7.505182   -1.214210   -0.360365
     25          6           0        7.661925    2.720017    0.693224
     26          6           0       -7.946561   -2.680355   -0.625072
     27          6           0        6.170584    0.692866    0.399679
     28          6           0       -6.181624   -0.854360   -0.343020
     29          6           0        4.826904    1.223104    0.451403
     30          6           0       -5.048624   -1.759102   -0.469028
     31          6           0        3.662870    0.509723    0.333795
     32          6           0       -3.840363   -1.239472   -0.392072
     33          6           0        2.321243    1.230148    0.381904
     34          6           0       -2.537152   -1.847975   -0.459466
     35          6           0        2.256653    2.725009    0.505585
     36          6           0       -2.599280   -3.421789   -0.819061
     37          6           0        1.180109    0.478585    0.272417
     38          6           0       -1.407227   -1.143534   -0.228353
     39          6           0        1.030735   -0.981119    0.168485
     40          6           0       -0.083408   -1.669167   -0.103690
     41          1           0       13.917848   -0.156368    0.205084
     42          1           0       14.145469    0.110319   -1.538794
     43          1           0      -12.571877    1.838663    1.845320
     44          1           0      -13.997327    0.808450    1.622340
     45          1           0       14.135400   -2.335875   -0.564960
     46          1           0       12.748027   -2.053199   -1.453559
     47          1           0      -14.229258    2.847150    0.296515
     48          1           0      -14.084007    1.539003   -0.780563
     49          1           0       13.413451   -1.742070    1.395042
     50          1           0       11.921245   -2.947312    0.793249
     51          1           0      -11.789630    3.568839    0.170995
     52          1           0      -12.309802    3.274605   -1.589205
     53          1           0       11.595571   -0.290184   -2.625472
     54          1           0       12.337893    1.245139   -2.836288
     55          1           0       10.739893    1.310243   -2.346421
     56          1           0       12.449202    2.113739    0.685715
     57          1           0       11.834562    2.958708   -0.754820
     58          1           0       13.661488    2.292643   -0.619495
     59          1           0      -13.338886   -0.768797   -0.803633
     60          1           0      -13.805335   -1.600289    0.774678
     61          1           0      -12.512038   -1.996613   -0.302191
     62          1           0      -11.160659    0.249986    2.810154
     63          1           0      -10.510736   -1.207807    2.075259
     64          1           0      -12.312129   -0.992134    2.753767
     65          1           0       10.170923    1.740492    0.485351
     66          1           0      -10.226127   -1.460161   -0.254312
     67          1           0        9.499614   -0.908194    2.258429
     68          1           0       10.675235   -2.042702    2.774866
     69          1           0        9.722850   -2.367908    1.319621
     70          1           0       -9.222700    1.417108   -2.052255
     71          1           0       -9.400683    2.914392   -1.314023
     72          1           0      -10.431348    2.477380   -2.458023
     73          1           0        8.323335   -0.528113    0.208401
     74          1           0       -8.204090    0.704818   -0.304158
     75          1           0        8.122313    2.715661    1.537899
     76          1           0        6.786043    3.358148    0.779820
     77          1           0        8.097631    3.201969   -0.043246
     78          1           0       -8.611330   -2.631456   -1.363386
     79          1           0       -8.300804   -3.080596    0.238349
     80          1           0       -7.093124   -3.367511   -0.809636
     81          1           0        6.080958   -0.422503    0.278928
     82          1           0       -5.992969    0.213685   -0.067576
     83          1           0        4.753898    2.379045    0.576240
     84          1           0       -5.254717   -2.766649   -0.656152
     85          1           0        3.460147   -0.591203    0.147359
     86          1           0       -3.888852   -0.078514   -0.424417
     87          1           0        2.537449    2.885844    1.519072
     88          1           0        1.336219    3.242987    0.587291
     89          1           0        2.813863    3.214737   -0.134251
     90          1           0       -3.004869   -3.473432   -1.751023
     91          1           0       -3.131581   -4.037441   -0.064414
     92          1           0       -1.436973   -3.920511   -0.778048
     93          1           0        0.268295    1.139111    0.114057
     94          1           0       -1.417577   -0.111603    0.007054
     95          1           0        1.905357   -1.493405    0.137429
     96          1           0       -0.041882   -2.721573   -0.424714
 ---------------------------------------------------------------------

 SCF Done:  E(RB3LYP) =  -1557.57704925     A.U. after   16 cycles

 Excitation energies and oscillator strengths:

 Excited State   1:      Singlet-A      2.3229 eV  533.74 nm  f=2.8854  <S**2>=0.000
     148 ->149         0.70600
 This state for optimization and/or second-order correction.
 Total Energy, E(TD-HF/TD-DFT) =  -1557.49168255
 Copying the excited state density for this state as the 1-particle RhoCI density.

 The electronic state is 1-A.
 Alpha  occ. eigenvalues --  -10.20326 -10.20234 -10.20206 -10.20190 -10.20006
 Alpha  occ. eigenvalues --  -10.19932 -10.19859 -10.19786 -10.19724 -10.19437
 Alpha  occ. eigenvalues --  -10.19241 -10.19131 -10.19077 -10.18808 -10.18796
 Alpha  occ. eigenvalues --  -10.18720 -10.18682 -10.18637 -10.18556 -10.18232
 Alpha  occ. eigenvalues --  -10.18138 -10.18041 -10.18032 -10.17976 -10.17850
 Alpha  occ. eigenvalues --  -10.17771 -10.17631 -10.17597 -10.17572 -10.17415
 Alpha  occ. eigenvalues --  -10.17289 -10.17208 -10.17153 -10.17049 -10.16839
 Alpha  occ. eigenvalues --  -10.16454 -10.16437 -10.16139 -10.15311 -10.14791
 Alpha  occ. eigenvalues --   -0.85857  -0.84291  -0.83197  -0.82544  -0.81911
 Alpha  occ. eigenvalues --   -0.81131  -0.79869  -0.79161  -0.78079  -0.77808
 Alpha  occ. eigenvalues --   -0.76834  -0.75337  -0.74506  -0.73079  -0.72407
 Alpha  occ. eigenvalues --   -0.70493  -0.70151  -0.68848  -0.68536  -0.68482
 Alpha  occ. eigenvalues --   -0.68044  -0.67782  -0.67363  -0.66515  -0.66290
 Alpha  occ. eigenvalues --   -0.63201  -0.62631  -0.59800  -0.59182  -0.57795
 Alpha  occ. eigenvalues --   -0.57109  -0.55972  -0.55375  -0.54338  -0.53391
 Alpha  occ. eigenvalues --   -0.52623  -0.52073  -0.50999  -0.50380  -0.49928
 Alpha  occ. eigenvalues --   -0.48842  -0.48186  -0.47072  -0.46582  -0.46292
 Alpha  occ. eigenvalues --   -0.45713  -0.45578  -0.45297  -0.44853  -0.44558
 Alpha  occ. eigenvalues --   -0.44018  -0.43597  -0.43465  -0.43207  -0.43022
 Alpha  occ. eigenvalues --   -0.42753  -0.42507  -0.42323  -0.42134  -0.41972
 Alpha  occ. eigenvalues --   -0.41404  -0.40994  -0.40710  -0.40115  -0.39292
 Alpha  occ. eigenvalues --   -0.39121  -0.38977  -0.38849  -0.38430  -0.38105
 Alpha  occ. eigenvalues --   -0.37818  -0.37558  -0.37211  -0.37018  -0.36552
 Alpha  occ. eigenvalues --   -0.36270  -0.36137  -0.35886  -0.35770  -0.35722
 Alpha  occ. eigenvalues --   -0.34668  -0.34613  -0.34417  -0.34114  -0.33848
 Alpha  occ. eigenvalues --   -0.33640  -0.33575  -0.32770  -0.32534  -0.32442
 Alpha  occ. eigenvalues --   -0.32260  -0.31971  -0.31720  -0.31676  -0.30917
 Alpha  occ. eigenvalues --   -0.30775  -0.30494  -0.30262  -0.29542  -0.28563
 Alpha  occ. eigenvalues --   -0.28427  -0.26563  -0.26388  -0.24371  -0.22942
 Alpha  occ. eigenvalues --   -0.20989  -0.18336  -0.16497
 Alpha virt. eigenvalues --   -0.07390  -0.05214  -0.01651   0.00688   0.03043
 Alpha virt. eigenvalues --    0.04832   0.06587   0.07610   0.07695   0.07908
 Alpha virt. eigenvalues --    0.08467   0.08634   0.09175   0.09869   0.10106

 Mulliken charges:
               1
     1  C    0.018219
     2  C    0.015004
     3  C   -0.179621
     4  C   -0.171766
     5  C   -0.199235
     6  C   -0.181775
     7  C    0.065814
     8  C    0.065309
     9  C   -0.191737
    10  C   -0.222226
    11  C    0.071711
    12  C    0.033946
    13  C   -0.289794
    14  C   -0.301546
    15  C   -0.306586
    16  C   -0.310070
    17  C   -0.132964
    18  C   -0.099460
    19  C   -0.371718
    20  C   -0.357312
    21  C   -0.083266
    22  C   -0.081329
    23  C    0.100386
    24  C    0.084933
    25  C   -0.365482
    26  C   -0.370610
    27  C   -0.144063
    28  C   -0.145791
    29  C   -0.090405
    30  C   -0.049494
    31  C   -0.092679
    32  C   -0.108120
    33  C    0.091576
    34  C    0.089759
    35  C   -0.372967
    36  C   -0.361837
    37  C   -0.143706
    38  C   -0.095120
    39  C   -0.071087
    40  C   -0.093318
    41  H    0.092798
    42  H    0.084166
    43  H    0.097491
    44  H    0.077247
    45  H    0.077243
    46  H    0.103487
    47  H    0.077471
    48  H    0.075435
    49  H    0.074595
    50  H    0.092661
    51  H    0.121726
    52  H    0.073339
    53  H    0.106871
    54  H    0.104735
    55  H    0.096367
    56  H    0.124021
    57  H    0.077596
    58  H    0.074207
    59  H    0.113157
    60  H    0.078722
    61  H    0.107400
    62  H    0.095934
    63  H    0.103847
    64  H    0.100765
    65  H    0.072138
    66  H    0.070330
    67  H    0.134454
    68  H    0.098311
    69  H    0.124963
    70  H    0.111720
    71  H    0.108348
    72  H    0.110137
    73  H    0.060823
    74  H    0.076083
    75  H    0.133751
    76  H    0.095052
    77  H    0.125942
    78  H    0.128005
    79  H    0.129688
    80  H    0.091011
    81  H    0.060617
    82  H    0.071901
    83  H    0.076319
    84  H    0.078679
    85  H    0.085594
    86  H    0.070178
    87  H    0.131344
    88  H    0.108990
    89  H    0.130329
    90  H    0.141559
    91  H    0.124601
    92  H    0.073970
    93  H    0.072649
    94  H    0.076576
    95  H    0.073083
    96  H    0.069998
 Sum of Mulliken charges =  -0.00000

 Dipole moment (field-independent basis, Debye):
    X=              1.0094    Y=              0.2435    Z=             -0.0448  Tot=              1.0393
 Quadrupole moment (field-independent basis, Debye-Ang):
   XX=           -220.7249   YY=           -231.7880   ZZ=           -253.3470
   XY=              0.0840   XZ=              0.2671   YZ=              2.2853

 Normal termination of Gaussian 16 at Sat Jul 27 03:40:09 2019.
