 Gaussian 16, Revision A.03,
 Gaussian 16:  ES64L-G16RevA.03 25-Dec-2016

 ---------------------------------
 # td=(NStates=1) B3LYP/6-31G(d,p)
 ---------------------------------

 --
 TD
 --
 Symbolic Z-matrix:
 Charge =  0 Multiplicity = 1

                         Standard orientation:
 ---------------------------------------------------------------------
 Center     Atomic      Atomic             Coordinates (Angstroms)
 Number     Number       Type             X           Y           Z
 ---------------------------------------------------------------------
      1          6           0       12.139804    0.570401   -0.781566
      2          6           0      -12.061902    0.056582    1.046064
      3          6           0       13.508156   -0.088027   -0.605477
      4          6           0      -12.983683    1.208699    1.477760
      5          6           0       13.512884   -1.620154   -0.351984
      6          6           0      -13.449055    2.130968    0.307793
      7          6           0       11.003014    0.049806    0.241622
      8          6           0      -10.980867    0.496137    0.039666
      9          6           0       12.559409   -1.843364    0.931352
     10          6           0      -12.217235    2.647089   -0.448154
     11          6           0       11.302167   -1.037539    0.998218
     12          6           0      -11.072115    1.664918   -0.670076
     13          6           0       11.554226    0.302154   -2.144531
     14          6           0       12.345428    2.080827   -0.529794
     15          6           0      -13.027416   -1.048540    0.470960
     16          6           0      -11.300357   -0.554215    2.252162
     17          6           0        9.775502    0.856266    0.408710
     18          6           0       -9.895748   -0.589602   -0.345768
     19          6           0       10.403995   -1.647092    2.124956
     20          6           0      -10.184645    1.881654   -1.988196
     21          6           0        8.475284    0.317007    0.490613
     22          6           0       -8.630376   -0.350664   -0.288108
     23          6           0        7.342356    1.209987    0.493143
     24          6           0       -7.550466   -1.285749   -0.417541
     25          6           0        7.566774    2.641551    0.650495
     26          6           0       -7.877019   -2.712859   -0.640026
     27          6           0        6.061806    0.590324    0.377263
     28          6           0       -6.265196   -0.933167   -0.296756
     29          6           0        4.885009    1.396268    0.296600
     30          6           0       -5.050027   -1.700289   -0.616064
     31          6           0        3.663714    0.697920    0.230070
     32          6           0       -3.811703   -1.154673   -0.470944
     33          6           0        2.321171    1.284014    0.104532
     34          6           0       -2.573695   -1.926385   -0.634071
     35          6           0        2.317408    2.756944    0.311662
     36          6           0       -2.645116   -3.366657   -0.881033
     37          6           0        1.235308    0.508456   -0.112847
     38          6           0       -1.327436   -1.243087   -0.304907
     39          6           0        1.144909   -0.881249   -0.258503
     40          6           0       -0.028486   -1.656071   -0.414472
     41          1           0       13.745521    0.323264    0.384058
     42          1           0       14.068366    0.043952   -1.483056
     43          1           0      -12.343180    1.826940    2.015012
     44          1           0      -13.746125    0.765610    1.871220
     45          1           0       14.538264   -1.899620   -0.057319
     46          1           0       12.862631   -2.202474   -1.259603
     47          1           0      -14.135077    3.011986    0.680221
     48          1           0      -13.783983    1.515399   -0.334085
     49          1           0       13.092311   -1.489310    1.786520
     50          1           0       12.306627   -3.088768    0.802682
     51          1           0      -11.796315    3.676049    0.038517
     52          1           0      -12.387734    3.147362   -1.525020
     53          1           0       11.721033   -0.716018   -2.412351
     54          1           0       11.999305    1.032043   -2.999976
     55          1           0       10.540459    0.551209   -2.158449
     56          1           0       12.092954    2.173182    0.587281
     57          1           0       11.467446    2.905661   -1.003268
     58          1           0       13.478231    2.518846   -0.696901
     59          1           0      -13.481392   -0.690319   -0.330738
     60          1           0      -13.704324   -1.326378    1.415253
     61          1           0      -12.369828   -1.980490    0.146761
     62          1           0      -10.682811    0.049200    2.587036
     63          1           0      -10.681646   -1.537339    2.086946
     64          1           0      -11.938514   -0.688716    3.144183
     65          1           0        9.790008    2.021374    0.319652
     66          1           0      -10.380119   -1.604866   -0.354739
     67          1           0        9.473182   -0.936591    2.474192
     68          1           0       10.994826   -2.020315    3.070789
     69          1           0        9.802866   -2.581420    1.646283
     70          1           0       -9.624408    1.016398   -2.157998
     71          1           0       -9.533728    2.750877   -1.990902
     72          1           0      -10.805074    2.054500   -2.960260
     73          1           0        8.457832   -0.815612    0.236498
     74          1           0       -8.328289    0.482547    0.183822
     75          1           0        7.994970    2.811771    1.772111
     76          1           0        6.479341    3.188804    0.568078
     77          1           0        8.105059    2.971326   -0.133248
     78          1           0       -8.470023   -2.804426   -1.339557
     79          1           0       -8.474993   -3.340936    0.160997
     80          1           0       -7.011190   -3.429822   -1.133444
     81          1           0        6.001835   -0.454141    0.115863
     82          1           0       -6.110654    0.126934   -0.389049
     83          1           0        4.632795    2.529071    0.097641
     84          1           0       -5.355764   -2.727375   -0.624078
     85          1           0        3.624623   -0.356701    0.240816
     86          1           0       -3.700002   -0.065602   -0.209924
     87          1           0        2.742312    3.063447    1.290654
     88          1           0        1.336481    3.094603    0.150265
     89          1           0        2.996606    3.324239   -0.498796
     90          1           0       -2.797260   -3.732924   -1.909436
     91          1           0       -3.321609   -3.709202   -0.031548
     92          1           0       -1.595186   -3.600851   -0.755404
     93          1           0        0.392016    1.137239   -0.198083
     94          1           0       -1.533005   -0.267781   -0.247074
     95          1           0        2.043982   -1.522427   -0.225856
     96          1           0        0.195664   -2.774942   -0.770121
 ---------------------------------------------------------------------

 SCF Done:  E(RB3LYP) =  -1557.47498155     A.U. after   16 cycles

 Excitation energies and oscillator strengths:

 Excited State   1:      Singlet-A      2.0261 eV  611.92 nm  f=2.9587  <S**2>=0.000
     148 ->149         0.70647
     148 <-149        -0.12705
 This state for optimization and/or second-order correction.
 Total Energy, E(TD-HF/TD-DFT) =  -1557.40052227
 Copying the excited state density for this state as the 1-particle RhoCI density.

 The electronic state is 1-A.
 Alpha  occ. eigenvalues --  -10.20568 -10.20545 -10.20492 -10.20060 -10.20039
 Alpha  occ. eigenvalues --  -10.20034 -10.20013 -10.19970 -10.19961 -10.19855
 Alpha  occ. eigenvalues --  -10.19841 -10.19738 -10.19732 -10.19652 -10.19526
 Alpha  occ. eigenvalues --  -10.19503 -10.19500 -10.19472 -10.19421 -10.19345
 Alpha  occ. eigenvalues --  -10.19211 -10.19149 -10.19006 -10.18969 -10.18952
 Alpha  occ. eigenvalues --  -10.18727 -10.18370 -10.18225 -10.18137 -10.17932
 Alpha  occ. eigenvalues --  -10.17879 -10.17840 -10.17824 -10.17758 -10.17630
 Alpha  occ. eigenvalues --  -10.17571 -10.16966 -10.16545 -10.16121 -10.16016
 Alpha  occ. eigenvalues --   -0.84803  -0.84483  -0.83721  -0.83428  -0.82508
 Alpha  occ. eigenvalues --   -0.81868  -0.78867  -0.77962  -0.77568  -0.77339
 Alpha  occ. eigenvalues --   -0.76562  -0.75194  -0.74447  -0.72592  -0.71244
 Alpha  occ. eigenvalues --   -0.70956  -0.69270  -0.69077  -0.68045  -0.67510
 Alpha  occ. eigenvalues --   -0.67423  -0.66977  -0.66414  -0.65888  -0.65359
 Alpha  occ. eigenvalues --   -0.62910  -0.61524  -0.60277  -0.58578  -0.57150
 Alpha  occ. eigenvalues --   -0.56058  -0.55410  -0.54282  -0.53772  -0.53243
 Alpha  occ. eigenvalues --   -0.52362  -0.51786  -0.50052  -0.49615  -0.49015
 Alpha  occ. eigenvalues --   -0.48565  -0.48003  -0.47620  -0.47083  -0.46733
 Alpha  occ. eigenvalues --   -0.45978  -0.45629  -0.44854  -0.44276  -0.43944
 Alpha  occ. eigenvalues --   -0.43331  -0.43261  -0.43041  -0.42703  -0.42279
 Alpha  occ. eigenvalues --   -0.42079  -0.41718  -0.41332  -0.41171  -0.40671
 Alpha  occ. eigenvalues --   -0.40493  -0.40076  -0.40034  -0.39757  -0.39194
 Alpha  occ. eigenvalues --   -0.39030  -0.38696  -0.38445  -0.38361  -0.37927
 Alpha  occ. eigenvalues --   -0.37615  -0.37344  -0.37216  -0.36612  -0.36582
 Alpha  occ. eigenvalues --   -0.35933  -0.35633  -0.35533  -0.35147  -0.35024
 Alpha  occ. eigenvalues --   -0.34585  -0.34443  -0.34362  -0.34203  -0.34151
 Alpha  occ. eigenvalues --   -0.33594  -0.33540  -0.32641  -0.32610  -0.32187
 Alpha  occ. eigenvalues --   -0.32034  -0.31786  -0.31294  -0.30981  -0.30867
 Alpha  occ. eigenvalues --   -0.30317  -0.29813  -0.29789  -0.29597  -0.28892
 Alpha  occ. eigenvalues --   -0.28286  -0.27503  -0.26504  -0.24051  -0.23030
 Alpha  occ. eigenvalues --   -0.21193  -0.18912  -0.16000
 Alpha virt. eigenvalues --   -0.08711  -0.05110  -0.02060   0.00802   0.02382
 Alpha virt. eigenvalues --    0.03623   0.05414   0.05903   0.06143   0.06827
 Alpha virt. eigenvalues --    0.07108   0.07372   0.07782   0.08044   0.08770

 Mulliken charges:
               1
     1  C    0.036439
     2  C   -0.045195
     3  C   -0.174020
     4  C   -0.150246
     5  C   -0.185301
     6  C   -0.178528
     7  C    0.028147
     8  C    0.046049
     9  C   -0.222335
    10  C   -0.227585
    11  C    0.073533
    12  C    0.063423
    13  C   -0.288893
    14  C   -0.297679
    15  C   -0.279800
    16  C   -0.287064
    17  C   -0.135758
    18  C   -0.158711
    19  C   -0.341207
    20  C   -0.360396
    21  C   -0.097878
    22  C   -0.050092
    23  C    0.102620
    24  C    0.131886
    25  C   -0.363579
    26  C   -0.368947
    27  C   -0.123002
    28  C   -0.149982
    29  C   -0.080155
    30  C   -0.085574
    31  C   -0.106446
    32  C   -0.100226
    33  C    0.111336
    34  C    0.077519
    35  C   -0.385434
    36  C   -0.365634
    37  C   -0.098964
    38  C   -0.080748
    39  C   -0.093815
    40  C   -0.107287
    41  H    0.095035
    42  H    0.103026
    43  H    0.102875
    44  H    0.089007
    45  H    0.104262
    46  H    0.071913
    47  H    0.087562
    48  H    0.116990
    49  H    0.119859
    50  H    0.072920
    51  H    0.074349
    52  H    0.080370
    53  H    0.099739
    54  H    0.064116
    55  H    0.114742
    56  H    0.104918
    57  H    0.061028
    58  H    0.088927
    59  H    0.116914
    60  H    0.088054
    61  H    0.078074
    62  H    0.116962
    63  H    0.086101
    64  H    0.081106
    65  H    0.082656
    66  H    0.083005
    67  H    0.099861
    68  H    0.097811
    69  H    0.093452
    70  H    0.126820
    71  H    0.110163
    72  H    0.088500
    73  H    0.090265
    74  H    0.089821
    75  H    0.114709
    76  H    0.087594
    77  H    0.141934
    78  H    0.138426
    79  H    0.096498
    80  H    0.075720
    81  H    0.096254
    82  H    0.068334
    83  H    0.087129
    84  H    0.087452
    85  H    0.064320
    86  H    0.081783
    87  H    0.134237
    88  H    0.106649
    89  H    0.099127
    90  H    0.124586
    91  H    0.123474
    92  H    0.108470
    93  H    0.069431
    94  H    0.072698
    95  H    0.086591
    96  H    0.072913
 Sum of Mulliken charges =  -0.00000

 Dipole moment (field-independent basis, Debye):
    X=             -0.1563    Y=              0.1292    Z=             -0.1340  Tot=              0.2431
 Quadrupole moment (field-independent basis, Debye-Ang):
   XX=           -219.3839   YY=           -238.7949   ZZ=           -255.5205
   XY=              0.4522   XZ=              0.2353   YZ=              2.7743

 Normal termination of Gaussian 16 at Sun Jul 28 11:47:23 2019.
