 Gaussian 16, Revision A.03,
 Gaussian 16:  ES64L-G16RevA.03 25-Dec-2016

 ---------------------------------
 # td=(NStates=1) B3LYP/6-31G(d,p)
 ---------------------------------

 --
 TD
 --
 Symbolic Z-matrix:
 Charge =  0 Multiplicity = 1

                         Standard orientation:
 ---------------------------------------------------------------------
 Center     Atomic      Atomic             Coordinates (Angstroms)
 Number     Number       Type             X           Y           Z
 ---------------------------------------------------------------------
      1          6           0       12.194893    0.545797   -0.568175
      2          6           0      -12.121084    0.013901    0.951110
      3          6           0       13.513465   -0.305318   -0.485294
      4          6           0      -12.896909    1.267029    1.354085
      5          6           0       13.071872   -1.812020   -0.568503
      6          6           0      -13.380178    2.063681    0.078987
      7          6           0       11.017621   -0.023977    0.289591
      8          6           0      -10.978219    0.373760   -0.034597
      9          6           0       12.342842   -2.186837    0.750539
     10          6           0      -12.220879    2.546308   -0.691466
     11          6           0       11.163061   -1.248318    0.866310
     12          6           0      -11.009092    1.493091   -0.835239
     13          6           0       11.755048    0.567992   -2.122915
     14          6           0       12.560487    1.924196   -0.084562
     15          6           0      -13.022244   -1.093978    0.299663
     16          6           0      -11.547456   -0.585906    2.287478
     17          6           0        9.889933    0.883023    0.415290
     18          6           0       -9.964132   -0.628513   -0.142881
     19          6           0       10.131784   -1.843252    1.873909
     20          6           0      -10.005372    1.955508   -1.704361
     21          6           0        8.594896    0.498320    0.222125
     22          6           0       -8.601428   -0.375216   -0.269779
     23          6           0        7.347594    1.376904    0.291193
     24          6           0       -7.615672   -1.403987   -0.283512
     25          6           0        7.584476    2.773273    0.601228
     26          6           0       -7.919333   -2.844030   -0.629977
     27          6           0        6.122822    0.820825    0.150508
     28          6           0       -6.227412   -1.075479   -0.257017
     29          6           0        4.882479    1.462538    0.220711
     30          6           0       -5.025349   -1.657790   -0.526465
     31          6           0        3.724483    0.733307    0.115140
     32          6           0       -3.787526   -1.083053   -0.496918
     33          6           0        2.361585    1.370721    0.192076
     34          6           0       -2.472115   -1.767915   -0.581173
     35          6           0        2.156422    2.819587    0.503000
     36          6           0       -2.463503   -3.117321   -0.769545
     37          6           0        1.205730    0.606118    0.126935
     38          6           0       -1.292266   -1.032293   -0.321917
     39          6           0        1.124963   -0.778086   -0.247847
     40          6           0        0.035489   -1.603243   -0.386990
     41          1           0       13.976167   -0.210435    0.703264
     42          1           0       14.132202    0.090010   -1.264720
     43          1           0      -12.211094    2.006445    1.929465
     44          1           0      -13.915033    1.008470    1.863577
     45          1           0       14.000624   -2.336797   -0.686687
     46          1           0       12.482363   -2.174355   -1.447377
     47          1           0      -14.063269    2.751690    0.464280
     48          1           0      -14.065848    1.523163   -0.656055
     49          1           0       12.863914   -1.887239    1.548738
     50          1           0       11.907602   -3.234973    0.820751
     51          1           0      -11.672620    3.398110   -0.169456
     52          1           0      -12.595756    2.891608   -1.703777
     53          1           0       11.342213   -0.350259   -2.329277
     54          1           0       12.761790    0.949928   -2.657717
     55          1           0       10.944836    1.256758   -2.409239
     56          1           0       12.657774    2.021372    1.080494
     57          1           0       11.826286    2.859646   -0.379145
     58          1           0       13.595868    2.238985   -0.589426
     59          1           0      -13.700987   -0.700387   -0.473010
     60          1           0      -13.663195   -1.543493    1.088054
     61          1           0      -12.358599   -1.836735   -0.118871
     62          1           0      -10.978755    0.082243    2.909690
     63          1           0      -10.851160   -1.463482    1.936279
     64          1           0      -12.464317   -0.767979    2.895193
     65          1           0       10.037522    1.943258    0.592761
     66          1           0      -10.361120   -1.663578    0.052320
     67          1           0        9.210835   -1.181837    2.135209
     68          1           0       10.546895   -2.286954    2.843951
     69          1           0        9.576479   -2.645131    1.296944
     70          1           0       -9.298614    1.145931   -1.919134
     71          1           0       -9.441981    2.867801   -1.058344
     72          1           0      -10.477547    2.281265   -2.616576
     73          1           0        8.502724   -0.650307    0.262206
     74          1           0       -8.005473    0.550795   -0.071081
     75          1           0        8.076118    3.025331    1.544445
     76          1           0        6.602381    3.089913    0.544477
     77          1           0        8.346790    3.252605   -0.028768
     78          1           0       -8.399072   -2.921187   -1.658621
     79          1           0       -8.759523   -3.125229    0.104128
     80          1           0       -7.005550   -3.454240   -0.536785
     81          1           0        5.832914   -0.262207    0.207161
     82          1           0       -6.140810    0.092293    0.001370
     83          1           0        4.845057    2.514843    0.537682
     84          1           0       -4.788506   -2.632971   -0.596827
     85          1           0        3.675188   -0.401476   -0.036806
     86          1           0       -3.669631   -0.047760   -0.229768
     87          1           0        2.347503    2.969429    1.744073
     88          1           0        1.168477    2.973922    0.378688
     89          1           0        2.656524    3.395873   -0.224439
     90          1           0       -3.183402   -3.342492   -1.435069
     91          1           0       -2.715036   -3.577780    0.354665
     92          1           0       -1.424095   -3.500664   -1.092252
     93          1           0        0.183748    0.981896   -0.073508
     94          1           0       -1.461623    0.102472    0.084775
     95          1           0        2.061869   -1.362168   -0.360967
     96          1           0        0.119296   -2.480031   -0.585401
 ---------------------------------------------------------------------

 SCF Done:  E(RB3LYP) =  -1557.57979508     A.U. after   16 cycles

 Excitation energies and oscillator strengths:

 Excited State   1:      Singlet-A      2.0611 eV  601.53 nm  f=2.8395  <S**2>=0.000
     148 ->149         0.70185
     148 ->150        -0.11117
     148 <-149        -0.10743
 This state for optimization and/or second-order correction.
 Total Energy, E(TD-HF/TD-DFT) =  -1557.50404953
 Copying the excited state density for this state as the 1-particle RhoCI density.

 The electronic state is 1-A.
 Alpha  occ. eigenvalues --  -10.20595 -10.20173 -10.20093 -10.20092 -10.20006
 Alpha  occ. eigenvalues --  -10.19823 -10.19725 -10.19708 -10.19691 -10.19526
 Alpha  occ. eigenvalues --  -10.19253 -10.19225 -10.19218 -10.19160 -10.19157
 Alpha  occ. eigenvalues --  -10.19088 -10.19068 -10.18977 -10.18967 -10.18806
 Alpha  occ. eigenvalues --  -10.18734 -10.18711 -10.18651 -10.18519 -10.18472
 Alpha  occ. eigenvalues --  -10.18460 -10.18432 -10.18387 -10.18312 -10.18308
 Alpha  occ. eigenvalues --  -10.18183 -10.18175 -10.18166 -10.17755 -10.17702
 Alpha  occ. eigenvalues --  -10.17535 -10.17443 -10.17441 -10.17402 -10.17300
 Alpha  occ. eigenvalues --   -0.84801  -0.84560  -0.84263  -0.83562  -0.82084
 Alpha  occ. eigenvalues --   -0.81475  -0.79199  -0.78619  -0.78038  -0.77854
 Alpha  occ. eigenvalues --   -0.77263  -0.75906  -0.75317  -0.72302  -0.71738
 Alpha  occ. eigenvalues --   -0.70297  -0.68586  -0.68010  -0.67630  -0.67580
 Alpha  occ. eigenvalues --   -0.67222  -0.66791  -0.66117  -0.66067  -0.65722
 Alpha  occ. eigenvalues --   -0.62647  -0.61932  -0.59913  -0.58925  -0.57292
 Alpha  occ. eigenvalues --   -0.56511  -0.55436  -0.54779  -0.54136  -0.53505
 Alpha  occ. eigenvalues --   -0.52350  -0.52051  -0.50129  -0.49367  -0.49086
 Alpha  occ. eigenvalues --   -0.48497  -0.48044  -0.47258  -0.46451  -0.46356
 Alpha  occ. eigenvalues --   -0.45880  -0.45100  -0.44846  -0.44416  -0.43755
 Alpha  occ. eigenvalues --   -0.43452  -0.43005  -0.42826  -0.42657  -0.42221
 Alpha  occ. eigenvalues --   -0.42079  -0.41838  -0.41265  -0.41095  -0.40841
 Alpha  occ. eigenvalues --   -0.40789  -0.40404  -0.40309  -0.39940  -0.39691
 Alpha  occ. eigenvalues --   -0.39570  -0.39317  -0.39284  -0.38681  -0.38559
 Alpha  occ. eigenvalues --   -0.38448  -0.37896  -0.37561  -0.37287  -0.36679
 Alpha  occ. eigenvalues --   -0.36403  -0.35803  -0.35502  -0.35434  -0.35252
 Alpha  occ. eigenvalues --   -0.34803  -0.34720  -0.34268  -0.34203  -0.33531
 Alpha  occ. eigenvalues --   -0.33478  -0.33194  -0.33085  -0.32937  -0.32588
 Alpha  occ. eigenvalues --   -0.32123  -0.31840  -0.31747  -0.31065  -0.30748
 Alpha  occ. eigenvalues --   -0.30558  -0.30014  -0.29500  -0.28354  -0.28188
 Alpha  occ. eigenvalues --   -0.27788  -0.27533  -0.26242  -0.23960  -0.22672
 Alpha  occ. eigenvalues --   -0.20760  -0.18624  -0.15898
 Alpha virt. eigenvalues --   -0.08226  -0.05539  -0.02020   0.00595   0.02426
 Alpha virt. eigenvalues --    0.03919   0.05680   0.06289   0.07048   0.07168
 Alpha virt. eigenvalues --    0.07318   0.08091   0.08371   0.08639   0.08837

 Mulliken charges:
               1
     1  C    0.007870
     2  C   -0.012774
     3  C   -0.163979
     4  C   -0.180122
     5  C   -0.189083
     6  C   -0.181588
     7  C    0.065280
     8  C    0.114434
     9  C   -0.206939
    10  C   -0.202648
    11  C    0.040127
    12  C    0.051984
    13  C   -0.291533
    14  C   -0.283957
    15  C   -0.299125
    16  C   -0.284132
    17  C   -0.109819
    18  C   -0.165617
    19  C   -0.371148
    20  C   -0.341474
    21  C   -0.100479
    22  C   -0.104390
    23  C    0.084071
    24  C    0.115421
    25  C   -0.367912
    26  C   -0.361571
    27  C   -0.100561
    28  C   -0.139425
    29  C   -0.082245
    30  C   -0.047359
    31  C   -0.114896
    32  C   -0.113973
    33  C    0.080838
    34  C    0.124761
    35  C   -0.346412
    36  C   -0.378466
    37  C   -0.124496
    38  C   -0.126105
    39  C   -0.096975
    40  C   -0.028071
    41  H    0.063044
    42  H    0.097799
    43  H    0.089001
    44  H    0.074461
    45  H    0.087979
    46  H    0.100254
    47  H    0.095849
    48  H    0.083470
    49  H    0.129068
    50  H    0.098043
    51  H    0.093360
    52  H    0.087287
    53  H    0.118433
    54  H    0.073895
    55  H    0.106558
    56  H    0.094195
    57  H    0.070456
    58  H    0.074688
    59  H    0.105179
    60  H    0.095063
    61  H    0.104054
    62  H    0.105720
    63  H    0.079675
    64  H    0.094767
    65  H    0.077945
    66  H    0.091467
    67  H    0.106766
    68  H    0.101122
    69  H    0.106613
    70  H    0.122524
    71  H    0.088015
    72  H    0.109856
    73  H    0.067085
    74  H    0.092853
    75  H    0.127398
    76  H    0.104114
    77  H    0.118829
    78  H    0.117670
    79  H    0.099621
    80  H    0.113357
    81  H    0.082700
    82  H    0.042667
    83  H    0.097444
    84  H    0.061220
    85  H    0.086235
    86  H    0.060411
    87  H    0.095310
    88  H    0.123806
    89  H    0.122287
    90  H    0.129441
    91  H    0.105686
    92  H    0.101990
    93  H    0.083197
    94  H    0.072194
    95  H    0.059984
    96  H    0.040381
 Sum of Mulliken charges =  -0.00000

 Dipole moment (field-independent basis, Debye):
    X=             -0.0059    Y=              0.1150    Z=              0.3138  Tot=              0.3342
 Quadrupole moment (field-independent basis, Debye-Ang):
   XX=           -215.0642   YY=           -237.5770   ZZ=           -254.9609
   XY=             -6.6118   XZ=              3.7259   YZ=              2.7100

 Normal termination of Gaussian 16 at Mon Jul 29 00:05:18 2019.
