 Gaussian 16, Revision A.03,
 Gaussian 16:  ES64L-G16RevA.03 25-Dec-2016

 ---------------------------------
 # td=(NStates=1) B3LYP/6-31G(d,p)
 ---------------------------------

 --
 TD
 --
 Symbolic Z-matrix:
 Charge =  0 Multiplicity = 1

                         Standard orientation:
 ---------------------------------------------------------------------
 Center     Atomic      Atomic             Coordinates (Angstroms)
 Number     Number       Type             X           Y           Z
 ---------------------------------------------------------------------
      1          6           0       12.119582    0.448766   -0.722537
      2          6           0      -12.200616   -0.112372    0.822891
      3          6           0       13.415871   -0.418137   -0.677140
      4          6           0      -13.024917    1.127373    1.276362
      5          6           0       13.134390   -1.916843   -0.446384
      6          6           0      -13.332371    2.095654    0.141101
      7          6           0       11.024940   -0.086891    0.242070
      8          6           0      -11.033442    0.408627   -0.095740
      9          6           0       12.391518   -2.055061    0.775438
     10          6           0      -12.088968    2.707648   -0.389878
     11          6           0       11.111622   -1.153053    0.966074
     12          6           0      -10.951990    1.676609   -0.710185
     13          6           0       11.610748    0.458982   -2.215587
     14          6           0       12.554342    1.893163   -0.291853
     15          6           0      -13.208776   -1.179825    0.107340
     16          6           0      -11.654232   -0.599879    2.149935
     17          6           0        9.854346    0.929507    0.301734
     18          6           0       -9.922694   -0.569070   -0.225665
     19          6           0       10.117754   -1.502392    2.166033
     20          6           0       -9.974447    2.037465   -1.685736
     21          6           0        8.605831    0.459984    0.371972
     22          6           0       -8.667047   -0.416361   -0.371518
     23          6           0        7.407411    1.276666    0.419520
     24          6           0       -7.543951   -1.398861   -0.306402
     25          6           0        7.661353    2.810927    0.649298
     26          6           0       -7.904874   -2.835898   -0.506565
     27          6           0        6.229689    0.729690    0.289751
     28          6           0       -6.246274   -1.015150   -0.265176
     29          6           0        4.902951    1.397787    0.226674
     30          6           0       -4.955719   -1.645518   -0.308429
     31          6           0        3.712301    0.706942    0.162044
     32          6           0       -3.718368   -1.145984   -0.209462
     33          6           0        2.340438    1.312274    0.167644
     34          6           0       -2.465672   -1.793315   -0.483623
     35          6           0        2.290145    2.823010    0.472305
     36          6           0       -2.537852   -3.169091   -0.790611
     37          6           0        1.231286    0.554884    0.086172
     38          6           0       -1.301377   -1.092498   -0.308556
     39          6           0        1.068367   -0.733015   -0.306317
     40          6           0        0.021672   -1.541822   -0.465128
     41          1           0       13.926031   -0.173561    0.336296
     42          1           0       14.051076    0.046343   -1.515274
     43          1           0      -12.519992    1.659046    2.007191
     44          1           0      -13.983131    0.716493    1.573990
     45          1           0       14.084410   -2.190559   -0.191058
     46          1           0       12.846488   -2.390018   -1.454562
     47          1           0      -14.008843    2.989519    0.364375
     48          1           0      -13.788339    1.726431   -0.665886
     49          1           0       13.096453   -2.000109    1.720874
     50          1           0       11.892267   -3.044648    0.839674
     51          1           0      -11.542651    3.460799    0.324325
     52          1           0      -12.359998    3.332278   -1.341385
     53          1           0       11.221812   -0.381268   -2.675443
     54          1           0       12.495133    0.915504   -2.852481
     55          1           0       10.758233    1.236610   -2.315801
     56          1           0       12.827397    2.014616    0.820294
     57          1           0       11.653934    2.569813   -0.088841
     58          1           0       13.328287    2.359512   -0.946208
     59          1           0      -13.536312   -0.698543   -0.877538
     60          1           0      -13.886967   -1.539340    0.902899
     61          1           0      -12.565494   -2.050842   -0.239897
     62          1           0      -11.016126   -0.062389    2.598554
     63          1           0      -11.097832   -1.548922    2.070898
     64          1           0      -12.418474   -0.791086    2.853234
     65          1           0       10.182739    1.864648    0.447477
     66          1           0      -10.386031   -1.595276   -0.270925
     67          1           0        9.362485   -0.693575    2.446389
     68          1           0       10.634460   -1.935664    2.943644
     69          1           0        9.516806   -2.309236    1.925106
     70          1           0       -9.501021    1.243130   -2.179786
     71          1           0       -9.099864    2.495718   -0.954920
     72          1           0      -10.383047    3.005814   -2.341793
     73          1           0        8.457658   -0.611251    0.157530
     74          1           0       -8.233064    0.587354   -0.145874
     75          1           0        8.142850    3.037366    1.538453
     76          1           0        6.572873    3.249283    0.707278
     77          1           0        8.310989    3.070197   -0.281392
     78          1           0       -8.321364   -2.902955   -1.612764
     79          1           0       -8.564854   -3.182202    0.198787
     80          1           0       -7.067906   -3.639876   -0.649944
     81          1           0        6.154070   -0.303178    0.034772
     82          1           0       -6.068511    0.135612   -0.212016
     83          1           0        4.969613    2.478857    0.236771
     84          1           0       -5.049291   -2.582561   -0.590394
     85          1           0        3.665454   -0.362811   -0.105586
     86          1           0       -3.477077   -0.130203   -0.074036
     87          1           0        2.618399    3.169044    1.508858
     88          1           0        1.214019    3.153703    0.315082
     89          1           0        2.811438    3.508131   -0.371554
     90          1           0       -2.970264   -3.589900   -1.728146
     91          1           0       -3.083039   -3.808457   -0.042266
     92          1           0       -1.529948   -3.845826   -0.754611
     93          1           0        0.228614    1.190279   -0.000677
     94          1           0       -1.372997   -0.013861    0.075084
     95          1           0        2.096701   -1.219528   -0.621177
     96          1           0        0.273922   -2.467990   -0.916796
 ---------------------------------------------------------------------

 SCF Done:  E(RB3LYP) =  -1557.60494473     A.U. after   15 cycles

 Excitation energies and oscillator strengths:

 Excited State   1:      Singlet-A      2.3968 eV  517.29 nm  f=2.8095  <S**2>=0.000
     148 ->149         0.70160
 This state for optimization and/or second-order correction.
 Total Energy, E(TD-HF/TD-DFT) =  -1557.51686397
 Copying the excited state density for this state as the 1-particle RhoCI density.

 The electronic state is 1-A.
 Alpha  occ. eigenvalues --  -10.20714 -10.20319 -10.20179 -10.20115 -10.19980
 Alpha  occ. eigenvalues --  -10.19631 -10.19534 -10.19478 -10.19458 -10.19384
 Alpha  occ. eigenvalues --  -10.19369 -10.19329 -10.19323 -10.19229 -10.19228
 Alpha  occ. eigenvalues --  -10.19096 -10.18929 -10.18800 -10.18792 -10.18766
 Alpha  occ. eigenvalues --  -10.18655 -10.18646 -10.18605 -10.18571 -10.18273
 Alpha  occ. eigenvalues --  -10.18168 -10.18067 -10.17961 -10.17947 -10.17870
 Alpha  occ. eigenvalues --  -10.17815 -10.17778 -10.17568 -10.17566 -10.17521
 Alpha  occ. eigenvalues --  -10.17369 -10.17199 -10.16786 -10.16759 -10.14951
 Alpha  occ. eigenvalues --   -0.84639  -0.84517  -0.84357  -0.83097  -0.82412
 Alpha  occ. eigenvalues --   -0.81679  -0.79332  -0.78635  -0.78127  -0.77574
 Alpha  occ. eigenvalues --   -0.77122  -0.75521  -0.74591  -0.72910  -0.71775
 Alpha  occ. eigenvalues --   -0.69999  -0.68846  -0.68442  -0.68231  -0.68121
 Alpha  occ. eigenvalues --   -0.67424  -0.67345  -0.66826  -0.66318  -0.66024
 Alpha  occ. eigenvalues --   -0.62998  -0.62016  -0.60020  -0.59160  -0.57465
 Alpha  occ. eigenvalues --   -0.56558  -0.55855  -0.55147  -0.54331  -0.53655
 Alpha  occ. eigenvalues --   -0.52506  -0.52093  -0.50204  -0.49495  -0.49061
 Alpha  occ. eigenvalues --   -0.48558  -0.48095  -0.47310  -0.46849  -0.46091
 Alpha  occ. eigenvalues --   -0.45790  -0.45298  -0.44918  -0.44149  -0.44061
 Alpha  occ. eigenvalues --   -0.43302  -0.42894  -0.42825  -0.42497  -0.42304
 Alpha  occ. eigenvalues --   -0.41846  -0.41708  -0.40977  -0.40948  -0.40785
 Alpha  occ. eigenvalues --   -0.40703  -0.40459  -0.40291  -0.39782  -0.39630
 Alpha  occ. eigenvalues --   -0.39225  -0.39037  -0.38790  -0.38373  -0.38205
 Alpha  occ. eigenvalues --   -0.37864  -0.37763  -0.37470  -0.37059  -0.36842
 Alpha  occ. eigenvalues --   -0.36499  -0.36184  -0.35882  -0.35373  -0.34961
 Alpha  occ. eigenvalues --   -0.34816  -0.34448  -0.34226  -0.33997  -0.33677
 Alpha  occ. eigenvalues --   -0.33637  -0.32961  -0.32804  -0.32506  -0.32167
 Alpha  occ. eigenvalues --   -0.32078  -0.31918  -0.31692  -0.31064  -0.30464
 Alpha  occ. eigenvalues --   -0.30360  -0.30239  -0.29865  -0.29458  -0.28663
 Alpha  occ. eigenvalues --   -0.27712  -0.26823  -0.26604  -0.24620  -0.23143
 Alpha  occ. eigenvalues --   -0.21092  -0.19470  -0.17016
 Alpha virt. eigenvalues --   -0.07823  -0.04368  -0.01580   0.00907   0.03071
 Alpha virt. eigenvalues --    0.05023   0.06347   0.07035   0.07419   0.07529
 Alpha virt. eigenvalues --    0.07727   0.08157   0.08522   0.09253   0.09388

 Mulliken charges:
               1
     1  C    0.008850
     2  C   -0.013245
     3  C   -0.172162
     4  C   -0.160298
     5  C   -0.175958
     6  C   -0.180959
     7  C    0.050819
     8  C    0.043923
     9  C   -0.227075
    10  C   -0.213797
    11  C    0.042406
    12  C    0.080399
    13  C   -0.290682
    14  C   -0.310765
    15  C   -0.313301
    16  C   -0.297283
    17  C   -0.098130
    18  C   -0.102530
    19  C   -0.370042
    20  C   -0.348352
    21  C   -0.105004
    22  C   -0.113439
    23  C    0.112548
    24  C    0.116394
    25  C   -0.358506
    26  C   -0.374532
    27  C   -0.122602
    28  C   -0.131522
    29  C   -0.089544
    30  C   -0.058976
    31  C   -0.107383
    32  C   -0.102533
    33  C    0.102328
    34  C    0.191475
    35  C   -0.366061
    36  C   -0.415928
    37  C   -0.103559
    38  C   -0.149496
    39  C   -0.078867
    40  C   -0.068203
    41  H    0.071583
    42  H    0.075777
    43  H    0.102562
    44  H    0.085025
    45  H    0.115418
    46  H    0.094639
    47  H    0.075284
    48  H    0.110996
    49  H    0.091405
    50  H    0.101338
    51  H    0.089368
    52  H    0.073182
    53  H    0.116547
    54  H    0.074019
    55  H    0.089423
    56  H    0.096014
    57  H    0.083851
    58  H    0.102952
    59  H    0.110822
    60  H    0.112378
    61  H    0.097472
    62  H    0.119163
    63  H    0.082554
    64  H    0.095096
    65  H    0.083690
    66  H    0.072032
    67  H    0.120311
    68  H    0.110519
    69  H    0.118033
    70  H    0.140123
    71  H    0.095005
    72  H    0.085268
    73  H    0.084658
    74  H    0.074306
    75  H    0.134079
    76  H    0.089527
    77  H    0.116612
    78  H    0.105278
    79  H    0.129169
    80  H    0.096694
    81  H    0.072028
    82  H    0.049270
    83  H    0.085677
    84  H    0.059915
    85  H    0.077992
    86  H    0.064239
    87  H    0.124949
    88  H    0.100247
    89  H    0.098514
    90  H    0.122853
    91  H    0.122695
    92  H    0.080198
    93  H    0.063938
    94  H    0.079894
    95  H    0.060178
    96  H    0.086838
 Sum of Mulliken charges =  -0.00000

 Dipole moment (field-independent basis, Debye):
    X=              0.1922    Y=             -0.1642    Z=              0.0036  Tot=              0.2528
 Quadrupole moment (field-independent basis, Debye-Ang):
   XX=           -214.8019   YY=           -235.4915   ZZ=           -252.5079
   XY=             -1.5198   XZ=              2.3996   YZ=              2.5237

 Normal termination of Gaussian 16 at Wed Jul 31 21:17:14 2019.
