 Gaussian 16, Revision A.03,
 Gaussian 16:  ES64L-G16RevA.03 25-Dec-2016

 ---------------------------------
 # td=(NStates=1) B3LYP/6-31G(d,p)
 ---------------------------------

 --
 TD
 --
 Symbolic Z-matrix:
 Charge =  0 Multiplicity = 1

                         Standard orientation:
 ---------------------------------------------------------------------
 Center     Atomic      Atomic             Coordinates (Angstroms)
 Number     Number       Type             X           Y           Z
 ---------------------------------------------------------------------
      1          6           0      -11.989063   -0.472529   -0.719361
      2          6           0       12.074042    0.060673    0.926646
      3          6           0      -13.324296    0.325221   -0.661392
      4          6           0       12.894363   -1.193441    1.438749
      5          6           0      -13.102266    1.806313   -0.465099
      6          6           0       13.182117   -2.082576    0.285482
      7          6           0      -10.959817    0.108465    0.248819
      8          6           0       10.840709   -0.452785   -0.005169
      9          6           0      -12.308771    2.166632    0.700602
     10          6           0       12.052781   -2.591649   -0.554346
     11          6           0      -11.158220    1.190374    1.071241
     12          6           0       11.020877   -1.546992   -0.758347
     13          6           0      -11.361817   -0.412289   -2.100285
     14          6           0      -12.401055   -2.004022   -0.581248
     15          6           0       12.967029    1.064212    0.240697
     16          6           0       11.571533    0.764263    2.228437
     17          6           0       -9.838783   -0.832366    0.589742
     18          6           0        9.875377    0.510555   -0.216300
     19          6           0      -10.211735    1.689077    2.065160
     20          6           0       10.033414   -1.933998   -1.837674
     21          6           0       -8.602831   -0.465130    0.367553
     22          6           0        8.501987    0.255431   -0.309641
     23          6           0       -7.414064   -1.345786    0.508877
     24          6           0        7.483247    1.278099   -0.463919
     25          6           0       -7.668726   -2.821451    0.710416
     26          6           0        7.935192    2.715411   -0.709449
     27          6           0       -6.121042   -0.810971    0.368851
     28          6           0        6.163231    0.889259   -0.351464
     29          6           0       -4.883120   -1.526445    0.504820
     30          6           0        4.944857    1.721165   -0.490674
     31          6           0       -3.700089   -0.827871    0.154042
     32          6           0        3.814222    1.218418   -0.315595
     33          6           0       -2.396039   -1.340843    0.159287
     34          6           0        2.426939    1.888454   -0.496619
     35          6           0       -2.306344   -2.834129    0.524891
     36          6           0        2.574730    3.384032   -0.553028
     37          6           0       -1.237500   -0.628364   -0.099665
     38          6           0        1.361539    1.088974   -0.512851
     39          6           0       -1.127999    0.850381   -0.377143
     40          6           0        0.014048    1.519861   -0.472573
     41          1           0      -14.023479   -0.015424    0.204065
     42          1           0      -13.904322    0.190892   -1.512380
     43          1           0       12.335425   -1.855199    2.044660
     44          1           0       13.722688   -1.019087    2.111175
     45          1           0      -14.053916    2.100085   -0.580613
     46          1           0      -12.480547    2.042041   -1.339721
     47          1           0       13.649784   -3.059582    0.525604
     48          1           0       13.862004   -1.478960   -0.505702
     49          1           0      -13.033514    2.200164    1.499289
     50          1           0      -11.924899    3.097031    0.623409
     51          1           0       11.680672   -3.559738   -0.063752
     52          1           0       12.326251   -2.963158   -1.560262
     53          1           0      -11.276559    0.675402   -2.405950
     54          1           0      -11.720385   -1.189047   -3.015663
     55          1           0      -10.184672   -0.952296   -2.124663
     56          1           0      -12.695174   -2.349769    0.355268
     57          1           0      -11.760433   -2.708440   -1.073869
     58          1           0      -13.384937   -2.318868   -1.259862
     59          1           0       13.658717    0.577970   -0.610716
     60          1           0       13.874952    1.168399    1.092223
     61          1           0       12.605860    2.263038    0.101220
     62          1           0       11.027661    0.078982    2.831678
     63          1           0       10.908461    1.566917    1.694593
     64          1           0       12.473854    1.052111    2.748114
     65          1           0      -10.133907   -1.833154    0.646543
     66          1           0       10.255368    1.511587   -0.272525
     67          1           0       -9.422091    1.024626    2.312694
     68          1           0      -10.800077    1.989641    2.992333
     69          1           0       -9.779409    2.599120    1.590097
     70          1           0        9.441862   -1.018099   -2.158048
     71          1           0        9.459124   -2.616800   -1.562259
     72          1           0       10.736225   -2.431033   -2.640732
     73          1           0       -8.416538    0.524757    0.179936
     74          1           0        8.202564   -0.775759   -0.119953
     75          1           0       -8.252240   -2.944842    1.442487
     76          1           0       -6.669601   -3.127136    0.925756
     77          1           0       -8.250075   -3.230703   -0.167178
     78          1           0        8.286256    2.732237   -1.766384
     79          1           0        8.779823    3.044936   -0.056890
     80          1           0        7.211615    3.514028   -0.449345
     81          1           0       -5.960009    0.255566    0.138720
     82          1           0        6.049670   -0.166041   -0.240343
     83          1           0       -4.840057   -2.514426    0.940095
     84          1           0        5.117385    2.733755   -0.798406
     85          1           0       -3.784317    0.241591    0.296690
     86          1           0        3.760690    0.012870   -0.204632
     87          1           0       -2.546885   -2.817118    1.686975
     88          1           0       -1.345361   -3.175450    0.166225
     89          1           0       -3.227406   -3.239387   -0.095203
     90          1           0        2.863211    3.600700   -1.501294
     91          1           0        3.344016    3.588570    0.125592
     92          1           0        1.570082    3.755858   -0.291828
     93          1           0       -0.365210   -1.168651    0.084499
     94          1           0        1.517011    0.176465   -0.335572
     95          1           0       -2.138705    1.210457   -0.435867
     96          1           0       -0.058477    2.768565   -0.465163
 ---------------------------------------------------------------------

 SCF Done:  E(RB3LYP) =  -1557.54865597     A.U. after   15 cycles

 Excitation energies and oscillator strengths:

 Excited State   1:      Singlet-A      2.4330 eV  509.59 nm  f=2.6756  <S**2>=0.000
     147 ->149         0.10876
     148 ->149         0.69323
 This state for optimization and/or second-order correction.
 Total Energy, E(TD-HF/TD-DFT) =  -1557.45924495
 Copying the excited state density for this state as the 1-particle RhoCI density.

 The electronic state is 1-A.
 Alpha  occ. eigenvalues --  -10.21052 -10.20513 -10.20421 -10.20123 -10.20076
 Alpha  occ. eigenvalues --  -10.20044 -10.19966 -10.19820 -10.19589 -10.19481
 Alpha  occ. eigenvalues --  -10.19203 -10.19080 -10.19048 -10.19027 -10.19018
 Alpha  occ. eigenvalues --  -10.18958 -10.18956 -10.18647 -10.18476 -10.18412
 Alpha  occ. eigenvalues --  -10.18322 -10.18308 -10.18201 -10.18113 -10.18109
 Alpha  occ. eigenvalues --  -10.18037 -10.17966 -10.17778 -10.17712 -10.17418
 Alpha  occ. eigenvalues --  -10.17300 -10.17263 -10.17219 -10.17113 -10.17067
 Alpha  occ. eigenvalues --  -10.16871 -10.16700 -10.16653 -10.16297 -10.15910
 Alpha  occ. eigenvalues --   -0.85237  -0.85170  -0.83983  -0.83018  -0.82031
 Alpha  occ. eigenvalues --   -0.81485  -0.79610  -0.78817  -0.78531  -0.78437
 Alpha  occ. eigenvalues --   -0.77604  -0.76056  -0.74886  -0.73038  -0.72467
 Alpha  occ. eigenvalues --   -0.71277  -0.68816  -0.68673  -0.68131  -0.68060
 Alpha  occ. eigenvalues --   -0.67475  -0.67404  -0.66585  -0.66082  -0.65834
 Alpha  occ. eigenvalues --   -0.62414  -0.61653  -0.59280  -0.58829  -0.56909
 Alpha  occ. eigenvalues --   -0.56720  -0.55118  -0.55010  -0.53785  -0.53462
 Alpha  occ. eigenvalues --   -0.53057  -0.52778  -0.51273  -0.50402  -0.49241
 Alpha  occ. eigenvalues --   -0.48735  -0.47563  -0.47017  -0.46802  -0.46502
 Alpha  occ. eigenvalues --   -0.46316  -0.45303  -0.45159  -0.45014  -0.44674
 Alpha  occ. eigenvalues --   -0.44100  -0.43767  -0.42933  -0.42767  -0.42419
 Alpha  occ. eigenvalues --   -0.42281  -0.41983  -0.41926  -0.41759  -0.41597
 Alpha  occ. eigenvalues --   -0.40833  -0.40784  -0.40498  -0.40243  -0.39705
 Alpha  occ. eigenvalues --   -0.39515  -0.39403  -0.39114  -0.38550  -0.38249
 Alpha  occ. eigenvalues --   -0.38066  -0.37902  -0.37701  -0.37642  -0.36831
 Alpha  occ. eigenvalues --   -0.36467  -0.36227  -0.36047  -0.35959  -0.35753
 Alpha  occ. eigenvalues --   -0.35659  -0.34978  -0.34366  -0.33965  -0.33934
 Alpha  occ. eigenvalues --   -0.33812  -0.33756  -0.33297  -0.32818  -0.32462
 Alpha  occ. eigenvalues --   -0.32132  -0.31740  -0.30945  -0.30840  -0.30258
 Alpha  occ. eigenvalues --   -0.29888  -0.29573  -0.29340  -0.28597  -0.27919
 Alpha  occ. eigenvalues --   -0.27483  -0.27134  -0.26473  -0.24457  -0.22892
 Alpha  occ. eigenvalues --   -0.21336  -0.18775  -0.16888
 Alpha virt. eigenvalues --   -0.07477  -0.05003  -0.01570   0.01056   0.02867
 Alpha virt. eigenvalues --    0.03760   0.05846   0.06135   0.06944   0.07354
 Alpha virt. eigenvalues --    0.07559   0.08207   0.08373   0.08619   0.09124

 Mulliken charges:
               1
     1  C    0.023942
     2  C   -0.032830
     3  C   -0.173158
     4  C   -0.165548
     5  C   -0.191116
     6  C   -0.176607
     7  C    0.036646
     8  C    0.084840
     9  C   -0.198424
    10  C   -0.208119
    11  C    0.062803
    12  C    0.065553
    13  C   -0.278023
    14  C   -0.316624
    15  C   -0.268269
    16  C   -0.271824
    17  C   -0.145322
    18  C   -0.147324
    19  C   -0.358977
    20  C   -0.342764
    21  C   -0.039833
    22  C   -0.120725
    23  C    0.055389
    24  C    0.123049
    25  C   -0.348120
    26  C   -0.379776
    27  C   -0.114589
    28  C   -0.143164
    29  C   -0.099414
    30  C   -0.054414
    31  C   -0.129026
    32  C   -0.108676
    33  C    0.082223
    34  C    0.078283
    35  C   -0.354267
    36  C   -0.361592
    37  C   -0.118113
    38  C   -0.052735
    39  C   -0.087639
    40  C   -0.093144
    41  H    0.069182
    42  H    0.099207
    43  H    0.097875
    44  H    0.093112
    45  H    0.097557
    46  H    0.085743
    47  H    0.076267
    48  H    0.063659
    49  H    0.095329
    50  H    0.106896
    51  H    0.091162
    52  H    0.098693
    53  H    0.097391
    54  H    0.073423
    55  H    0.066299
    56  H    0.110619
    57  H    0.103735
    58  H    0.067861
    59  H    0.096860
    60  H    0.065968
    61  H    0.086911
    62  H    0.105926
    63  H    0.079499
    64  H    0.097987
    65  H    0.083063
    66  H    0.087556
    67  H    0.125618
    68  H    0.101906
    69  H    0.112941
    70  H    0.109453
    71  H    0.130963
    72  H    0.070123
    73  H    0.073883
    74  H    0.088735
    75  H    0.134168
    76  H    0.100270
    77  H    0.116958
    78  H    0.127922
    79  H    0.113540
    80  H    0.107679
    81  H    0.076116
    82  H    0.072066
    83  H    0.103688
    84  H    0.084099
    85  H    0.088996
    86  H    0.058860
    87  H    0.114973
    88  H    0.110355
    89  H    0.108201
    90  H    0.141204
    91  H    0.128616
    92  H    0.108203
    93  H    0.067568
    94  H    0.057574
    95  H    0.086152
    96  H    0.048820
 Sum of Mulliken charges =  -0.00000

 Dipole moment (field-independent basis, Debye):
    X=             -0.1108    Y=              0.1143    Z=              0.8434  Tot=              0.8583
 Quadrupole moment (field-independent basis, Debye-Ang):
   XX=           -224.0721   YY=           -234.9339   ZZ=           -255.4702
   XY=             -3.6674   XZ=             -1.7216   YZ=             -2.8192

 Normal termination of Gaussian 16 at Sun Jul 28 06:08:13 2019.
