 Gaussian 16, Revision A.03,
 Gaussian 16:  ES64L-G16RevA.03 25-Dec-2016

 ---------------------------------
 # td=(NStates=1) B3LYP/6-31G(d,p)
 ---------------------------------

 --
 TD
 --
 Symbolic Z-matrix:
 Charge =  0 Multiplicity = 1

                         Standard orientation:
 ---------------------------------------------------------------------
 Center     Atomic      Atomic             Coordinates (Angstroms)
 Number     Number       Type             X           Y           Z
 ---------------------------------------------------------------------
      1          6           0       12.114453    0.545365   -0.683251
      2          6           0      -12.067984   -0.205871    0.799086
      3          6           0       13.421533   -0.231223   -0.545854
      4          6           0      -12.899555    0.897579    1.287636
      5          6           0       13.202727   -1.755807   -0.688094
      6          6           0      -13.436104    1.875983    0.274236
      7          6           0       11.037278   -0.018606    0.139373
      8          6           0      -10.990116    0.356432   -0.129302
      9          6           0       12.229949   -2.243132    0.497833
     10          6           0      -12.340791    2.636325   -0.455547
     11          6           0       11.154203   -1.289552    0.721820
     12          6           0      -11.092258    1.657129   -0.670344
     13          6           0       11.601790    0.521744   -2.082403
     14          6           0       12.611951    2.042926   -0.243139
     15          6           0      -12.947568   -1.167131    0.047128
     16          6           0      -11.405394   -0.841834    1.935532
     17          6           0        9.893641    0.874157    0.363821
     18          6           0       -9.907495   -0.566563   -0.431412
     19          6           0       10.130581   -1.768980    1.720848
     20          6           0      -10.202460    2.194544   -1.721843
     21          6           0        8.597037    0.474360    0.283911
     22          6           0       -8.546706   -0.345260   -0.318037
     23          6           0        7.348396    1.294806    0.470553
     24          6           0       -7.443735   -1.266541   -0.538240
     25          6           0        7.645503    2.691686    0.732899
     26          6           0       -7.846788   -2.617801   -0.922533
     27          6           0        6.170643    0.658954    0.177311
     28          6           0       -6.202353   -0.724368   -0.271806
     29          6           0        4.857160    1.374340    0.356504
     30          6           0       -4.934416   -1.492463   -0.323540
     31          6           0        3.655439    0.718354    0.188350
     32          6           0       -3.718443   -0.904819   -0.161114
     33          6           0        2.352126    1.411001    0.262892
     34          6           0       -2.510904   -1.700378   -0.277849
     35          6           0        2.196202    2.811093    0.498725
     36          6           0       -2.641769   -3.266887   -0.423498
     37          6           0        1.256112    0.602685    0.123811
     38          6           0       -1.369311   -1.087329   -0.065556
     39          6           0        1.112376   -0.805290    0.023789
     40          6           0        0.018103   -1.615487   -0.128134
     41          1           0       13.797561   -0.198066    0.553856
     42          1           0       14.289805    0.120847   -1.139988
     43          1           0      -12.240303    1.493905    2.015922
     44          1           0      -13.925155    0.611663    1.872942
     45          1           0       14.239424   -2.111383   -0.576964
     46          1           0       12.934653   -2.224882   -1.869680
     47          1           0      -14.130433    2.497468    0.802638
     48          1           0      -14.138053    1.509801   -0.462704
     49          1           0       12.915141   -2.569302    1.388407
     50          1           0       11.778935   -3.160213    0.090253
     51          1           0      -12.060590    3.623653    0.350148
     52          1           0      -12.464381    3.112138   -1.602183
     53          1           0       11.606402   -0.579272   -2.543230
     54          1           0       12.378095    1.071658   -2.628575
     55          1           0       10.407757    0.760567   -2.133112
     56          1           0       12.910784    1.925617    0.914950
     57          1           0       11.713103    2.657188   -0.300218
     58          1           0       13.371525    2.420400   -0.814266
     59          1           0      -13.439005   -0.499915   -0.769108
     60          1           0      -13.603790   -1.787340    0.556656
     61          1           0      -12.306912   -1.893897   -0.576799
     62          1           0      -10.901698   -0.077405    2.582997
     63          1           0      -10.493350   -1.646567    1.789693
     64          1           0      -12.034935   -1.431999    2.590003
     65          1           0       10.211726    1.917639    0.590719
     66          1           0      -10.036340   -1.623984   -0.826998
     67          1           0        9.510805   -0.858254    2.202021
     68          1           0       10.602953   -2.206332    2.627741
     69          1           0        9.429392   -2.523864    1.271960
     70          1           0       -9.490201    1.460143   -1.980917
     71          1           0       -9.431299    3.007700   -1.134617
     72          1           0      -10.814203    2.602527   -2.332005
     73          1           0        8.352983   -0.681239    0.143492
     74          1           0       -8.304126    0.698933    0.043740
     75          1           0        8.028254    2.823071    1.818544
     76          1           0        6.779205    3.300969    0.659481
     77          1           0        8.247902    3.133211    0.110594
     78          1           0       -8.217049   -2.611183   -1.952895
     79          1           0       -8.615606   -3.119615   -0.275213
     80          1           0       -7.021352   -3.486710   -0.824553
     81          1           0        6.225880   -0.343327    0.190691
     82          1           0       -5.867933    0.329979    0.107755
     83          1           0        4.764045    2.391859    0.644011
     84          1           0       -4.875565   -2.490495   -0.303316
     85          1           0        3.660987   -0.166178   -0.072700
     86          1           0       -3.733141    0.149730    0.137307
     87          1           0        2.697622    2.962271    1.461377
     88          1           0        1.177873    3.408507    0.409016
     89          1           0        2.885061    3.403646   -0.296402
     90          1           0       -3.509497   -3.499208   -1.205100
     91          1           0       -3.232847   -3.597755    0.501003
     92          1           0       -1.568991   -3.666925   -0.545124
     93          1           0        0.404422    1.291578    0.045393
     94          1           0       -1.614863    0.079938   -0.064607
     95          1           0        2.017077   -1.397627   -0.156288
     96          1           0        0.113928   -2.658515   -0.033117
 ---------------------------------------------------------------------

 SCF Done:  E(RB3LYP) =  -1557.54284983     A.U. after   14 cycles

 Excitation energies and oscillator strengths:

 Excited State   1:      Singlet-A      2.4379 eV  508.57 nm  f=2.7288  <S**2>=0.000
     148 ->149         0.70446
 This state for optimization and/or second-order correction.
 Total Energy, E(TD-HF/TD-DFT) =  -1557.45325950
 Copying the excited state density for this state as the 1-particle RhoCI density.

 The electronic state is 1-A.
 Alpha  occ. eigenvalues --  -10.21864 -10.20706 -10.20319 -10.20270 -10.20191
 Alpha  occ. eigenvalues --  -10.20045 -10.19948 -10.19864 -10.19735 -10.19576
 Alpha  occ. eigenvalues --  -10.19545 -10.19366 -10.19282 -10.19279 -10.19263
 Alpha  occ. eigenvalues --  -10.19178 -10.19088 -10.19039 -10.18967 -10.18824
 Alpha  occ. eigenvalues --  -10.18751 -10.18749 -10.18711 -10.18668 -10.18573
 Alpha  occ. eigenvalues --  -10.18440 -10.18425 -10.18399 -10.18292 -10.18280
 Alpha  occ. eigenvalues --  -10.18268 -10.18245 -10.18076 -10.17441 -10.17353
 Alpha  occ. eigenvalues --  -10.17313 -10.17205 -10.17172 -10.17086 -10.16816
 Alpha  occ. eigenvalues --   -0.85703  -0.85230  -0.83944  -0.83225  -0.82285
 Alpha  occ. eigenvalues --   -0.81786  -0.78806  -0.78529  -0.78238  -0.77174
 Alpha  occ. eigenvalues --   -0.76798  -0.75318  -0.74526  -0.72331  -0.71639
 Alpha  occ. eigenvalues --   -0.70191  -0.69672  -0.68218  -0.67929  -0.67884
 Alpha  occ. eigenvalues --   -0.67537  -0.66719  -0.66490  -0.66213  -0.65616
 Alpha  occ. eigenvalues --   -0.62197  -0.61407  -0.59470  -0.58525  -0.56786
 Alpha  occ. eigenvalues --   -0.56174  -0.55603  -0.55365  -0.54649  -0.53531
 Alpha  occ. eigenvalues --   -0.52494  -0.51586  -0.50418  -0.49312  -0.48517
 Alpha  occ. eigenvalues --   -0.47916  -0.47611  -0.46903  -0.46734  -0.46237
 Alpha  occ. eigenvalues --   -0.45659  -0.45385  -0.44933  -0.44222  -0.43934
 Alpha  occ. eigenvalues --   -0.43797  -0.43488  -0.43317  -0.43050  -0.42658
 Alpha  occ. eigenvalues --   -0.42354  -0.41974  -0.41742  -0.41573  -0.41106
 Alpha  occ. eigenvalues --   -0.40766  -0.40142  -0.39913  -0.39615  -0.39261
 Alpha  occ. eigenvalues --   -0.39115  -0.38893  -0.38786  -0.38509  -0.38048
 Alpha  occ. eigenvalues --   -0.37924  -0.37678  -0.37575  -0.37041  -0.36534
 Alpha  occ. eigenvalues --   -0.36154  -0.35893  -0.35537  -0.34861  -0.34789
 Alpha  occ. eigenvalues --   -0.34518  -0.34221  -0.33927  -0.33515  -0.33116
 Alpha  occ. eigenvalues --   -0.33106  -0.32904  -0.32845  -0.32466  -0.32370
 Alpha  occ. eigenvalues --   -0.31907  -0.31431  -0.31163  -0.30842  -0.30698
 Alpha  occ. eigenvalues --   -0.30477  -0.29831  -0.29596  -0.28901  -0.28841
 Alpha  occ. eigenvalues --   -0.27904  -0.27222  -0.25894  -0.23869  -0.22364
 Alpha  occ. eigenvalues --   -0.20801  -0.18940  -0.17017
 Alpha virt. eigenvalues --   -0.07347  -0.04800  -0.02116   0.00518   0.01813
 Alpha virt. eigenvalues --    0.03623   0.05626   0.06656   0.07015   0.07287
 Alpha virt. eigenvalues --    0.07410   0.07687   0.08049   0.08337   0.08570

 Mulliken charges:
               1
     1  C   -0.001702
     2  C    0.036081
     3  C   -0.167879
     4  C   -0.160824
     5  C   -0.184294
     6  C   -0.184753
     7  C    0.072026
     8  C    0.058379
     9  C   -0.230319
    10  C   -0.187564
    11  C    0.089269
    12  C    0.043434
    13  C   -0.280775
    14  C   -0.304365
    15  C   -0.292600
    16  C   -0.299432
    17  C   -0.146477
    18  C   -0.149019
    19  C   -0.364775
    20  C   -0.313836
    21  C   -0.099267
    22  C   -0.089781
    23  C    0.129468
    24  C    0.138962
    25  C   -0.371339
    26  C   -0.395480
    27  C   -0.125381
    28  C   -0.139234
    29  C   -0.104011
    30  C   -0.061306
    31  C   -0.037681
    32  C   -0.112679
    33  C    0.129201
    34  C    0.134498
    35  C   -0.392255
    36  C   -0.376598
    37  C   -0.120198
    38  C   -0.117323
    39  C   -0.076497
    40  C   -0.123494
    41  H    0.084002
    42  H    0.084243
    43  H    0.085375
    44  H    0.065895
    45  H    0.088346
    46  H    0.050975
    47  H    0.095102
    48  H    0.103263
    49  H    0.098678
    50  H    0.114559
    51  H    0.061220
    52  H    0.073947
    53  H    0.086830
    54  H    0.091724
    55  H    0.097325
    56  H    0.086058
    57  H    0.095952
    58  H    0.113054
    59  H    0.088870
    60  H    0.108600
    61  H    0.084200
    62  H    0.094740
    63  H    0.077674
    64  H    0.095338
    65  H    0.093239
    66  H    0.076065
    67  H    0.101894
    68  H    0.099344
    69  H    0.105329
    70  H    0.124127
    71  H    0.072648
    72  H    0.107541
    73  H    0.072381
    74  H    0.070789
    75  H    0.111831
    76  H    0.104510
    77  H    0.136868
    78  H    0.136463
    79  H    0.129856
    80  H    0.090259
    81  H    0.085209
    82  H    0.085780
    83  H    0.077803
    84  H    0.056364
    85  H    0.044940
    86  H    0.075850
    87  H    0.133675
    88  H    0.113455
    89  H    0.097361
    90  H    0.112873
    91  H    0.125237
    92  H    0.108831
    93  H    0.066822
    94  H    0.068755
    95  H    0.079408
    96  H    0.088345
 Sum of Mulliken charges =  -0.00000

 Dipole moment (field-independent basis, Debye):
    X=              0.8762    Y=              0.1187    Z=              0.5839  Tot=              1.0597
 Quadrupole moment (field-independent basis, Debye-Ang):
   XX=           -224.7214   YY=           -234.8007   ZZ=           -257.3305
   XY=              6.2680   XZ=              5.1866   YZ=              1.7588

 Normal termination of Gaussian 16 at Mon Jul 29 05:02:48 2019.
