 Gaussian 16, Revision A.03,
 Gaussian 16:  ES64L-G16RevA.03 25-Dec-2016

 ---------------------------------
 # td=(NStates=1) B3LYP/6-31G(d,p)
 ---------------------------------

 --
 TD
 --
 Symbolic Z-matrix:
 Charge =  0 Multiplicity = 1

                         Standard orientation:
 ---------------------------------------------------------------------
 Center     Atomic      Atomic             Coordinates (Angstroms)
 Number     Number       Type             X           Y           Z
 ---------------------------------------------------------------------
      1          6           0       12.156361   -0.564675    0.820556
      2          6           0      -12.121138    0.099643   -0.694686
      3          6           0       13.392579    0.280858    0.789376
      4          6           0      -12.949347   -0.994146   -1.292835
      5          6           0       13.122765    1.738135    0.645277
      6          6           0      -13.318136   -2.107617   -0.258373
      7          6           0       11.043930    0.008598   -0.186061
      8          6           0      -11.045697   -0.421291    0.133181
      9          6           0       12.346587    2.136888   -0.633321
     10          6           0      -12.084755   -2.678748    0.445478
     11          6           0       11.226056    1.219436   -0.848913
     12          6           0      -10.999646   -1.667063    0.734121
     13          6           0       11.563777   -0.529324    2.251979
     14          6           0       12.565768   -1.984583    0.450729
     15          6           0      -12.983096    1.012013    0.091644
     16          6           0      -11.554164    0.901137   -1.956087
     17          6           0        9.881390   -0.861229   -0.399978
     18          6           0       -9.852967    0.507791    0.302045
     19          6           0       10.144923    1.719959   -1.805567
     20          6           0      -10.006647   -1.946514    1.858619
     21          6           0        8.618039   -0.370983   -0.422304
     22          6           0       -8.490038    0.255309    0.252703
     23          6           0        7.443137   -1.240061   -0.482050
     24          6           0       -7.497794    1.296840    0.401628
     25          6           0        7.568442   -2.685950   -0.941515
     26          6           0       -7.923714    2.798478    0.600556
     27          6           0        6.106708   -0.737959   -0.223835
     28          6           0       -6.196194    0.831941    0.370761
     29          6           0        4.905024   -1.417049   -0.444250
     30          6           0       -5.035226    1.570990    0.555401
     31          6           0        3.757069   -0.748882   -0.254031
     32          6           0       -3.755231    1.053807    0.384853
     33          6           0        2.401774   -1.291808   -0.390912
     34          6           0       -2.485906    1.773808    0.304440
     35          6           0        2.114827   -2.739133   -0.702505
     36          6           0       -2.643475    3.295331    0.444866
     37          6           0        1.248192   -0.579882   -0.262612
     38          6           0       -1.357560    1.072425    0.083389
     39          6           0        1.141108    0.828646    0.056985
     40          6           0       -0.075004    1.546899    0.123981
     41          1           0       14.112679   -0.195915   -0.053839
     42          1           0       14.031644   -0.021560    1.498930
     43          1           0      -12.437373   -1.525724   -2.244208
     44          1           0      -13.971091   -0.629802   -1.808209
     45          1           0       13.977657    2.500111    0.645279
     46          1           0       12.761296    2.128941    1.641318
     47          1           0      -13.913179   -3.037561   -0.579145
     48          1           0      -14.056807   -1.658019    0.476255
     49          1           0       12.691428    2.030579   -1.413772
     50          1           0       12.009402    3.125810   -0.465769
     51          1           0      -11.619202   -3.549805   -0.014768
     52          1           0      -12.429010   -3.068220    1.360412
     53          1           0       11.363450    0.550155    2.687149
     54          1           0       12.257578   -1.116817    2.993583
     55          1           0       10.644602   -1.006326    2.141206
     56          1           0       12.543386   -2.242270   -0.504217
     57          1           0       11.823196   -2.950549    0.644085
     58          1           0       13.456505   -2.542429    1.003399
     59          1           0      -13.509348    0.180452    0.866345
     60          1           0      -13.736821    1.134926   -0.675971
     61          1           0      -12.436246    1.883897    0.674280
     62          1           0      -10.886769    0.142760   -2.575560
     63          1           0      -11.011393    1.745999   -1.577800
     64          1           0      -12.299107    1.392406   -2.583158
     65          1           0        9.980179   -1.921870   -0.430720
     66          1           0      -10.263507    1.517410    0.614792
     67          1           0        9.429559    0.929384   -2.253810
     68          1           0       10.572182    2.319295   -2.795699
     69          1           0        9.464968    2.556997   -1.448553
     70          1           0       -9.373624   -1.200387    2.129048
     71          1           0       -9.555003   -2.853713    1.447967
     72          1           0      -10.212350   -2.425823    2.745893
     73          1           0        8.338359    0.642732    0.065269
     74          1           0       -8.149042   -0.729585   -0.004021
     75          1           0        8.133020   -2.911846   -1.788149
     76          1           0        6.621735   -3.115531   -0.750339
     77          1           0        8.105207   -3.227952   -0.160897
     78          1           0       -8.463474    2.870936    1.563268
     79          1           0       -8.584465    3.080526   -0.085905
     80          1           0       -6.981287    3.461654    0.644808
     81          1           0        6.045585    0.433223   -0.074590
     82          1           0       -6.078272   -0.355276    0.119495
     83          1           0        4.860452   -2.482209   -0.759896
     84          1           0       -5.119419    2.734466    0.594925
     85          1           0        3.898030    0.280604    0.138349
     86          1           0       -3.617559   -0.180858    0.178539
     87          1           0        3.016299   -2.996909   -1.484442
     88          1           0        0.952837   -2.921821   -1.155781
     89          1           0        2.180028   -3.533441    0.325638
     90          1           0       -3.462131    3.711173    1.172635
     91          1           0       -2.636845    3.965933   -0.652888
     92          1           0       -1.639890    3.866053    0.824442
     93          1           0        0.374977   -0.978151   -0.381217
     94          1           0       -1.572193   -0.071418    0.020546
     95          1           0        2.167136    1.380804    0.104459
     96          1           0       -0.034294    2.592363   -0.015372
 ---------------------------------------------------------------------

 SCF Done:  E(RB3LYP) =  -1557.47496747     A.U. after   16 cycles

 Excitation energies and oscillator strengths:

 Excited State   1:      Singlet-A      2.0120 eV  616.21 nm  f=3.0860  <S**2>=0.000
     148 ->149         0.70896
     148 <-149        -0.11678
 This state for optimization and/or second-order correction.
 Total Energy, E(TD-HF/TD-DFT) =  -1557.40102679
 Copying the excited state density for this state as the 1-particle RhoCI density.

 The electronic state is 1-A.
 Alpha  occ. eigenvalues --  -10.22448 -10.21959 -10.20715 -10.20552 -10.20472
 Alpha  occ. eigenvalues --  -10.20420 -10.20142 -10.19987 -10.19955 -10.19825
 Alpha  occ. eigenvalues --  -10.19777 -10.19685 -10.19487 -10.19405 -10.19340
 Alpha  occ. eigenvalues --  -10.19258 -10.19245 -10.19217 -10.19164 -10.19157
 Alpha  occ. eigenvalues --  -10.19151 -10.19139 -10.19069 -10.19040 -10.18980
 Alpha  occ. eigenvalues --  -10.18771 -10.18709 -10.18651 -10.18528 -10.18516
 Alpha  occ. eigenvalues --  -10.18335 -10.17970 -10.17840 -10.17662 -10.17498
 Alpha  occ. eigenvalues --  -10.17410 -10.17387 -10.17159 -10.16056 -10.15923
 Alpha  occ. eigenvalues --   -0.85663  -0.85387  -0.83582  -0.82917  -0.81847
 Alpha  occ. eigenvalues --   -0.81219  -0.79834  -0.78987  -0.78841  -0.77502
 Alpha  occ. eigenvalues --   -0.76222  -0.75403  -0.73741  -0.72242  -0.71379
 Alpha  occ. eigenvalues --   -0.69443  -0.68906  -0.68835  -0.67973  -0.67951
 Alpha  occ. eigenvalues --   -0.67328  -0.67258  -0.66605  -0.66390  -0.65185
 Alpha  occ. eigenvalues --   -0.62730  -0.61842  -0.60917  -0.59287  -0.57028
 Alpha  occ. eigenvalues --   -0.56894  -0.56040  -0.55485  -0.53373  -0.52859
 Alpha  occ. eigenvalues --   -0.51977  -0.51110  -0.50570  -0.49650  -0.48741
 Alpha  occ. eigenvalues --   -0.48389  -0.47567  -0.46691  -0.46440  -0.46094
 Alpha  occ. eigenvalues --   -0.45817  -0.45663  -0.45038  -0.44605  -0.43957
 Alpha  occ. eigenvalues --   -0.43701  -0.43520  -0.42676  -0.42140  -0.42121
 Alpha  occ. eigenvalues --   -0.41931  -0.41622  -0.41425  -0.41241  -0.40590
 Alpha  occ. eigenvalues --   -0.40442  -0.39908  -0.39161  -0.39076  -0.38990
 Alpha  occ. eigenvalues --   -0.38908  -0.38582  -0.38366  -0.38154  -0.37561
 Alpha  occ. eigenvalues --   -0.37345  -0.37206  -0.37107  -0.36900  -0.36783
 Alpha  occ. eigenvalues --   -0.36645  -0.36079  -0.35828  -0.35587  -0.35285
 Alpha  occ. eigenvalues --   -0.34860  -0.34793  -0.34683  -0.34297  -0.33727
 Alpha  occ. eigenvalues --   -0.33572  -0.33319  -0.32906  -0.32699  -0.32387
 Alpha  occ. eigenvalues --   -0.32367  -0.32252  -0.31900  -0.31056  -0.30677
 Alpha  occ. eigenvalues --   -0.30547  -0.29673  -0.29256  -0.28893  -0.28524
 Alpha  occ. eigenvalues --   -0.28098  -0.27665  -0.26453  -0.23733  -0.22363
 Alpha  occ. eigenvalues --   -0.20643  -0.18424  -0.15833
 Alpha virt. eigenvalues --   -0.08473  -0.05380  -0.01934   0.00962   0.02508
 Alpha virt. eigenvalues --    0.04012   0.05551   0.05747   0.06574   0.06640
 Alpha virt. eigenvalues --    0.06880   0.07770   0.08078   0.08533   0.08706

 Mulliken charges:
               1
     1  C    0.020826
     2  C   -0.025864
     3  C   -0.148688
     4  C   -0.163819
     5  C   -0.214269
     6  C   -0.198930
     7  C    0.047281
     8  C    0.078112
     9  C   -0.142596
    10  C   -0.221249
    11  C    0.042537
    12  C    0.058070
    13  C   -0.281919
    14  C   -0.314173
    15  C   -0.262072
    16  C   -0.288793
    17  C   -0.124614
    18  C   -0.156287
    19  C   -0.364243
    20  C   -0.358261
    21  C   -0.097656
    22  C   -0.087904
    23  C    0.083271
    24  C    0.109053
    25  C   -0.375564
    26  C   -0.363857
    27  C   -0.147933
    28  C   -0.112248
    29  C   -0.048689
    30  C   -0.095044
    31  C   -0.110343
    32  C   -0.118824
    33  C    0.117599
    34  C    0.167697
    35  C   -0.337543
    36  C   -0.369651
    37  C   -0.078537
    38  C   -0.105908
    39  C   -0.097183
    40  C   -0.112270
    41  H    0.057469
    42  H    0.098960
    43  H    0.078540
    44  H    0.069335
    45  H    0.077382
    46  H    0.098770
    47  H    0.082274
    48  H    0.096828
    49  H    0.114062
    50  H    0.107465
    51  H    0.106251
    52  H    0.108713
    53  H    0.085598
    54  H    0.081868
    55  H    0.116874
    56  H    0.127526
    57  H    0.051201
    58  H    0.091522
    59  H    0.070028
    60  H    0.109226
    61  H    0.098028
    62  H    0.092342
    63  H    0.097923
    64  H    0.093712
    65  H    0.089292
    66  H    0.066569
    67  H    0.121316
    68  H    0.059578
    69  H    0.110405
    70  H    0.128801
    71  H    0.097431
    72  H    0.111228
    73  H    0.087673
    74  H    0.089398
    75  H    0.132374
    76  H    0.109982
    77  H    0.115111
    78  H    0.121898
    79  H    0.138421
    80  H    0.099581
    81  H    0.072837
    82  H    0.067643
    83  H    0.092780
    84  H    0.079362
    85  H    0.083974
    86  H    0.054070
    87  H    0.088919
    88  H    0.094591
    89  H    0.084220
    90  H    0.118325
    91  H    0.090883
    92  H    0.090768
    93  H    0.060455
    94  H    0.072846
    95  H    0.072260
    96  H    0.085600
 Sum of Mulliken charges =  -0.00000

 Dipole moment (field-independent basis, Debye):
    X=              0.3743    Y=             -0.0792    Z=              0.1074  Tot=              0.3973
 Quadrupole moment (field-independent basis, Debye-Ang):
   XX=           -215.2495   YY=           -231.4555   ZZ=           -257.3301
   XY=              2.6074   XZ=             -0.9113   YZ=              1.7114

 Normal termination of Gaussian 16 at Wed Jul 31 05:39:54 2019.
