 Gaussian 16, Revision A.03,
 Gaussian 16:  ES64L-G16RevA.03 25-Dec-2016

 ---------------------------------
 # td=(NStates=1) B3LYP/6-31G(d,p)
 ---------------------------------

 --
 TD
 --
 Symbolic Z-matrix:
 Charge =  0 Multiplicity = 1

                         Standard orientation:
 ---------------------------------------------------------------------
 Center     Atomic      Atomic             Coordinates (Angstroms)
 Number     Number       Type             X           Y           Z
 ---------------------------------------------------------------------
      1          6           0      -12.127043    0.552637    0.920648
      2          6           0       12.097148   -0.044831   -0.753424
      3          6           0      -13.376371   -0.313700    0.787713
      4          6           0       13.047891    1.178754   -1.131974
      5          6           0      -13.115465   -1.821825    0.529910
      6          6           0       13.313208    2.158690    0.156886
      7          6           0      -11.070027    0.036184   -0.154642
      8          6           0       10.979718    0.566626    0.168114
      9          6           0      -12.315850   -2.034541   -0.621340
     10          6           0       12.082670    2.705536    0.546856
     11          6           0      -11.218063   -1.099823   -0.799233
     12          6           0       10.965157    1.714787    0.795134
     13          6           0      -11.503043    0.471848    2.309920
     14          6           0      -12.499546    2.111337    0.613410
     15          6           0       12.927821   -1.135840   -0.012922
     16          6           0       11.583946   -0.690034   -2.037614
     17          6           0       -9.865288    0.893772   -0.311966
     18          6           0        9.880566   -0.506709    0.309991
     19          6           0      -10.277606   -1.484758   -1.957283
     20          6           0        9.943533    2.152252    1.740206
     21          6           0       -8.605098    0.554474   -0.166291
     22          6           0        8.588813   -0.362346    0.287713
     23          6           0       -7.340163    1.316891   -0.473233
     24          6           0        7.517841   -1.262279    0.421276
     25          6           0       -7.483620    2.786089   -0.950792
     26          6           0        7.979883   -2.625656    0.706330
     27          6           0       -6.204265    0.721080   -0.331086
     28          6           0        6.208023   -0.918658    0.203150
     29          6           0       -4.866122    1.278633   -0.460019
     30          6           0        4.976597   -1.770469    0.301103
     31          6           0       -3.676726    0.647784   -0.218810
     32          6           0        3.749284   -1.103626    0.204130
     33          6           0       -2.431538    1.151248   -0.523948
     34          6           0        2.568243   -1.918843    0.281216
     35          6           0       -2.249511    2.611478   -0.763424
     36          6           0        2.539130   -3.340524    0.574178
     37          6           0       -1.281740    0.416999   -0.384425
     38          6           0        1.336986   -1.354805    0.092440
     39          6           0       -1.161931   -0.909406   -0.059436
     40          6           0        0.016526   -1.660790    0.125357
     41          1           0      -14.043598    0.035325   -0.087937
     42          1           0      -14.053537   -0.067571    1.832184
     43          1           0       12.509090    1.347580   -2.106048
     44          1           0       14.003745    0.743647   -1.386426
     45          1           0      -13.994128   -2.329822    0.702953
     46          1           0      -12.717953   -2.099671    1.441972
     47          1           0       13.970216    2.874481   -0.385794
     48          1           0       13.877034    1.487881    0.771368
     49          1           0      -12.941396   -2.083442   -1.653992
     50          1           0      -11.930506   -3.195904   -0.536810
     51          1           0       11.622398    3.429257   -0.312921
     52          1           0       12.196457    3.210736    1.428059
     53          1           0      -11.120953   -0.561337    2.685209
     54          1           0      -12.327760    0.718573    3.079991
     55          1           0      -10.641311    1.015300    2.431016
     56          1           0      -12.880595    2.410029   -0.547711
     57          1           0      -11.572754    2.701737    0.768726
     58          1           0      -13.285646    2.461757    1.436278
     59          1           0       13.549176   -0.815466    1.083217
     60          1           0       13.719082   -1.493313   -0.713568
     61          1           0       12.488014   -2.088375    0.093660
     62          1           0       11.165268    0.191941   -2.771233
     63          1           0       10.901912   -1.452494   -1.672025
     64          1           0       12.511144   -1.244326   -2.643026
     65          1           0      -10.165843    1.980626   -0.361508
     66          1           0       10.239432   -1.563373    0.346527
     67          1           0       -9.266457   -0.767298   -1.989026
     68          1           0      -10.858645   -1.587852   -2.634841
     69          1           0       -9.899615   -2.566268   -2.010420
     70          1           0        8.866481    1.591326    2.015677
     71          1           0        9.476300    3.214577    1.308071
     72          1           0       10.463169    2.378545    2.681751
     73          1           0       -8.530830   -0.574472   -0.028558
     74          1           0        8.138048    0.678605    0.152001
     75          1           0       -7.960425    2.781624   -1.842122
     76          1           0       -6.503156    3.282115   -1.148367
     77          1           0       -8.098664    3.712961   -0.347914
     78          1           0        8.549970   -2.581572    1.608764
     79          1           0        8.700051   -3.019111   -0.066641
     80          1           0        7.155074   -3.480767    0.676384
     81          1           0       -6.094092   -0.400630    0.065652
     82          1           0        5.920442    0.034622   -0.001566
     83          1           0       -4.566267    2.362028   -1.025508
     84          1           0        5.112273   -2.852416    0.425426
     85          1           0       -3.832139   -0.386806    0.513625
     86          1           0        3.725700   -0.093717   -0.104708
     87          1           0       -2.492638    2.991854   -1.815960
     88          1           0       -1.136280    2.838925   -0.775734
     89          1           0       -2.642832    3.323190    0.037027
     90          1           0        3.135727   -3.607389    1.431650
     91          1           0        3.196771   -3.852226   -0.093038
     92          1           0        1.567243   -3.636082    0.733252
     93          1           0       -0.445987    1.024827   -0.719080
     94          1           0        1.646857   -0.189855   -0.105739
     95          1           0       -2.004014   -1.497628   -0.167107
     96          1           0       -0.202856   -2.740697    0.521980
 ---------------------------------------------------------------------

 SCF Done:  E(RB3LYP) =  -1557.47150201     A.U. after   16 cycles

 Excitation energies and oscillator strengths:

 Excited State   1:      Singlet-A      2.1823 eV  568.13 nm  f=3.2033  <S**2>=0.000
     148 ->149         0.70869
     148 <-149        -0.13253
 This state for optimization and/or second-order correction.
 Total Energy, E(TD-HF/TD-DFT) =  -1557.39130281
 Copying the excited state density for this state as the 1-particle RhoCI density.

 The electronic state is 1-A.
 Alpha  occ. eigenvalues --  -10.20837 -10.20564 -10.20266 -10.20244 -10.20243
 Alpha  occ. eigenvalues --  -10.20127 -10.20099 -10.19897 -10.19836 -10.19772
 Alpha  occ. eigenvalues --  -10.19721 -10.19675 -10.19635 -10.19395 -10.19334
 Alpha  occ. eigenvalues --  -10.19327 -10.19300 -10.19288 -10.19267 -10.18974
 Alpha  occ. eigenvalues --  -10.18786 -10.18650 -10.18648 -10.18624 -10.18495
 Alpha  occ. eigenvalues --  -10.18492 -10.18383 -10.18381 -10.18324 -10.18314
 Alpha  occ. eigenvalues --  -10.18287 -10.18264 -10.18143 -10.17889 -10.17616
 Alpha  occ. eigenvalues --  -10.17517 -10.17492 -10.16714 -10.16694 -10.16152
 Alpha  occ. eigenvalues --   -0.85439  -0.85327  -0.84382  -0.83804  -0.82907
 Alpha  occ. eigenvalues --   -0.82225  -0.79375  -0.79015  -0.78395  -0.78088
 Alpha  occ. eigenvalues --   -0.77286  -0.75793  -0.74631  -0.72788  -0.72317
 Alpha  occ. eigenvalues --   -0.70843  -0.69106  -0.68559  -0.68291  -0.67797
 Alpha  occ. eigenvalues --   -0.67002  -0.66987  -0.66482  -0.66236  -0.65934
 Alpha  occ. eigenvalues --   -0.63345  -0.62140  -0.60425  -0.59632  -0.57885
 Alpha  occ. eigenvalues --   -0.56621  -0.55923  -0.54994  -0.54165  -0.52436
 Alpha  occ. eigenvalues --   -0.51996  -0.50780  -0.49845  -0.49719  -0.48880
 Alpha  occ. eigenvalues --   -0.48585  -0.48063  -0.47429  -0.47231  -0.46194
 Alpha  occ. eigenvalues --   -0.46054  -0.45352  -0.45214  -0.44703  -0.44504
 Alpha  occ. eigenvalues --   -0.43665  -0.42982  -0.42530  -0.42415  -0.42073
 Alpha  occ. eigenvalues --   -0.41965  -0.41617  -0.41367  -0.41160  -0.40805
 Alpha  occ. eigenvalues --   -0.40790  -0.40198  -0.40185  -0.39883  -0.39262
 Alpha  occ. eigenvalues --   -0.38965  -0.38915  -0.38504  -0.38368  -0.37925
 Alpha  occ. eigenvalues --   -0.37361  -0.37231  -0.36741  -0.36463  -0.36433
 Alpha  occ. eigenvalues --   -0.36209  -0.36007  -0.35625  -0.35368  -0.35272
 Alpha  occ. eigenvalues --   -0.34965  -0.34524  -0.34159  -0.33848  -0.33800
 Alpha  occ. eigenvalues --   -0.33377  -0.33250  -0.33069  -0.32354  -0.32099
 Alpha  occ. eigenvalues --   -0.31780  -0.31498  -0.31286  -0.31007  -0.30715
 Alpha  occ. eigenvalues --   -0.30190  -0.29709  -0.29480  -0.29141  -0.28787
 Alpha  occ. eigenvalues --   -0.27895  -0.26567  -0.26460  -0.24735  -0.23461
 Alpha  occ. eigenvalues --   -0.21706  -0.19976  -0.16379
 Alpha virt. eigenvalues --   -0.08681  -0.04400  -0.01634   0.01155   0.02796
 Alpha virt. eigenvalues --    0.04674   0.05890   0.06141   0.06304   0.06675
 Alpha virt. eigenvalues --    0.07166   0.07891   0.08185   0.08583   0.08885

 Mulliken charges:
               1
     1  C    0.021039
     2  C   -0.020781
     3  C   -0.178400
     4  C   -0.196524
     5  C   -0.177474
     6  C   -0.191221
     7  C    0.059378
     8  C    0.101066
     9  C   -0.210995
    10  C   -0.173371
    11  C    0.079618
    12  C    0.065664
    13  C   -0.292454
    14  C   -0.296043
    15  C   -0.285541
    16  C   -0.284054
    17  C   -0.136199
    18  C   -0.161022
    19  C   -0.327670
    20  C   -0.351401
    21  C   -0.108217
    22  C   -0.073503
    23  C    0.130095
    24  C    0.155726
    25  C   -0.367353
    26  C   -0.389489
    27  C   -0.127213
    28  C   -0.137364
    29  C   -0.089869
    30  C   -0.080287
    31  C   -0.093701
    32  C   -0.116565
    33  C    0.122302
    34  C    0.147309
    35  C   -0.391725
    36  C   -0.379130
    37  C   -0.090732
    38  C   -0.095380
    39  C   -0.086948
    40  C   -0.123879
    41  H    0.082460
    42  H    0.041594
    43  H    0.081328
    44  H    0.081688
    45  H    0.098104
    46  H    0.112204
    47  H    0.103697
    48  H    0.116049
    49  H    0.082259
    50  H    0.079713
    51  H    0.094127
    52  H    0.096047
    53  H    0.090894
    54  H    0.086541
    55  H    0.121091
    56  H    0.080619
    57  H    0.105975
    58  H    0.088442
    59  H    0.060940
    60  H    0.094546
    61  H    0.104120
    62  H    0.089537
    63  H    0.110837
    64  H    0.076547
    65  H    0.074577
    66  H    0.074263
    67  H    0.102943
    68  H    0.115999
    69  H    0.080689
    70  H    0.107027
    71  H    0.079643
    72  H    0.114700
    73  H    0.082802
    74  H    0.060869
    75  H    0.141248
    76  H    0.111460
    77  H    0.084213
    78  H    0.131205
    79  H    0.115005
    80  H    0.082857
    81  H    0.080562
    82  H    0.066069
    83  H    0.066910
    84  H    0.081697
    85  H    0.059081
    86  H    0.096919
    87  H    0.112493
    88  H    0.100847
    89  H    0.125071
    90  H    0.117310
    91  H    0.122546
    92  H    0.114552
    93  H    0.077656
    94  H    0.035355
    95  H    0.092427
    96  H    0.063960
 Sum of Mulliken charges =  -0.00000

 Dipole moment (field-independent basis, Debye):
    X=              1.3631    Y=             -0.0993    Z=              0.0731  Tot=              1.3686
 Quadrupole moment (field-independent basis, Debye-Ang):
   XX=           -222.0427   YY=           -235.4876   ZZ=           -254.3758
   XY=              2.5750   XZ=              2.3065   YZ=             -3.2968

 Normal termination of Gaussian 16 at Sat Jul 27 13:54:42 2019.
