 Gaussian 16, Revision A.03,
 Gaussian 16:  ES64L-G16RevA.03 25-Dec-2016

 ---------------------------------
 # td=(NStates=1) B3LYP/6-31G(d,p)
 ---------------------------------

 --
 TD
 --
 Symbolic Z-matrix:
 Charge =  0 Multiplicity = 1

                         Standard orientation:
 ---------------------------------------------------------------------
 Center     Atomic      Atomic             Coordinates (Angstroms)
 Number     Number       Type             X           Y           Z
 ---------------------------------------------------------------------
      1          6           0      -12.207248   -0.657977   -0.607041
      2          6           0       12.107595   -0.152922    0.893152
      3          6           0      -13.467522    0.081464   -0.335866
      4          6           0       12.894847   -1.398681    1.298097
      5          6           0      -13.329531    1.645494   -0.573853
      6          6           0       13.349165   -2.143516    0.103291
      7          6           0      -11.032005   -0.053540    0.270987
      8          6           0       10.978817   -0.503269   -0.083626
      9          6           0      -12.366793    2.055237    0.596301
     10          6           0       12.171415   -2.604165   -0.720949
     11          6           0      -11.242909    1.130008    0.802243
     12          6           0       11.002271   -1.626154   -0.935760
     13          6           0      -11.834754   -0.657386   -2.059293
     14          6           0      -12.500482   -2.088173   -0.343595
     15          6           0       12.997128    1.043946    0.311223
     16          6           0       11.568363    0.459510    2.213343
     17          6           0       -9.841309   -0.975637    0.320052
     18          6           0        9.984474    0.567994   -0.205952
     19          6           0      -10.103413    1.682794    1.776750
     20          6           0        9.944205   -1.961607   -1.879389
     21          6           0       -8.506283   -0.482336    0.265252
     22          6           0        8.672534    0.424626   -0.255399
     23          6           0       -7.292482   -1.269026    0.410641
     24          6           0        7.442809    1.353728   -0.516144
     25          6           0       -7.499556   -2.711355    0.819557
     26          6           0        7.910112    2.745775   -0.664708
     27          6           0       -6.110985   -0.688818    0.198298
     28          6           0        6.175964    0.947247   -0.253108
     29          6           0       -4.819505   -1.292244    0.242478
     30          6           0        5.086942    1.750982   -0.447872
     31          6           0       -3.645231   -0.537538    0.095625
     32          6           0        3.735898    1.291023   -0.156392
     33          6           0       -2.347887   -1.145896    0.227765
     34          6           0        2.456870    2.012996   -0.395838
     35          6           0       -2.227525   -2.693139    0.498137
     36          6           0        2.627455    3.454925   -0.730150
     37          6           0       -1.178096   -0.440630   -0.049535
     38          6           0        1.381184    1.215572   -0.110544
     39          6           0       -1.163795    0.996288   -0.134430
     40          6           0       -0.003899    1.733184   -0.156147
     41          1           0      -13.886879   -0.225845    0.531116
     42          1           0      -14.079568   -0.388164   -1.064912
     43          1           0       12.142528   -2.106037    1.961868
     44          1           0       13.989471   -1.106091    1.663050
     45          1           0      -14.422436    2.139160   -0.546550
     46          1           0      -12.957026    2.000766   -1.705761
     47          1           0       13.893110   -3.023125    0.608326
     48          1           0       14.015736   -1.649109   -0.491053
     49          1           0      -12.973740    2.324121    1.538717
     50          1           0      -12.002600    3.067088    0.177896
     51          1           0       11.758679   -3.452775   -0.083195
     52          1           0       12.492737   -3.103640   -1.622169
     53          1           0      -11.520967    0.348856   -2.504407
     54          1           0      -12.605680   -1.101554   -2.702182
     55          1           0      -10.849832   -1.030128   -2.426280
     56          1           0      -12.611003   -2.061086    0.736992
     57          1           0      -11.591757   -2.874724   -0.434271
     58          1           0      -13.417980   -2.305362   -0.874317
     59          1           0       13.606801    0.759840   -0.571953
     60          1           0       13.681201    1.222186    1.201978
     61          1           0       12.375696    1.891965   -0.030820
     62          1           0       10.824690   -0.321791    2.513637
     63          1           0       10.826516    1.283130    2.189764
     64          1           0       12.072322    0.780550    3.209096
     65          1           0      -10.045972   -1.952785    0.647865
     66          1           0       10.501015    1.469825   -0.447146
     67          1           0       -9.615236    0.908717    2.471321
     68          1           0      -10.351883    2.415967    2.550048
     69          1           0       -9.305377    2.129577    1.145102
     70          1           0        9.392915   -1.122631   -2.236553
     71          1           0        9.389410   -2.857516   -1.531730
     72          1           0       10.371655   -2.425533   -2.765170
     73          1           0       -8.321416    0.596386   -0.083303
     74          1           0        8.363000   -0.586655    0.136164
     75          1           0       -8.046566   -2.611672    1.837915
     76          1           0       -6.546556   -3.211265    1.206953
     77          1           0       -8.153797   -3.085649    0.058165
     78          1           0        8.695807    2.719804   -1.455256
     79          1           0        8.363957    3.186536    0.179836
     80          1           0        7.030962    3.394627   -0.496746
     81          1           0       -5.908030    0.312547   -0.156159
     82          1           0        6.103655   -0.163002   -0.131641
     83          1           0       -4.734024   -2.412004    0.348130
     84          1           0        5.191594    2.582863   -0.921139
     85          1           0       -3.568282    0.448478   -0.043423
     86          1           0        3.825358    0.360225    0.605507
     87          1           0       -2.758641   -2.888907    1.315011
     88          1           0       -1.054009   -3.122665    0.667886
     89          1           0       -2.664557   -3.262009   -0.184712
     90          1           0        3.152784    3.728981   -1.747471
     91          1           0        2.950770    3.899983    0.246708
     92          1           0        1.504610    3.797902   -0.594542
     93          1           0       -0.302829   -0.957579    0.135266
     94          1           0        1.454428    0.101976   -0.001898
     95          1           0       -2.034770    1.728922   -0.090437
     96          1           0       -0.241016    2.755618   -0.304710
 ---------------------------------------------------------------------

 SCF Done:  E(RB3LYP) =  -1557.55603672     A.U. after   15 cycles

 Excitation energies and oscillator strengths:

 Excited State   1:      Singlet-A      2.2139 eV  560.03 nm  f=2.6511  <S**2>=0.000
     148 ->149         0.70464
 This state for optimization and/or second-order correction.
 Total Energy, E(TD-HF/TD-DFT) =  -1557.47467801
 Copying the excited state density for this state as the 1-particle RhoCI density.

 The electronic state is 1-A.
 Alpha  occ. eigenvalues --  -10.20830 -10.20640 -10.20639 -10.20216 -10.20157
 Alpha  occ. eigenvalues --  -10.19977 -10.19853 -10.19764 -10.19725 -10.19711
 Alpha  occ. eigenvalues --  -10.19706 -10.19695 -10.19590 -10.19465 -10.19339
 Alpha  occ. eigenvalues --  -10.19266 -10.19266 -10.19118 -10.18517 -10.18460
 Alpha  occ. eigenvalues --  -10.18451 -10.18437 -10.18369 -10.18363 -10.18295
 Alpha  occ. eigenvalues --  -10.18230 -10.18213 -10.18019 -10.17950 -10.17922
 Alpha  occ. eigenvalues --  -10.17826 -10.17569 -10.17554 -10.17502 -10.17420
 Alpha  occ. eigenvalues --  -10.17128 -10.17089 -10.17012 -10.16525 -10.16184
 Alpha  occ. eigenvalues --   -0.85431  -0.84756  -0.83586  -0.83022  -0.82213
 Alpha  occ. eigenvalues --   -0.81228  -0.79003  -0.78643  -0.77976  -0.77818
 Alpha  occ. eigenvalues --   -0.76219  -0.75107  -0.74178  -0.72565  -0.70791
 Alpha  occ. eigenvalues --   -0.70420  -0.68931  -0.68210  -0.67889  -0.67824
 Alpha  occ. eigenvalues --   -0.67203  -0.66870  -0.66774  -0.66681  -0.66110
 Alpha  occ. eigenvalues --   -0.63170  -0.61690  -0.59276  -0.59007  -0.56715
 Alpha  occ. eigenvalues --   -0.56604  -0.55383  -0.55042  -0.54193  -0.53494
 Alpha  occ. eigenvalues --   -0.52784  -0.51961  -0.50016  -0.49307  -0.49139
 Alpha  occ. eigenvalues --   -0.48471  -0.48357  -0.46946  -0.46398  -0.46127
 Alpha  occ. eigenvalues --   -0.45670  -0.45167  -0.44978  -0.44300  -0.43837
 Alpha  occ. eigenvalues --   -0.43681  -0.43491  -0.43336  -0.42954  -0.42514
 Alpha  occ. eigenvalues --   -0.42493  -0.42013  -0.41800  -0.41356  -0.41101
 Alpha  occ. eigenvalues --   -0.40812  -0.39904  -0.39786  -0.39414  -0.39280
 Alpha  occ. eigenvalues --   -0.38982  -0.38705  -0.38484  -0.38368  -0.38150
 Alpha  occ. eigenvalues --   -0.37612  -0.37282  -0.37176  -0.36772  -0.36570
 Alpha  occ. eigenvalues --   -0.36410  -0.36215  -0.35530  -0.35088  -0.34908
 Alpha  occ. eigenvalues --   -0.34401  -0.34153  -0.34008  -0.33879  -0.33632
 Alpha  occ. eigenvalues --   -0.33466  -0.33196  -0.32830  -0.32744  -0.32264
 Alpha  occ. eigenvalues --   -0.32176  -0.31820  -0.31421  -0.30383  -0.30318
 Alpha  occ. eigenvalues --   -0.30052  -0.30023  -0.29232  -0.28653  -0.28117
 Alpha  occ. eigenvalues --   -0.27680  -0.26662  -0.25792  -0.24315  -0.22216
 Alpha  occ. eigenvalues --   -0.20980  -0.18894  -0.16486
 Alpha virt. eigenvalues --   -0.07997  -0.05299  -0.01457   0.00460   0.02023
 Alpha virt. eigenvalues --    0.04384   0.05531   0.06666   0.06931   0.07500
 Alpha virt. eigenvalues --    0.07777   0.08046   0.08254   0.08576   0.09126

 Mulliken charges:
               1
     1  C   -0.008272
     2  C    0.001809
     3  C   -0.161117
     4  C   -0.153080
     5  C   -0.186202
     6  C   -0.182104
     7  C    0.077501
     8  C    0.019825
     9  C   -0.225474
    10  C   -0.225550
    11  C    0.058942
    12  C    0.100382
    13  C   -0.284242
    14  C   -0.295201
    15  C   -0.299325
    16  C   -0.313971
    17  C   -0.139834
    18  C   -0.118783
    19  C   -0.362500
    20  C   -0.370153
    21  C   -0.089683
    22  C   -0.105624
    23  C    0.107184
    24  C    0.087049
    25  C   -0.370358
    26  C   -0.369907
    27  C   -0.109259
    28  C   -0.100299
    29  C   -0.100306
    30  C   -0.080542
    31  C   -0.070629
    32  C   -0.132270
    33  C    0.071469
    34  C    0.104433
    35  C   -0.361343
    36  C   -0.372185
    37  C   -0.116214
    38  C   -0.100440
    39  C   -0.095630
    40  C   -0.110463
    41  H    0.101627
    42  H    0.076792
    43  H    0.079290
    44  H    0.073746
    45  H    0.073211
    46  H    0.084188
    47  H    0.081802
    48  H    0.109499
    49  H    0.105719
    50  H    0.102037
    51  H    0.093485
    52  H    0.091247
    53  H    0.074119
    54  H    0.089453
    55  H    0.100066
    56  H    0.095673
    57  H    0.080086
    58  H    0.100918
    59  H    0.090469
    60  H    0.099807
    61  H    0.105816
    62  H    0.088421
    63  H    0.097988
    64  H    0.096210
    65  H    0.095532
    66  H    0.075719
    67  H    0.106455
    68  H    0.095107
    69  H    0.110783
    70  H    0.130689
    71  H    0.116395
    72  H    0.100305
    73  H    0.080664
    74  H    0.066146
    75  H    0.115107
    76  H    0.107463
    77  H    0.138028
    78  H    0.119675
    79  H    0.133028
    80  H    0.097725
    81  H    0.077860
    82  H    0.084404
    83  H    0.076174
    84  H    0.073931
    85  H    0.072042
    86  H    0.069377
    87  H    0.128951
    88  H    0.072087
    89  H    0.135999
    90  H    0.133135
    91  H    0.141066
    92  H    0.096635
    93  H    0.083526
    94  H    0.096687
    95  H    0.085948
    96  H    0.074054
 Sum of Mulliken charges =  -0.00000

 Dipole moment (field-independent basis, Debye):
    X=             -0.1319    Y=              0.1410    Z=              0.1404  Tot=              0.2388
 Quadrupole moment (field-independent basis, Debye-Ang):
   XX=           -236.8004   YY=           -234.8651   ZZ=           -253.9915
   XY=             -1.5577   XZ=             -8.0896   YZ=             -2.2578

 Normal termination of Gaussian 16 at Fri Jul 26 12:58:38 2019.
