 Gaussian 16, Revision A.03,
 Gaussian 16:  ES64L-G16RevA.03 25-Dec-2016

 ---------------------------------
 # td=(NStates=1) B3LYP/6-31G(d,p)
 ---------------------------------

 --
 TD
 --
 Symbolic Z-matrix:
 Charge =  0 Multiplicity = 1

                         Standard orientation:
 ---------------------------------------------------------------------
 Center     Atomic      Atomic             Coordinates (Angstroms)
 Number     Number       Type             X           Y           Z
 ---------------------------------------------------------------------
      1          6           0       12.169866   -0.611539    0.714336
      2          6           0      -12.135739   -0.091893   -0.738951
      3          6           0       13.455127    0.187234    0.847079
      4          6           0      -12.993074   -1.183113   -1.061056
      5          6           0       13.206707    1.657245    0.810031
      6          6           0      -13.324444   -2.094451    0.016631
      7          6           0       11.031259   -0.059537   -0.130601
      8          6           0      -11.021363   -0.453861    0.134551
      9          6           0       12.374198    2.094846   -0.392851
     10          6           0      -12.153111   -2.624754    0.736880
     11          6           0       11.197993    1.174834   -0.630941
     12          6           0      -11.053682   -1.549194    0.865556
     13          6           0       11.684808   -0.699661    2.118827
     14          6           0       12.567599   -2.107826    0.311288
     15          6           0      -13.051839    1.075561   -0.065334
     16          6           0      -11.612060    0.574347   -2.078822
     17          6           0        9.865315   -0.887173   -0.405926
     18          6           0       -9.908689    0.605908    0.195304
     19          6           0       10.237065    1.832690   -1.602639
     20          6           0      -10.075062   -2.035822    1.894316
     21          6           0        8.500164   -0.397660   -0.506154
     22          6           0       -8.599310    0.332425    0.215292
     23          6           0        7.338660   -1.219071   -0.630733
     24          6           0       -7.451366    1.327677    0.281386
     25          6           0        7.488026   -2.675311   -0.897512
     26          6           0       -7.897775    2.681431    0.645190
     27          6           0        6.176434   -0.637853   -0.472561
     28          6           0       -6.171680    0.874667    0.158749
     29          6           0        4.872275   -1.284184   -0.550770
     30          6           0       -4.988090    1.641802    0.349342
     31          6           0        3.684952   -0.628221   -0.369590
     32          6           0       -3.702928    1.057466    0.173797
     33          6           0        2.409994   -1.265594   -0.430763
     34          6           0       -2.461058    1.843460    0.233285
     35          6           0        2.208141   -2.813717   -0.627589
     36          6           0       -2.546488    3.342626    0.493496
     37          6           0        1.248838   -0.451853   -0.276946
     38          6           0       -1.357449    1.123073    0.118694
     39          6           0        1.185493    0.911061    0.042475
     40          6           0        0.037371    1.670460    0.155399
     41          1           0       14.005171   -0.066001   -0.093340
     42          1           0       13.874355    0.064207    1.706956
     43          1           0      -12.556354   -1.606361   -1.940798
     44          1           0      -14.053333   -0.931554   -1.478796
     45          1           0       14.105690    1.968575    0.753421
     46          1           0       12.780285    1.950124    1.826712
     47          1           0      -13.975057   -2.806690   -0.445595
     48          1           0      -14.059098   -1.479155    0.792848
     49          1           0       12.935044    2.076358   -1.285673
     50          1           0       11.932292    3.102857   -0.168673
     51          1           0      -11.660997   -3.266642    0.077855
     52          1           0      -12.318823   -3.024289    1.747982
     53          1           0       11.577118    0.208790    2.553221
     54          1           0       12.222284   -1.186872    3.094638
     55          1           0       10.663690   -1.087553    2.179330
     56          1           0       12.635986   -2.153738   -0.814833
     57          1           0       11.930766   -3.054567    0.737413
     58          1           0       13.578965   -2.276036    0.478810
     59          1           0      -13.349101    0.544926    0.653108
     60          1           0      -13.871530    1.531501   -0.657120
     61          1           0      -12.636589    1.990444    0.398564
     62          1           0      -10.934182   -0.191104   -2.516648
     63          1           0      -11.006015    1.336803   -1.951818
     64          1           0      -12.400892    0.848459   -2.771186
     65          1           0        9.898755   -1.910136   -0.231035
     66          1           0      -10.438843    1.664738    0.174847
     67          1           0        9.573549    1.109674   -1.968613
     68          1           0       10.695230    2.619725   -2.404604
     69          1           0        9.714824    2.643310   -0.983278
     70          1           0       -9.391631   -1.187558    2.094402
     71          1           0       -9.472337   -2.906349    1.458140
     72          1           0      -10.488810   -2.183347    2.972032
     73          1           0        8.334023    0.834888   -0.218424
     74          1           0       -8.210545   -0.757467    0.045441
     75          1           0        7.900991   -2.951527   -1.879542
     76          1           0        6.561933   -3.171596   -0.938267
     77          1           0        8.040994   -3.335029   -0.162797
     78          1           0       -8.688197    2.777852    1.473111
     79          1           0       -8.247520    3.413049   -0.393177
     80          1           0       -7.017090    3.299625    1.279371
     81          1           0        5.919764    0.449177   -0.388935
     82          1           0       -5.904030   -0.203612    0.225502
     83          1           0        4.749022   -2.383629   -0.656071
     84          1           0       -5.239602    2.695757    0.381839
     85          1           0        3.540523    0.360077   -0.217970
     86          1           0       -3.537342   -0.036937    0.073350
     87          1           0        3.084664   -3.104003   -1.440725
     88          1           0        1.210642   -3.005372   -1.037845
     89          1           0        2.248988   -3.390725    0.317270
     90          1           0       -3.244567    3.626188    1.367480
     91          1           0       -2.980604    3.902603   -0.338588
     92          1           0       -1.521570    3.778671    0.631350
     93          1           0        0.160135   -0.868480   -0.308290
     94          1           0       -1.595401    0.161593   -0.068918
     95          1           0        2.070050    1.487513    0.211204
     96          1           0        0.243868    2.659673    0.202396
 ---------------------------------------------------------------------

 SCF Done:  E(RB3LYP) =  -1557.56215555     A.U. after   15 cycles

 Excitation energies and oscillator strengths:

 Excited State   1:      Singlet-A      2.1647 eV  572.76 nm  f=2.9861  <S**2>=0.000
     148 ->149         0.70826
     148 <-149        -0.10031
 This state for optimization and/or second-order correction.
 Total Energy, E(TD-HF/TD-DFT) =  -1557.48260481
 Copying the excited state density for this state as the 1-particle RhoCI density.

 The electronic state is 1-A.
 Alpha  occ. eigenvalues --  -10.21767 -10.20749 -10.20579 -10.20164 -10.20152
 Alpha  occ. eigenvalues --  -10.20079 -10.19646 -10.19633 -10.19520 -10.19433
 Alpha  occ. eigenvalues --  -10.19367 -10.19332 -10.19149 -10.19085 -10.19031
 Alpha  occ. eigenvalues --  -10.18918 -10.18841 -10.18836 -10.18772 -10.18703
 Alpha  occ. eigenvalues --  -10.18648 -10.18562 -10.18364 -10.18306 -10.18270
 Alpha  occ. eigenvalues --  -10.18203 -10.18200 -10.18142 -10.18071 -10.18016
 Alpha  occ. eigenvalues --  -10.17800 -10.17778 -10.17768 -10.17104 -10.16523
 Alpha  occ. eigenvalues --  -10.16181 -10.16109 -10.15962 -10.15379 -10.15222
 Alpha  occ. eigenvalues --   -0.86533  -0.85794  -0.83858  -0.83398  -0.82148
 Alpha  occ. eigenvalues --   -0.81432  -0.79011  -0.78584  -0.78440  -0.77998
 Alpha  occ. eigenvalues --   -0.77545  -0.75106  -0.73968  -0.71777  -0.71301
 Alpha  occ. eigenvalues --   -0.69799  -0.69236  -0.68775  -0.68243  -0.67933
 Alpha  occ. eigenvalues --   -0.67806  -0.67695  -0.67481  -0.67115  -0.66051
 Alpha  occ. eigenvalues --   -0.63286  -0.61710  -0.60168  -0.59474  -0.57441
 Alpha  occ. eigenvalues --   -0.56925  -0.56045  -0.55514  -0.53958  -0.53391
 Alpha  occ. eigenvalues --   -0.53084  -0.51595  -0.50348  -0.49318  -0.48669
 Alpha  occ. eigenvalues --   -0.48503  -0.48073  -0.47290  -0.47043  -0.46438
 Alpha  occ. eigenvalues --   -0.45950  -0.45366  -0.44837  -0.44511  -0.44114
 Alpha  occ. eigenvalues --   -0.43740  -0.43260  -0.42984  -0.42727  -0.42006
 Alpha  occ. eigenvalues --   -0.41464  -0.41350  -0.41082  -0.41010  -0.40872
 Alpha  occ. eigenvalues --   -0.40500  -0.40260  -0.40097  -0.39727  -0.39675
 Alpha  occ. eigenvalues --   -0.39265  -0.39058  -0.38654  -0.38489  -0.38357
 Alpha  occ. eigenvalues --   -0.38005  -0.37766  -0.37275  -0.36898  -0.36792
 Alpha  occ. eigenvalues --   -0.36230  -0.35882  -0.35664  -0.35639  -0.35269
 Alpha  occ. eigenvalues --   -0.34896  -0.34820  -0.34651  -0.34439  -0.34034
 Alpha  occ. eigenvalues --   -0.33731  -0.33240  -0.32982  -0.32932  -0.32599
 Alpha  occ. eigenvalues --   -0.32447  -0.31820  -0.31654  -0.31165  -0.30382
 Alpha  occ. eigenvalues --   -0.30360  -0.29826  -0.29414  -0.28971  -0.28668
 Alpha  occ. eigenvalues --   -0.28106  -0.27520  -0.26433  -0.25032  -0.22785
 Alpha  occ. eigenvalues --   -0.21054  -0.18741  -0.16367
 Alpha virt. eigenvalues --   -0.08206  -0.05249  -0.02018   0.01064   0.02910
 Alpha virt. eigenvalues --    0.04680   0.05924   0.06432   0.07317   0.07960
 Alpha virt. eigenvalues --    0.08064   0.08272   0.08382   0.08625   0.08703

 Mulliken charges:
               1
     1  C    0.000564
     2  C   -0.021360
     3  C   -0.167811
     4  C   -0.173365
     5  C   -0.179585
     6  C   -0.176693
     7  C    0.122643
     8  C    0.109203
     9  C   -0.220358
    10  C   -0.188976
    11  C    0.041508
    12  C    0.013426
    13  C   -0.302193
    14  C   -0.315669
    15  C   -0.305365
    16  C   -0.299771
    17  C   -0.145299
    18  C   -0.130498
    19  C   -0.358338
    20  C   -0.365011
    21  C   -0.129450
    22  C   -0.106395
    23  C    0.148056
    24  C    0.133223
    25  C   -0.388281
    26  C   -0.354992
    27  C   -0.116114
    28  C   -0.116852
    29  C   -0.102219
    30  C   -0.091424
    31  C   -0.061563
    32  C   -0.143739
    33  C    0.080826
    34  C    0.164654
    35  C   -0.362177
    36  C   -0.381560
    37  C   -0.131056
    38  C   -0.108019
    39  C   -0.069525
    40  C   -0.109674
    41  H    0.076529
    42  H    0.103392
    43  H    0.094284
    44  H    0.076805
    45  H    0.096618
    46  H    0.084982
    47  H    0.089786
    48  H    0.064641
    49  H    0.118182
    50  H    0.097806
    51  H    0.118924
    52  H    0.098054
    53  H    0.104680
    54  H    0.064527
    55  H    0.094857
    56  H    0.087218
    57  H    0.081603
    58  H    0.112134
    59  H    0.112481
    60  H    0.092402
    61  H    0.083971
    62  H    0.083048
    63  H    0.108063
    64  H    0.093618
    65  H    0.090481
    66  H    0.093788
    67  H    0.130389
    68  H    0.080726
    69  H    0.102137
    70  H    0.114534
    71  H    0.107567
    72  H    0.098493
    73  H    0.075971
    74  H    0.079702
    75  H    0.126105
    76  H    0.115369
    77  H    0.114031
    78  H    0.127188
    79  H    0.080180
    80  H    0.074530
    81  H    0.082997
    82  H    0.077263
    83  H    0.076915
    84  H    0.087162
    85  H    0.065033
    86  H    0.083969
    87  H    0.090571
    88  H    0.118833
    89  H    0.129727
    90  H    0.113172
    91  H    0.127175
    92  H    0.105877
    93  H    0.071916
    94  H    0.070961
    95  H    0.079060
    96  H    0.078803
 Sum of Mulliken charges =  -0.00000

 Dipole moment (field-independent basis, Debye):
    X=              0.8755    Y=              0.1029    Z=              0.3498  Tot=              0.9484
 Quadrupole moment (field-independent basis, Debye-Ang):
   XX=           -229.7951   YY=           -233.4881   ZZ=           -255.4370
   XY=              6.2213   XZ=             -0.4767   YZ=              2.4387

 Normal termination of Gaussian 16 at Mon Jul 29 07:13:21 2019.
