 Gaussian 16, Revision A.03,
 Gaussian 16:  ES64L-G16RevA.03 25-Dec-2016

 ---------------------------------
 # td=(NStates=1) B3LYP/6-31G(d,p)
 ---------------------------------

 --
 TD
 --
 Symbolic Z-matrix:
 Charge =  0 Multiplicity = 1

                         Standard orientation:
 ---------------------------------------------------------------------
 Center     Atomic      Atomic             Coordinates (Angstroms)
 Number     Number       Type             X           Y           Z
 ---------------------------------------------------------------------
      1          6           0      -12.173285   -0.458745   -0.651976
      2          6           0       12.147639    0.027115    0.839264
      3          6           0      -13.514679    0.464431   -0.736038
      4          6           0       13.053012   -1.182642    1.187182
      5          6           0      -13.146405    1.924443   -0.646830
      6          6           0       13.315993   -2.131117    0.010666
      7          6           0      -11.036749   -0.027257    0.189262
      8          6           0       11.012112   -0.429460   -0.100837
      9          6           0      -12.335969    2.068857    0.660173
     10          6           0       12.025315   -2.658971   -0.474510
     11          6           0      -11.135134    1.119130    0.849482
     12          6           0       11.037860   -1.676062   -0.708319
     13          6           0      -11.720658   -0.564034   -2.110697
     14          6           0      -12.539953   -1.992994   -0.301484
     15          6           0       12.999790    1.081744    0.165685
     16          6           0       11.568483    0.646318    2.170749
     17          6           0       -9.890008   -0.948407    0.220682
     18          6           0        9.994303    0.642968   -0.335816
     19          6           0      -10.157195    1.543873    1.947120
     20          6           0        9.866595   -2.148914   -1.572508
     21          6           0       -8.561095   -0.478072    0.339635
     22          6           0        8.622729    0.411762   -0.384344
     23          6           0       -7.427819   -1.377245    0.477580
     24          6           0        7.549599    1.407862   -0.414452
     25          6           0       -7.593066   -2.937630    0.497779
     26          6           0        7.869347    2.853344   -0.696352
     27          6           0       -6.153147   -0.848784    0.321335
     28          6           0        6.255781    0.897782   -0.419496
     29          6           0       -4.855929   -1.404290    0.506245
     30          6           0        5.071019    1.723879   -0.522833
     31          6           0       -3.631377   -0.690915    0.335695
     32          6           0        3.772099    1.167059   -0.508937
     33          6           0       -2.342350   -1.339360    0.327739
     34          6           0        2.516154    1.793136   -0.433541
     35          6           0       -2.188143   -2.825578    0.481769
     36          6           0        2.545028    3.411699   -0.384704
     37          6           0       -1.285380   -0.513793    0.191616
     38          6           0        1.392335    1.088166   -0.229919
     39          6           0       -1.161194    0.930157   -0.047287
     40          6           0        0.001568    1.588935   -0.245497
     41          1           0      -14.254477    0.360783    0.132109
     42          1           0      -13.845310    0.009216   -1.512104
     43          1           0       12.736843   -1.744483    2.120442
     44          1           0       13.860125   -0.814326    1.551081
     45          1           0      -14.009197    2.453566   -0.287191
     46          1           0      -12.471268    2.410348   -1.580711
     47          1           0       14.001624   -2.775150    0.221802
     48          1           0       13.769394   -1.457773   -0.781594
     49          1           0      -13.007631    2.230599    1.551747
     50          1           0      -11.969919    3.054098    0.786904
     51          1           0       11.597296   -3.269237    0.375634
     52          1           0       12.442588   -3.135591   -1.412346
     53          1           0      -11.409117    0.396454   -2.411620
     54          1           0      -12.428229   -1.030837   -2.800359
     55          1           0      -10.800876   -0.999110   -2.184865
     56          1           0      -13.004646   -1.883608    0.766511
     57          1           0      -11.557133   -2.677903   -0.185337
     58          1           0      -13.182872   -2.340137   -0.947101
     59          1           0       13.417079    0.640560   -0.713801
     60          1           0       14.054788    1.258428    0.779557
     61          1           0       12.549041    2.083735    0.172947
     62          1           0       10.913540   -0.016865    2.684708
     63          1           0       11.056012    1.627347    1.996641
     64          1           0       12.536975    0.766031    2.705396
     65          1           0       -9.942214   -1.884130    0.447413
     66          1           0       10.268132    1.770823   -0.251036
     67          1           0       -9.345941    0.935604    2.263269
     68          1           0      -10.656564    2.100614    2.907318
     69          1           0       -9.673955    2.483314    1.609622
     70          1           0        9.427757   -1.317560   -1.976208
     71          1           0        9.292421   -2.937899   -1.081554
     72          1           0       10.275045   -2.597769   -2.440922
     73          1           0       -8.471312    0.656190    0.221090
     74          1           0        8.322282   -0.629654   -0.184137
     75          1           0       -8.141966   -3.146584    1.388106
     76          1           0       -6.552755   -3.437180    0.456430
     77          1           0       -8.079858   -3.088071   -0.460424
     78          1           0        8.428147    2.786032   -1.777379
     79          1           0        8.307391    3.236154    0.150920
     80          1           0        7.012375    3.527491   -0.905114
     81          1           0       -6.279979    0.292176    0.434890
     82          1           0        6.253244   -0.119630   -0.268996
     83          1           0       -4.902592   -2.493677    0.725263
     84          1           0        5.007349    2.830398   -0.518082
     85          1           0       -3.765319    0.258313    0.033634
     86          1           0        3.865938   -0.091321   -0.368000
     87          1           0       -2.874661   -3.203446    1.341308
     88          1           0       -1.026776   -3.096650    0.699773
     89          1           0       -2.486038   -3.217577   -0.334610
     90          1           0        2.965769    3.880362   -1.286123
     91          1           0        3.028208    3.493941    0.701805
     92          1           0        1.447535    3.937200   -0.671438
     93          1           0       -0.480334   -1.130132   -0.019585
     94          1           0        1.557529   -0.037610   -0.093868
     95          1           0       -2.200873    1.508692   -0.121297
     96          1           0       -0.175989    2.635110   -0.410199
 ---------------------------------------------------------------------

 SCF Done:  E(RB3LYP) =  -1557.53465360     A.U. after   15 cycles

 Excitation energies and oscillator strengths:

 Excited State   1:      Singlet-A      2.1669 eV  572.16 nm  f=2.9297  <S**2>=0.000
     148 ->149         0.70954
 This state for optimization and/or second-order correction.
 Total Energy, E(TD-HF/TD-DFT) =  -1557.45501966
 Copying the excited state density for this state as the 1-particle RhoCI density.

 The electronic state is 1-A.
 Alpha  occ. eigenvalues --  -10.21604 -10.20346 -10.20192 -10.20180 -10.20084
 Alpha  occ. eigenvalues --  -10.19915 -10.19718 -10.19615 -10.19480 -10.19469
 Alpha  occ. eigenvalues --  -10.19449 -10.19444 -10.19441 -10.19429 -10.19110
 Alpha  occ. eigenvalues --  -10.19049 -10.19042 -10.18995 -10.18946 -10.18856
 Alpha  occ. eigenvalues --  -10.18725 -10.18716 -10.18668 -10.18475 -10.18470
 Alpha  occ. eigenvalues --  -10.18447 -10.18329 -10.18241 -10.17956 -10.17951
 Alpha  occ. eigenvalues --  -10.17614 -10.17481 -10.17465 -10.17434 -10.17197
 Alpha  occ. eigenvalues --  -10.17192 -10.16562 -10.16039 -10.16036 -10.14863
 Alpha  occ. eigenvalues --   -0.85447  -0.84899  -0.83300  -0.82623  -0.81612
 Alpha  occ. eigenvalues --   -0.81220  -0.79322  -0.78189  -0.77753  -0.77613
 Alpha  occ. eigenvalues --   -0.77003  -0.74914  -0.74089  -0.71853  -0.71633
 Alpha  occ. eigenvalues --   -0.69869  -0.68770  -0.68451  -0.68025  -0.67704
 Alpha  occ. eigenvalues --   -0.67604  -0.67512  -0.67269  -0.67043  -0.66503
 Alpha  occ. eigenvalues --   -0.63067  -0.62411  -0.60299  -0.59201  -0.57109
 Alpha  occ. eigenvalues --   -0.56705  -0.55681  -0.55336  -0.54237  -0.52212
 Alpha  occ. eigenvalues --   -0.51923  -0.51526  -0.50679  -0.49459  -0.48798
 Alpha  occ. eigenvalues --   -0.48009  -0.47353  -0.47252  -0.46765  -0.46274
 Alpha  occ. eigenvalues --   -0.45700  -0.45260  -0.44880  -0.44393  -0.44154
 Alpha  occ. eigenvalues --   -0.43922  -0.43628  -0.43530  -0.43164  -0.43120
 Alpha  occ. eigenvalues --   -0.42930  -0.42283  -0.42056  -0.41517  -0.41336
 Alpha  occ. eigenvalues --   -0.40596  -0.40428  -0.40024  -0.39572  -0.39409
 Alpha  occ. eigenvalues --   -0.38999  -0.38873  -0.38731  -0.38200  -0.37849
 Alpha  occ. eigenvalues --   -0.37591  -0.37438  -0.37317  -0.36592  -0.36191
 Alpha  occ. eigenvalues --   -0.35982  -0.35684  -0.35503  -0.35335  -0.34908
 Alpha  occ. eigenvalues --   -0.34743  -0.34533  -0.34230  -0.34199  -0.34099
 Alpha  occ. eigenvalues --   -0.33506  -0.33029  -0.32672  -0.32586  -0.32257
 Alpha  occ. eigenvalues --   -0.31818  -0.31672  -0.31543  -0.30974  -0.30883
 Alpha  occ. eigenvalues --   -0.30516  -0.30018  -0.29709  -0.29361  -0.28628
 Alpha  occ. eigenvalues --   -0.27780  -0.27709  -0.26204  -0.24319  -0.22494
 Alpha  occ. eigenvalues --   -0.21080  -0.18226  -0.16347
 Alpha virt. eigenvalues --   -0.07999  -0.05655  -0.01657   0.00696   0.02855
 Alpha virt. eigenvalues --    0.04578   0.05812   0.06563   0.07207   0.07553
 Alpha virt. eigenvalues --    0.08103   0.08279   0.08340   0.08729   0.09054

 Mulliken charges:
               1
     1  C   -0.062858
     2  C   -0.023824
     3  C   -0.121115
     4  C   -0.177419
     5  C   -0.180799
     6  C   -0.178162
     7  C    0.108109
     8  C    0.097188
     9  C   -0.244558
    10  C   -0.202325
    11  C    0.075662
    12  C    0.036885
    13  C   -0.302293
    14  C   -0.288588
    15  C   -0.280538
    16  C   -0.294145
    17  C   -0.117593
    18  C   -0.152358
    19  C   -0.376284
    20  C   -0.357415
    21  C   -0.111972
    22  C   -0.110810
    23  C    0.061037
    24  C    0.098832
    25  C   -0.365615
    26  C   -0.364108
    27  C   -0.113946
    28  C   -0.105041
    29  C   -0.103082
    30  C   -0.094470
    31  C   -0.086253
    32  C   -0.107179
    33  C    0.092022
    34  C    0.111017
    35  C   -0.356497
    36  C   -0.360344
    37  C   -0.104489
    38  C   -0.116708
    39  C   -0.093025
    40  C   -0.083305
    41  H    0.074080
    42  H    0.090659
    43  H    0.069396
    44  H    0.089658
    45  H    0.101901
    46  H    0.078713
    47  H    0.092684
    48  H    0.081303
    49  H    0.093926
    50  H    0.102343
    51  H    0.106992
    52  H    0.095187
    53  H    0.095367
    54  H    0.092330
    55  H    0.108529
    56  H    0.084613
    57  H    0.083195
    58  H    0.105725
    59  H    0.112241
    60  H    0.056749
    61  H    0.105829
    62  H    0.109028
    63  H    0.090563
    64  H    0.093480
    65  H    0.082916
    66  H    0.081357
    67  H    0.130143
    68  H    0.077292
    69  H    0.106565
    70  H    0.128540
    71  H    0.111203
    72  H    0.098970
    73  H    0.091310
    74  H    0.091579
    75  H    0.130939
    76  H    0.101659
    77  H    0.135978
    78  H    0.110029
    79  H    0.131759
    80  H    0.109911
    81  H    0.062660
    82  H    0.077652
    83  H    0.067776
    84  H    0.087508
    85  H    0.079616
    86  H    0.047988
    87  H    0.111010
    88  H    0.091592
    89  H    0.146612
    90  H    0.128538
    91  H    0.134436
    92  H    0.083247
    93  H    0.064232
    94  H    0.082276
    95  H    0.078367
    96  H    0.078216
 Sum of Mulliken charges =  -0.00000

 Dipole moment (field-independent basis, Debye):
    X=              1.1936    Y=              0.0663    Z=              0.0786  Tot=              1.1980
 Quadrupole moment (field-independent basis, Debye-Ang):
   XX=           -222.4251   YY=           -232.0993   ZZ=           -255.6967
   XY=             -7.5840   XZ=              0.0544   YZ=             -0.1201

 Normal termination of Gaussian 16 at Wed Jul 31 23:50:27 2019.
