 Gaussian 16, Revision A.03,
 Gaussian 16:  ES64L-G16RevA.03 25-Dec-2016

 ---------------------------------
 # td=(NStates=1) B3LYP/6-31G(d,p)
 ---------------------------------

 --
 TD
 --
 Symbolic Z-matrix:
 Charge =  0 Multiplicity = 1

                         Standard orientation:
 ---------------------------------------------------------------------
 Center     Atomic      Atomic             Coordinates (Angstroms)
 Number     Number       Type             X           Y           Z
 ---------------------------------------------------------------------
      1          6           0      -12.118544   -0.450601   -0.793011
      2          6           0       12.085802    0.014133    0.912688
      3          6           0      -13.413448    0.342865   -0.752631
      4          6           0       12.981268   -1.195947    1.350625
      5          6           0      -13.107451    1.852863   -0.669442
      6          6           0       13.382200   -2.057993    0.134539
      7          6           0      -11.024410   -0.005675    0.264894
      8          6           0       11.036266   -0.430463   -0.155754
      9          6           0      -12.271399    2.039714    0.583592
     10          6           0       12.135346   -2.510040   -0.717019
     11          6           0      -11.060825    1.172386    0.897215
     12          6           0       11.145938   -1.498422   -0.907795
     13          6           0      -11.577395   -0.392542   -2.224930
     14          6           0      -12.575428   -1.978996   -0.419354
     15          6           0       13.027576    1.112835    0.397189
     16          6           0       11.344377    0.610288    2.156981
     17          6           0       -9.872461   -0.989378    0.395625
     18          6           0        9.955014    0.532843   -0.429423
     19          6           0      -10.236962    1.671735    1.907689
     20          6           0       10.065198   -2.164505   -1.749420
     21          6           0       -8.672052   -0.670820    0.280839
     22          6           0        8.636716    0.279725   -0.293605
     23          6           0       -7.424559   -1.412225    0.455556
     24          6           0        7.581323    1.351178   -0.487013
     25          6           0       -7.645750   -2.812949    0.780727
     26          6           0        7.894322    2.720357   -0.792622
     27          6           0       -6.258617   -0.787248    0.322687
     28          6           0        6.209449    0.881900   -0.470104
     29          6           0       -4.879886   -1.353536    0.544170
     30          6           0        5.041294    1.681837   -0.445489
     31          6           0       -3.696057   -0.670507    0.412826
     32          6           0        3.761990    1.195292   -0.312448
     33          6           0       -2.361555   -1.206430    0.377487
     34          6           0        2.494460    1.851511   -0.274489
     35          6           0       -2.281182   -2.738646    0.444312
     36          6           0        2.517670    3.338780   -0.487451
     37          6           0       -1.209696   -0.537713    0.198198
     38          6           0        1.436948    1.119324   -0.160704
     39          6           0       -1.118674    0.900570    0.010571
     40          6           0        0.068165    1.570037   -0.214555
     41          1           0      -13.922250    0.047835    0.115517
     42          1           0      -13.996272   -0.166280   -1.742111
     43          1           0       12.251840   -1.923534    1.964137
     44          1           0       13.694413   -0.755306    2.042066
     45          1           0      -13.916012    2.395013   -0.689159
     46          1           0      -12.555858    2.035455   -1.624020
     47          1           0       13.950202   -2.996633    0.432079
     48          1           0       14.063522   -1.565349   -0.297968
     49          1           0      -12.917860    2.051924    1.511201
     50          1           0      -12.116056    3.057456    0.461373
     51          1           0       11.537440   -3.366631   -0.024652
     52          1           0       12.413203   -3.013693   -1.744507
     53          1           0      -11.292745    0.582924   -2.662436
     54          1           0      -12.178254   -1.124790   -2.950680
     55          1           0      -10.620558   -1.118583   -2.172026
     56          1           0      -12.654975   -2.174719    0.588553
     57          1           0      -11.909900   -2.814232   -0.816273
     58          1           0      -13.552002   -1.895313   -0.864624
     59          1           0       13.611899    0.836632   -0.607970
     60          1           0       13.810836    1.477047    1.146837
     61          1           0       12.363750    1.953083   -0.105215
     62          1           0       10.737740   -0.374405    2.676313
     63          1           0       10.432445    1.338627    1.660553
     64          1           0       12.281963    1.103754    2.903881
     65          1           0       -9.968770   -2.082542    0.745286
     66          1           0       10.222022    1.613204   -0.656558
     67          1           0       -9.421185    1.104435    2.119630
     68          1           0      -10.911423    1.930233    2.821556
     69          1           0       -9.868442    2.743092    1.687798
     70          1           0        9.259467   -1.616459   -2.227566
     71          1           0        9.416230   -2.958661   -1.282145
     72          1           0       10.631255   -2.646319   -2.697498
     73          1           0       -8.504307    0.409694    0.180306
     74          1           0        8.511118   -0.679318    0.002368
     75          1           0       -8.169691   -2.991475    1.749361
     76          1           0       -6.615593   -3.320020    0.956819
     77          1           0       -8.250706   -3.339116    0.021176
     78          1           0        8.329416    2.714018   -1.826308
     79          1           0        8.756020    3.279662   -0.122259
     80          1           0        7.025571    3.396701   -0.667744
     81          1           0       -6.198615    0.161814    0.066103
     82          1           0        6.094033   -0.091588   -0.359443
     83          1           0       -4.710512   -2.432445    0.669561
     84          1           0        5.048890    2.703098   -0.612446
     85          1           0       -3.784981    0.385135    0.214920
     86          1           0        3.655031    0.173359   -0.339479
     87          1           0       -2.426903   -2.926742    1.562933
     88          1           0       -1.306455   -3.107653    0.214044
     89          1           0       -3.041189   -3.096696   -0.209349
     90          1           0        3.035736    3.634641   -1.396652
     91          1           0        3.110753    3.905665    0.119978
     92          1           0        1.623361    4.017798   -0.402158
     93          1           0       -0.314434   -1.089651    0.120674
     94          1           0        1.468585   -0.014049   -0.128113
     95          1           0       -2.061654    1.697259    0.259258
     96          1           0       -0.118958    2.679432   -0.211807
 ---------------------------------------------------------------------

 SCF Done:  E(RB3LYP) =  -1557.55517501     A.U. after   16 cycles

 Excitation energies and oscillator strengths:

 Excited State   1:      Singlet-A      2.4598 eV  504.04 nm  f=2.9294  <S**2>=0.000
     148 ->149         0.70278
 This state for optimization and/or second-order correction.
 Total Energy, E(TD-HF/TD-DFT) =  -1557.46477931
 Copying the excited state density for this state as the 1-particle RhoCI density.

 The electronic state is 1-A.
 Alpha  occ. eigenvalues --  -10.21796 -10.21043 -10.20499 -10.20322 -10.20170
 Alpha  occ. eigenvalues --  -10.19939 -10.19870 -10.19559 -10.19532 -10.19514
 Alpha  occ. eigenvalues --  -10.19504 -10.19370 -10.18846 -10.18780 -10.18729
 Alpha  occ. eigenvalues --  -10.18702 -10.18698 -10.18669 -10.18667 -10.18660
 Alpha  occ. eigenvalues --  -10.18608 -10.18592 -10.18504 -10.18400 -10.18382
 Alpha  occ. eigenvalues --  -10.18266 -10.18259 -10.18180 -10.18130 -10.17905
 Alpha  occ. eigenvalues --  -10.17784 -10.17767 -10.17725 -10.17717 -10.17714
 Alpha  occ. eigenvalues --  -10.17676 -10.17167 -10.17044 -10.16811 -10.16652
 Alpha  occ. eigenvalues --   -0.85410  -0.85231  -0.84265  -0.83586  -0.82599
 Alpha  occ. eigenvalues --   -0.81779  -0.79274  -0.78771  -0.78631  -0.77976
 Alpha  occ. eigenvalues --   -0.76984  -0.75556  -0.74684  -0.73217  -0.72480
 Alpha  occ. eigenvalues --   -0.70903  -0.69150  -0.68899  -0.68258  -0.68176
 Alpha  occ. eigenvalues --   -0.67238  -0.66749  -0.66202  -0.65866  -0.64836
 Alpha  occ. eigenvalues --   -0.62562  -0.61904  -0.60430  -0.59895  -0.56819
 Alpha  occ. eigenvalues --   -0.56435  -0.55016  -0.54847  -0.54684  -0.53534
 Alpha  occ. eigenvalues --   -0.53161  -0.52315  -0.50875  -0.49922  -0.49766
 Alpha  occ. eigenvalues --   -0.48391  -0.48169  -0.48003  -0.47081  -0.46699
 Alpha  occ. eigenvalues --   -0.46145  -0.45927  -0.45293  -0.44612  -0.43814
 Alpha  occ. eigenvalues --   -0.43463  -0.43088  -0.42782  -0.42435  -0.41998
 Alpha  occ. eigenvalues --   -0.41715  -0.41562  -0.41405  -0.41296  -0.41133
 Alpha  occ. eigenvalues --   -0.40930  -0.40612  -0.40290  -0.39643  -0.39114
 Alpha  occ. eigenvalues --   -0.39026  -0.38835  -0.38436  -0.38233  -0.38010
 Alpha  occ. eigenvalues --   -0.37627  -0.37565  -0.37259  -0.36950  -0.36852
 Alpha  occ. eigenvalues --   -0.36660  -0.36531  -0.35886  -0.35677  -0.35111
 Alpha  occ. eigenvalues --   -0.35029  -0.34900  -0.34450  -0.33964  -0.33823
 Alpha  occ. eigenvalues --   -0.33395  -0.33240  -0.33100  -0.32518  -0.32220
 Alpha  occ. eigenvalues --   -0.31968  -0.31443  -0.31168  -0.31017  -0.30566
 Alpha  occ. eigenvalues --   -0.30298  -0.30000  -0.29827  -0.28941  -0.28668
 Alpha  occ. eigenvalues --   -0.28349  -0.27874  -0.26693  -0.24150  -0.23128
 Alpha  occ. eigenvalues --   -0.21944  -0.19746  -0.16931
 Alpha virt. eigenvalues --   -0.07589  -0.04661  -0.00975   0.00866   0.02005
 Alpha virt. eigenvalues --    0.03738   0.05410   0.05793   0.06796   0.07148
 Alpha virt. eigenvalues --    0.07612   0.07791   0.08515   0.08942   0.09265

 Mulliken charges:
               1
     1  C    0.004739
     2  C   -0.000228
     3  C   -0.167101
     4  C   -0.164838
     5  C   -0.184356
     6  C   -0.179181
     7  C    0.033672
     8  C    0.054454
     9  C   -0.238939
    10  C   -0.201544
    11  C    0.126560
    12  C    0.103735
    13  C   -0.288836
    14  C   -0.317121
    15  C   -0.286050
    16  C   -0.251392
    17  C   -0.143903
    18  C   -0.162462
    19  C   -0.368406
    20  C   -0.356777
    21  C   -0.056888
    22  C   -0.058137
    23  C    0.165702
    24  C    0.101491
    25  C   -0.401012
    26  C   -0.380364
    27  C   -0.117628
    28  C   -0.095023
    29  C   -0.104541
    30  C   -0.066189
    31  C   -0.091539
    32  C   -0.132870
    33  C    0.099347
    34  C    0.201696
    35  C   -0.369408
    36  C   -0.405888
    37  C   -0.120664
    38  C   -0.141016
    39  C   -0.095327
    40  C   -0.100659
    41  H    0.095390
    42  H    0.051857
    43  H    0.063470
    44  H    0.087980
    45  H    0.099768
    46  H    0.092118
    47  H    0.079309
    48  H    0.113406
    49  H    0.091855
    50  H    0.104411
    51  H    0.080182
    52  H    0.089243
    53  H    0.110567
    54  H    0.083682
    55  H    0.081840
    56  H    0.113479
    57  H    0.088739
    58  H    0.102707
    59  H    0.082964
    60  H    0.098097
    61  H    0.086249
    62  H    0.072858
    63  H    0.092968
    64  H    0.068455
    65  H    0.068197
    66  H    0.080576
    67  H    0.121896
    68  H    0.098721
    69  H    0.101077
    70  H    0.114236
    71  H    0.114686
    72  H    0.076043
    73  H    0.060929
    74  H    0.078536
    75  H    0.122272
    76  H    0.096074
    77  H    0.126899
    78  H    0.132282
    79  H    0.090022
    80  H    0.119409
    81  H    0.069848
    82  H    0.067244
    83  H    0.076112
    84  H    0.062008
    85  H    0.070249
    86  H    0.064392
    87  H    0.116150
    88  H    0.106502
    89  H    0.126291
    90  H    0.122211
    91  H    0.129616
    92  H    0.107213
    93  H    0.081728
    94  H    0.077557
    95  H    0.076195
    96  H    0.070121
 Sum of Mulliken charges =  -0.00000

 Dipole moment (field-independent basis, Debye):
    X=              0.1191    Y=              0.5033    Z=              0.1186  Tot=              0.5306
 Quadrupole moment (field-independent basis, Debye-Ang):
   XX=           -230.3981   YY=           -234.0659   ZZ=           -256.8742
   XY=             -4.3262   XZ=            -10.6899   YZ=             -1.4599

 Normal termination of Gaussian 16 at Tue Jul 23 06:24:03 2019.
