 Gaussian 16, Revision A.03,
 Gaussian 16:  ES64L-G16RevA.03 25-Dec-2016

 ---------------------------------
 # td=(NStates=1) B3LYP/6-31G(d,p)
 ---------------------------------

 --
 TD
 --
 Symbolic Z-matrix:
 Charge =  0 Multiplicity = 1

                         Standard orientation:
 ---------------------------------------------------------------------
 Center     Atomic      Atomic             Coordinates (Angstroms)
 Number     Number       Type             X           Y           Z
 ---------------------------------------------------------------------
      1          6           0       12.137811    0.426700   -0.711989
      2          6           0      -12.068228   -0.017328    0.945296
      3          6           0       13.416999   -0.401919   -0.551815
      4          6           0      -12.950100    1.068857    1.482200
      5          6           0       13.115753   -1.866259   -0.479041
      6          6           0      -13.373172    1.987349    0.366584
      7          6           0       11.012349    0.038183    0.319120
      8          6           0      -11.052541    0.456895   -0.105885
      9          6           0       12.308762   -2.070269    0.750287
     10          6           0      -12.167232    2.580066   -0.390451
     11          6           0       11.106383   -1.134019    0.974239
     12          6           0      -11.117391    1.607221   -0.743790
     13          6           0       11.711808    0.482242   -2.133177
     14          6           0       12.647124    1.896441   -0.447639
     15          6           0      -13.016422   -1.100182    0.172196
     16          6           0      -11.426954   -0.732475    2.094949
     17          6           0        9.908268    0.926950    0.392985
     18          6           0       -9.924198   -0.622314   -0.390770
     19          6           0       10.173934   -1.641493    1.933796
     20          6           0      -10.060577    2.100276   -1.704507
     21          6           0        8.577411    0.566564    0.305197
     22          6           0       -8.562820   -0.296730   -0.443823
     23          6           0        7.349634    1.404354    0.379155
     24          6           0       -7.593631   -1.295178   -0.384956
     25          6           0        7.551508    2.900182    0.540915
     26          6           0       -7.892241   -2.641018   -0.722676
     27          6           0        6.153634    0.673756    0.373119
     28          6           0       -6.204965   -0.873593   -0.524338
     29          6           0        4.877835    1.370378    0.396900
     30          6           0       -5.110127   -1.668545   -0.528276
     31          6           0        3.695609    0.724926    0.274564
     32          6           0       -3.834669   -1.122117   -0.533964
     33          6           0        2.396777    1.327806    0.260606
     34          6           0       -2.527122   -1.840007   -0.463798
     35          6           0        2.223771    2.826501    0.444556
     36          6           0       -2.402038   -3.398043   -0.489658
     37          6           0        1.266554    0.513821    0.077794
     38          6           0       -1.399155   -1.055677   -0.390481
     39          6           0        1.145134   -0.869127    0.005238
     40          6           0       -0.024122   -1.559549   -0.243502
     41          1           0       13.988803   -0.020705    0.354704
     42          1           0       14.190875   -0.175760   -1.360313
     43          1           0      -12.457830    1.833794    2.203789
     44          1           0      -13.886432    0.518441    2.006591
     45          1           0       14.133013   -2.293638   -0.527093
     46          1           0       12.557686   -2.304013   -1.314223
     47          1           0      -13.917059    2.947144    0.806023
     48          1           0      -14.065057    1.572176   -0.273188
     49          1           0       12.916446   -2.041271    1.670725
     50          1           0       11.835907   -2.992658    0.601815
     51          1           0      -11.789647    3.403362    0.175469
     52          1           0      -12.568190    3.059888   -1.371236
     53          1           0       11.499003   -0.589542   -2.525989
     54          1           0       12.624543    0.750756   -2.767754
     55          1           0       10.657375    1.011490   -2.258947
     56          1           0       13.091304    2.049774    0.630205
     57          1           0       11.612581    2.481181   -0.422013
     58          1           0       13.273248    2.306848   -1.152640
     59          1           0      -13.687894   -0.659149   -0.493860
     60          1           0      -13.598255   -1.808548    0.780460
     61          1           0      -12.536987   -2.015347   -0.481335
     62          1           0      -10.612032   -0.068933    2.261914
     63          1           0      -10.883616   -1.649025    1.683238
     64          1           0      -12.148444   -0.738801    3.001925
     65          1           0       10.128491    2.117131    0.540126
     66          1           0      -10.385545   -1.592793   -0.493980
     67          1           0        9.346468   -0.896349    2.060305
     68          1           0       10.852806   -1.943999    2.589242
     69          1           0        9.639020   -2.734913    1.758635
     70          1           0       -9.579787    1.280430   -2.170424
     71          1           0       -9.489245    2.877101   -1.272235
     72          1           0      -10.610349    2.628658   -2.601563
     73          1           0        8.376477   -0.441372    0.326439
     74          1           0       -8.384605    0.761766   -0.514345
     75          1           0        8.021225    3.235260    1.494361
     76          1           0        6.667883    3.466539    0.508379
     77          1           0        8.121178    3.242195   -0.513027
     78          1           0       -8.453467   -2.842613   -1.633522
     79          1           0       -8.467898   -3.079992    0.102031
     80          1           0       -7.018134   -3.428422   -0.649832
     81          1           0        6.230257   -0.369056    0.310932
     82          1           0       -6.119232    0.232529   -0.238402
     83          1           0        4.963507    2.417601    0.317980
     84          1           0       -5.072804   -2.711334   -0.431968
     85          1           0        3.710037   -0.355590    0.011782
     86          1           0       -3.725179   -0.014342   -0.800441
     87          1           0        2.691948    3.123051    1.453747
     88          1           0        1.169985    3.281854    0.323933
     89          1           0        2.947396    3.303719   -0.318439
     90          1           0       -2.709569   -3.718973   -1.468608
     91          1           0       -2.966784   -3.844324    0.437264
     92          1           0       -1.410589   -3.583745   -0.512589
     93          1           0        0.209413    1.040172    0.217215
     94          1           0       -1.409592    0.076897   -0.402373
     95          1           0        2.052147   -1.500243    0.091493
     96          1           0        0.029089   -2.646040   -0.381354
 ---------------------------------------------------------------------

 SCF Done:  E(RB3LYP) =  -1557.64591834     A.U. after   16 cycles

 Excitation energies and oscillator strengths:

 Excited State   1:      Singlet-A      2.0576 eV  602.58 nm  f=3.1750  <S**2>=0.000
     148 ->149         0.70924
     148 <-149        -0.11887
 This state for optimization and/or second-order correction.
 Total Energy, E(TD-HF/TD-DFT) =  -1557.57030412
 Copying the excited state density for this state as the 1-particle RhoCI density.

 The electronic state is 1-A.
 Alpha  occ. eigenvalues --  -10.20875 -10.20697 -10.20408 -10.20156 -10.20006
 Alpha  occ. eigenvalues --  -10.19928 -10.19669 -10.19443 -10.19442 -10.19434
 Alpha  occ. eigenvalues --  -10.19376 -10.19257 -10.19136 -10.19133 -10.19128
 Alpha  occ. eigenvalues --  -10.19063 -10.19062 -10.19015 -10.18827 -10.18818
 Alpha  occ. eigenvalues --  -10.18641 -10.18595 -10.18531 -10.18295 -10.18258
 Alpha  occ. eigenvalues --  -10.18224 -10.18169 -10.18122 -10.18055 -10.18009
 Alpha  occ. eigenvalues --  -10.17785 -10.17769 -10.17638 -10.17628 -10.17587
 Alpha  occ. eigenvalues --  -10.17482 -10.17436 -10.17235 -10.17174 -10.17110
 Alpha  occ. eigenvalues --   -0.85504  -0.85235  -0.83470  -0.83206  -0.81977
 Alpha  occ. eigenvalues --   -0.81095  -0.79543  -0.78890  -0.78653  -0.77921
 Alpha  occ. eigenvalues --   -0.76761  -0.75697  -0.74464  -0.72534  -0.71621
 Alpha  occ. eigenvalues --   -0.69813  -0.68961  -0.68504  -0.68102  -0.67706
 Alpha  occ. eigenvalues --   -0.67603  -0.66746  -0.66632  -0.66047  -0.65637
 Alpha  occ. eigenvalues --   -0.62824  -0.61716  -0.59483  -0.58623  -0.57041
 Alpha  occ. eigenvalues --   -0.56464  -0.55450  -0.54707  -0.54047  -0.53286
 Alpha  occ. eigenvalues --   -0.52922  -0.52480  -0.50308  -0.49938  -0.48817
 Alpha  occ. eigenvalues --   -0.48574  -0.47466  -0.47142  -0.46633  -0.46317
 Alpha  occ. eigenvalues --   -0.45760  -0.45062  -0.44857  -0.44631  -0.43988
 Alpha  occ. eigenvalues --   -0.43296  -0.42882  -0.42828  -0.42592  -0.42436
 Alpha  occ. eigenvalues --   -0.42308  -0.42089  -0.41615  -0.41551  -0.41340
 Alpha  occ. eigenvalues --   -0.40756  -0.40465  -0.40285  -0.39971  -0.39683
 Alpha  occ. eigenvalues --   -0.39256  -0.38946  -0.38849  -0.38614  -0.38203
 Alpha  occ. eigenvalues --   -0.37688  -0.37288  -0.36990  -0.36926  -0.36723
 Alpha  occ. eigenvalues --   -0.36404  -0.36040  -0.35685  -0.35273  -0.34929
 Alpha  occ. eigenvalues --   -0.34828  -0.34495  -0.34187  -0.33947  -0.33816
 Alpha  occ. eigenvalues --   -0.33658  -0.33381  -0.33224  -0.32723  -0.32709
 Alpha  occ. eigenvalues --   -0.32543  -0.32073  -0.31480  -0.30940  -0.30638
 Alpha  occ. eigenvalues --   -0.30574  -0.30277  -0.30239  -0.28769  -0.28030
 Alpha  occ. eigenvalues --   -0.27900  -0.26996  -0.26104  -0.23951  -0.22968
 Alpha  occ. eigenvalues --   -0.21254  -0.18546  -0.16012
 Alpha virt. eigenvalues --   -0.08529  -0.05534  -0.01928   0.01208   0.02928
 Alpha virt. eigenvalues --    0.04049   0.05638   0.06489   0.07237   0.07300
 Alpha virt. eigenvalues --    0.07799   0.07879   0.08392   0.08679   0.08936

 Mulliken charges:
               1
     1  C   -0.000355
     2  C    0.016495
     3  C   -0.169546
     4  C   -0.163426
     5  C   -0.183813
     6  C   -0.191942
     7  C    0.104883
     8  C    0.060895
     9  C   -0.222076
    10  C   -0.222497
    11  C    0.054831
    12  C    0.075191
    13  C   -0.278230
    14  C   -0.287459
    15  C   -0.319668
    16  C   -0.289852
    17  C   -0.167772
    18  C   -0.165822
    19  C   -0.345480
    20  C   -0.368028
    21  C   -0.102506
    22  C   -0.086675
    23  C    0.109676
    24  C    0.112604
    25  C   -0.367049
    26  C   -0.377691
    27  C   -0.113251
    28  C   -0.124084
    29  C   -0.087339
    30  C   -0.055447
    31  C   -0.103241
    32  C   -0.123327
    33  C    0.121032
    34  C    0.073444
    35  C   -0.371731
    36  C   -0.357292
    37  C   -0.137561
    38  C   -0.094793
    39  C   -0.068922
    40  C   -0.112680
    41  H    0.084466
    42  H    0.068174
    43  H    0.085138
    44  H    0.075623
    45  H    0.087497
    46  H    0.098634
    47  H    0.062945
    48  H    0.110260
    49  H    0.105381
    50  H    0.105132
    51  H    0.108230
    52  H    0.080943
    53  H    0.077222
    54  H    0.096512
    55  H    0.097323
    56  H    0.076047
    57  H    0.068248
    58  H    0.107268
    59  H    0.112362
    60  H    0.097180
    61  H    0.066644
    62  H    0.110574
    63  H    0.092724
    64  H    0.093840
    65  H    0.083245
    66  H    0.096665
    67  H    0.115884
    68  H    0.123030
    69  H    0.076632
    70  H    0.129293
    71  H    0.124044
    72  H    0.078286
    73  H    0.078156
    74  H    0.097468
    75  H    0.129910
    76  H    0.115427
    77  H    0.099155
    78  H    0.129253
    79  H    0.112755
    80  H    0.091354
    81  H    0.081624
    82  H    0.077505
    83  H    0.079413
    84  H    0.084673
    85  H    0.080986
    86  H    0.076672
    87  H    0.116407
    88  H    0.111069
    89  H    0.109452
    90  H    0.130396
    91  H    0.115093
    92  H    0.119455
    93  H    0.066980
    94  H    0.077061
    95  H    0.081214
    96  H    0.073575
 Sum of Mulliken charges =  -0.00000

 Dipole moment (field-independent basis, Debye):
    X=              0.1435    Y=             -0.3904    Z=              0.0559  Tot=              0.4197
 Quadrupole moment (field-independent basis, Debye-Ang):
   XX=           -234.7488   YY=           -232.9151   ZZ=           -256.9758
   XY=             -5.0625   XZ=              2.8042   YZ=              2.0362

 Normal termination of Gaussian 16 at Thu Aug  1 03:38:21 2019.
