 Gaussian 16, Revision A.03,
 Gaussian 16:  ES64L-G16RevA.03 25-Dec-2016

 ---------------------------------
 # td=(NStates=1) B3LYP/6-31G(d,p)
 ---------------------------------

 --
 TD
 --
 Symbolic Z-matrix:
 Charge =  0 Multiplicity = 1

                         Standard orientation:
 ---------------------------------------------------------------------
 Center     Atomic      Atomic             Coordinates (Angstroms)
 Number     Number       Type             X           Y           Z
 ---------------------------------------------------------------------
      1          6           0      -12.086535   -0.514744   -0.640322
      2          6           0       12.153878   -0.012353    0.799272
      3          6           0      -13.345542    0.224355   -0.657971
      4          6           0       13.015929   -1.236407    1.259040
      5          6           0      -13.165538    1.764654   -0.573403
      6          6           0       13.438161   -2.107895    0.154937
      7          6           0      -11.049943   -0.016349    0.338415
      8          6           0       10.925674   -0.425878   -0.085237
      9          6           0      -12.448505    2.018258    0.743675
     10          6           0       12.098851   -2.670331   -0.478221
     11          6           0      -11.256796    1.131534    0.982150
     12          6           0       11.072977   -1.542529   -0.792398
     13          6           0      -11.591242   -0.455386   -2.083732
     14          6           0      -12.453211   -2.082780   -0.345518
     15          6           0       13.057545    1.067226    0.148246
     16          6           0       11.579761    0.513194    2.010792
     17          6           0       -9.806603   -0.878301    0.459737
     18          6           0        9.843767    0.638014   -0.385528
     19          6           0      -10.325885    1.719383    2.049451
     20          6           0        9.998437   -2.162677   -1.712077
     21          6           0       -8.575681   -0.435633    0.284770
     22          6           0        8.604533    0.411958   -0.308719
     23          6           0       -7.417824   -1.355611    0.218592
     24          6           0        7.507522    1.379790   -0.369542
     25          6           0       -7.665986   -2.798427    0.432989
     26          6           0        7.764807    2.884492   -0.627495
     27          6           0       -6.203691   -0.753725    0.222549
     28          6           0        6.222300    0.861915   -0.210064
     29          6           0       -4.918973   -1.392907    0.264550
     30          6           0        5.004390    1.661461   -0.376499
     31          6           0       -3.663899   -0.763894    0.124399
     32          6           0        3.814817    1.100786   -0.183353
     33          6           0       -2.372648   -1.292478    0.260639
     34          6           0        2.575491    1.916961   -0.398035
     35          6           0       -2.219860   -2.594145    0.744000
     36          6           0        2.641212    3.321927   -0.674776
     37          6           0       -1.223679   -0.526128    0.041021
     38          6           0        1.433795    1.152856   -0.171769
     39          6           0       -1.101505    0.897700   -0.240566
     40          6           0        0.041002    1.648502   -0.406247
     41          1           0      -13.850898   -0.210642    0.211364
     42          1           0      -14.010949    0.061229   -1.575843
     43          1           0       12.491360   -1.701461    1.973693
     44          1           0       13.792236   -0.661836    1.930730
     45          1           0      -14.016864    2.130966   -0.535919
     46          1           0      -12.646447    2.255733   -1.553489
     47          1           0       13.900645   -3.095840    0.531465
     48          1           0       14.071572   -1.545758   -0.677683
     49          1           0      -13.069155    1.909001    1.565457
     50          1           0      -11.866271    3.136650    0.582576
     51          1           0       11.716280   -3.384534    0.262748
     52          1           0       12.086042   -3.135375   -1.391561
     53          1           0      -11.384045    0.564866   -2.459886
     54          1           0      -12.256438   -0.649069   -2.768264
     55          1           0      -10.603894   -1.091932   -2.326994
     56          1           0      -12.461393   -2.174696    0.781238
     57          1           0      -11.619766   -2.935821   -0.713159
     58          1           0      -13.396398   -2.280049   -0.799177
     59          1           0       13.546095    0.736796   -0.613713
     60          1           0       13.669798    1.430222    0.903072
     61          1           0       12.331628    1.969395   -0.254005
     62          1           0       11.025401   -0.396977    2.628753
     63          1           0       10.780105    1.423862    1.964928
     64          1           0       12.539844    0.990950    2.839068
     65          1           0      -10.026824   -1.837607    0.434306
     66          1           0       10.194203    1.740675   -0.346310
     67          1           0       -9.886875    0.748100    2.437694
     68          1           0      -10.685073    2.298784    2.728636
     69          1           0       -9.597308    2.461566    1.500419
     70          1           0        9.162090   -1.351639   -1.898324
     71          1           0        9.483864   -3.054986   -1.041714
     72          1           0       10.406695   -2.530045   -2.632076
     73          1           0       -8.422035    0.512157   -0.211440
     74          1           0        8.365383   -0.662110   -0.202752
     75          1           0       -8.274665   -2.856212    1.308935
     76          1           0       -6.707594   -3.252573    0.543417
     77          1           0       -8.301307   -3.401827   -0.297467
     78          1           0        8.483795    3.016121   -1.501428
     79          1           0        8.412937    3.168123    0.107644
     80          1           0        6.915744    3.526042   -0.711523
     81          1           0       -6.155723    0.341488    0.416074
     82          1           0        6.024358   -0.209751   -0.098090
     83          1           0       -5.206355   -2.336313    0.668379
     84          1           0        5.279185    2.746088   -0.458185
     85          1           0       -3.754204    0.206874   -0.161919
     86          1           0        3.544306    0.071958   -0.001207
     87          1           0       -2.553449   -2.647619    1.812752
     88          1           0       -1.126681   -2.767033    0.702363
     89          1           0       -2.761122   -3.224521    0.026616
     90          1           0        3.096657    3.544884   -1.605802
     91          1           0        3.227037    3.758257    0.148252
     92          1           0        1.531136    3.908205   -0.417215
     93          1           0       -0.154865   -1.085549    0.326505
     94          1           0        1.540732    0.018403    0.019072
     95          1           0       -2.233702    1.303065   -0.602870
     96          1           0        0.003356    2.722989   -0.404648
 ---------------------------------------------------------------------

 SCF Done:  E(RB3LYP) =  -1557.50356833     A.U. after   14 cycles

 Excitation energies and oscillator strengths:

 Excited State   1:      Singlet-A      2.3637 eV  524.53 nm  f=2.7766  <S**2>=0.000
     148 ->149         0.70427
 This state for optimization and/or second-order correction.
 Total Energy, E(TD-HF/TD-DFT) =  -1557.41670301
 Copying the excited state density for this state as the 1-particle RhoCI density.

 The electronic state is 1-A.
 Alpha  occ. eigenvalues --  -10.20675 -10.20590 -10.20430 -10.20213 -10.19993
 Alpha  occ. eigenvalues --  -10.19838 -10.19705 -10.19689 -10.19582 -10.19413
 Alpha  occ. eigenvalues --  -10.19362 -10.19322 -10.19189 -10.19132 -10.19119
 Alpha  occ. eigenvalues --  -10.18986 -10.18892 -10.18835 -10.18803 -10.18758
 Alpha  occ. eigenvalues --  -10.18683 -10.18560 -10.18484 -10.18414 -10.18388
 Alpha  occ. eigenvalues --  -10.18313 -10.18281 -10.18133 -10.17805 -10.17805
 Alpha  occ. eigenvalues --  -10.17785 -10.17684 -10.17660 -10.17450 -10.17384
 Alpha  occ. eigenvalues --  -10.17281 -10.17099 -10.16951 -10.16569 -10.15922
 Alpha  occ. eigenvalues --   -0.85553  -0.85194  -0.84104  -0.83389  -0.82776
 Alpha  occ. eigenvalues --   -0.81942  -0.78745  -0.78498  -0.78225  -0.77913
 Alpha  occ. eigenvalues --   -0.76885  -0.75318  -0.74849  -0.72872  -0.72598
 Alpha  occ. eigenvalues --   -0.70074  -0.69261  -0.69084  -0.68631  -0.68279
 Alpha  occ. eigenvalues --   -0.67620  -0.66978  -0.66183  -0.66050  -0.65790
 Alpha  occ. eigenvalues --   -0.63609  -0.61110  -0.60261  -0.58705  -0.57242
 Alpha  occ. eigenvalues --   -0.56172  -0.54994  -0.54332  -0.53710  -0.53085
 Alpha  occ. eigenvalues --   -0.52484  -0.51961  -0.50753  -0.50047  -0.48938
 Alpha  occ. eigenvalues --   -0.48532  -0.47964  -0.47102  -0.46559  -0.46237
 Alpha  occ. eigenvalues --   -0.45708  -0.45583  -0.44641  -0.44083  -0.43918
 Alpha  occ. eigenvalues --   -0.43730  -0.43526  -0.43054  -0.42779  -0.42491
 Alpha  occ. eigenvalues --   -0.42327  -0.41842  -0.41651  -0.41482  -0.41413
 Alpha  occ. eigenvalues --   -0.41120  -0.40897  -0.40602  -0.40069  -0.39832
 Alpha  occ. eigenvalues --   -0.39580  -0.38970  -0.38704  -0.38594  -0.38278
 Alpha  occ. eigenvalues --   -0.38215  -0.37953  -0.37205  -0.36978  -0.36876
 Alpha  occ. eigenvalues --   -0.35964  -0.35812  -0.35614  -0.35485  -0.35260
 Alpha  occ. eigenvalues --   -0.34942  -0.34891  -0.34585  -0.34333  -0.34044
 Alpha  occ. eigenvalues --   -0.33186  -0.33096  -0.32998  -0.32723  -0.32217
 Alpha  occ. eigenvalues --   -0.32113  -0.31847  -0.31406  -0.30545  -0.30250
 Alpha  occ. eigenvalues --   -0.30045  -0.29708  -0.29633  -0.29178  -0.28506
 Alpha  occ. eigenvalues --   -0.27682  -0.27132  -0.26140  -0.24191  -0.22896
 Alpha  occ. eigenvalues --   -0.21428  -0.19393  -0.16748
 Alpha virt. eigenvalues --   -0.07754  -0.04475  -0.01238   0.01021   0.02417
 Alpha virt. eigenvalues --    0.04283   0.05770   0.06311   0.06718   0.06857
 Alpha virt. eigenvalues --    0.07362   0.07610   0.07758   0.07933   0.08303

 Mulliken charges:
               1
     1  C    0.018239
     2  C   -0.018906
     3  C   -0.205566
     4  C   -0.137122
     5  C   -0.143914
     6  C   -0.190598
     7  C    0.076958
     8  C    0.075029
     9  C   -0.211285
    10  C   -0.199264
    11  C    0.021509
    12  C    0.024183
    13  C   -0.281927
    14  C   -0.316357
    15  C   -0.266244
    16  C   -0.249992
    17  C   -0.128670
    18  C   -0.147874
    19  C   -0.330548
    20  C   -0.352696
    21  C   -0.069358
    22  C   -0.053974
    23  C    0.098842
    24  C    0.090109
    25  C   -0.378769
    26  C   -0.380997
    27  C   -0.127510
    28  C   -0.120720
    29  C   -0.093738
    30  C   -0.093166
    31  C   -0.101523
    32  C   -0.088522
    33  C    0.144135
    34  C    0.142084
    35  C   -0.368631
    36  C   -0.376206
    37  C   -0.127180
    38  C   -0.135243
    39  C   -0.079475
    40  C   -0.105473
    41  H    0.087343
    42  H    0.080562
    43  H    0.101960
    44  H    0.070376
    45  H    0.097555
    46  H    0.077409
    47  H    0.084867
    48  H    0.086025
    49  H    0.117251
    50  H    0.059220
    51  H    0.105989
    52  H    0.098127
    53  H    0.085415
    54  H    0.106356
    55  H    0.072200
    56  H    0.099906
    57  H    0.072183
    58  H    0.111949
    59  H    0.112296
    60  H    0.107947
    61  H    0.066959
    62  H    0.075936
    63  H    0.085957
    64  H    0.023373
    65  H    0.072966
    66  H    0.065466
    67  H    0.110039
    68  H    0.113235
    69  H    0.092753
    70  H    0.101561
    71  H    0.088896
    72  H    0.115183
    73  H    0.096671
    74  H    0.089973
    75  H    0.135138
    76  H    0.108485
    77  H    0.113689
    78  H    0.115174
    79  H    0.137834
    80  H    0.116824
    81  H    0.080680
    82  H    0.076407
    83  H    0.075944
    84  H    0.075508
    85  H    0.068032
    86  H    0.085525
    87  H    0.122834
    88  H    0.099734
    89  H    0.118973
    90  H    0.137272
    91  H    0.130958
    92  H    0.080432
    93  H    0.054213
    94  H    0.074148
    95  H    0.065363
    96  H    0.083288
 Sum of Mulliken charges =  -0.00000

 Dipole moment (field-independent basis, Debye):
    X=             -0.9145    Y=              0.0853    Z=              0.1254  Tot=              0.9270
 Quadrupole moment (field-independent basis, Debye-Ang):
   XX=           -218.8680   YY=           -234.4838   ZZ=           -255.8174
   XY=             -1.2706   XZ=             -4.5594   YZ=             -3.4925

 Normal termination of Gaussian 16 at Sat Jul 27 20:05:08 2019.
