 Gaussian 16, Revision A.03,
 Gaussian 16:  ES64L-G16RevA.03 25-Dec-2016

 ---------------------------------
 # td=(NStates=1) B3LYP/6-31G(d,p)
 ---------------------------------

 --
 TD
 --
 Symbolic Z-matrix:
 Charge =  0 Multiplicity = 1

                         Standard orientation:
 ---------------------------------------------------------------------
 Center     Atomic      Atomic             Coordinates (Angstroms)
 Number     Number       Type             X           Y           Z
 ---------------------------------------------------------------------
      1          6           0       12.040835    0.581250   -0.765760
      2          6           0      -11.994018    0.023080    0.972491
      3          6           0       13.368498   -0.228690   -0.687783
      4          6           0      -12.836410    1.290006    1.437862
      5          6           0       13.238087   -1.734306   -0.522323
      6          6           0      -13.358373    2.105878    0.199855
      7          6           0       11.016355    0.020168    0.233056
      8          6           0      -10.992064    0.456534   -0.037368
      9          6           0       12.413016   -1.995189    0.657830
     10          6           0      -12.109915    2.708458   -0.531870
     11          6           0       11.195144   -1.109467    1.022224
     12          6           0      -10.956319    1.546868   -0.795085
     13          6           0       11.382018    0.439316   -2.221730
     14          6           0       12.263651    1.962097   -0.354636
     15          6           0      -13.006651   -1.131554    0.513008
     16          6           0      -11.373441   -0.470352    2.218392
     17          6           0        9.906722    0.824470    0.483231
     18          6           0       -9.890180   -0.569185   -0.264452
     19          6           0       10.500413   -1.615794    2.171125
     20          6           0      -10.011413    1.824056   -1.867983
     21          6           0        8.543439    0.501554    0.357672
     22          6           0       -8.590348   -0.329005   -0.497452
     23          6           0        7.354007    1.363455    0.623740
     24          6           0       -7.543729   -1.335146   -0.570089
     25          6           0        7.507354    2.824729    0.922104
     26          6           0       -7.850700   -2.831412   -0.544012
     27          6           0        6.167418    0.654413    0.259131
     28          6           0       -6.286360   -0.964867   -0.532011
     29          6           0        4.877908    1.320611    0.178884
     30          6           0       -5.060423   -1.671305   -0.490405
     31          6           0        3.648515    0.690979    0.110080
     32          6           0       -3.747783   -1.195661   -0.447910
     33          6           0        2.270722    1.250420    0.211658
     34          6           0       -2.515153   -1.845734   -0.474978
     35          6           0        2.158085    2.858238    0.254880
     36          6           0       -2.571579   -3.318503   -0.573782
     37          6           0        1.181987    0.485115    0.006143
     38          6           0       -1.373629   -1.142934   -0.360317
     39          6           0        1.075591   -0.941784   -0.151494
     40          6           0        0.003798   -1.604392   -0.279496
     41          1           0       14.004108    0.166592    0.124022
     42          1           0       13.986729    0.191056   -1.637948
     43          1           0      -12.212035    2.007391    1.963378
     44          1           0      -13.703834    1.028402    1.963979
     45          1           0       14.270775   -2.165526   -0.742521
     46          1           0       12.771120   -2.007236   -1.550472
     47          1           0      -13.917450    2.999744    0.634649
     48          1           0      -13.767598    1.542828   -0.567708
     49          1           0       13.290041   -2.077800    1.551373
     50          1           0       12.064966   -2.899404    0.596181
     51          1           0      -11.771200    3.235877    0.278515
     52          1           0      -12.500778    3.180373   -1.502994
     53          1           0       11.118683   -0.560228   -2.492581
     54          1           0       12.138782    0.770674   -3.000711
     55          1           0       10.519390    1.000759   -2.258659
     56          1           0       12.866321    2.046007    0.658132
     57          1           0       11.525033    2.724040   -0.437290
     58          1           0       12.848968    2.474076   -1.132451
     59          1           0      -13.778578   -0.583939   -0.222151
     60          1           0      -13.684809   -1.352731    1.185458
     61          1           0      -12.329686   -1.960886    0.086307
     62          1           0      -10.596971    0.172487    2.720008
     63          1           0      -10.636573   -1.460360    2.160538
     64          1           0      -12.081884   -0.753393    3.003761
     65          1           0       10.112389    1.786585    0.740557
     66          1           0      -10.214761   -1.581848   -0.489703
     67          1           0        9.805519   -0.959318    2.655131
     68          1           0       11.313242   -1.957791    2.992398
     69          1           0        9.860356   -2.640678    2.205390
     70          1           0       -9.553663    0.630020   -2.229207
     71          1           0       -9.190175    2.422708   -1.502026
     72          1           0      -10.543355    2.254247   -2.815321
     73          1           0        8.550776   -0.591988    0.059773
     74          1           0       -7.976777    0.688925   -0.316276
     75          1           0        8.219411    3.103338    1.573232
     76          1           0        6.430448    3.060050    1.249778
     77          1           0        7.830553    3.454232   -0.291951
     78          1           0       -8.856792   -3.097225   -1.112616
     79          1           0       -8.165633   -3.077932    0.582360
     80          1           0       -6.914269   -3.486860   -0.771917
     81          1           0        6.301186   -0.381596    0.068419
     82          1           0       -6.115686    0.227341   -0.591741
     83          1           0        4.707912    2.334822    0.421308
     84          1           0       -4.955325   -2.808930   -0.556169
     85          1           0        3.687250   -0.358863    0.128550
     86          1           0       -3.689828   -0.034920   -0.530498
     87          1           0        2.660537    3.268990    1.172507
     88          1           0        0.966879    3.068536    0.262717
     89          1           0        2.537455    3.294045   -0.685236
     90          1           0       -2.938129   -3.774008   -1.426924
     91          1           0       -3.186373   -3.553352    0.207040
     92          1           0       -1.700132   -3.900631   -0.705020
     93          1           0        0.090581    0.996720   -0.088852
     94          1           0       -1.747927   -0.094076   -0.190104
     95          1           0        1.930361   -1.456172   -0.152163
     96          1           0        0.049988   -2.731672   -0.418815
 ---------------------------------------------------------------------

 SCF Done:  E(RB3LYP) =  -1557.50579177     A.U. after   16 cycles

 Excitation energies and oscillator strengths:

 Excited State   1:      Singlet-A      2.3529 eV  526.93 nm  f=2.6578  <S**2>=0.000
     148 ->149         0.70602
 This state for optimization and/or second-order correction.
 Total Energy, E(TD-HF/TD-DFT) =  -1557.41932308
 Copying the excited state density for this state as the 1-particle RhoCI density.

 The electronic state is 1-A.
 Alpha  occ. eigenvalues --  -10.21214 -10.21187 -10.20771 -10.20715 -10.20269
 Alpha  occ. eigenvalues --  -10.20172 -10.20033 -10.19797 -10.19669 -10.19653
 Alpha  occ. eigenvalues --  -10.19645 -10.19594 -10.19527 -10.19521 -10.19395
 Alpha  occ. eigenvalues --  -10.19220 -10.19166 -10.19149 -10.19052 -10.19025
 Alpha  occ. eigenvalues --  -10.18968 -10.18914 -10.18835 -10.18812 -10.18802
 Alpha  occ. eigenvalues --  -10.18495 -10.18354 -10.18305 -10.18280 -10.18187
 Alpha  occ. eigenvalues --  -10.18167 -10.17938 -10.17921 -10.17600 -10.17582
 Alpha  occ. eigenvalues --  -10.17403 -10.17276 -10.16866 -10.16717 -10.16361
 Alpha  occ. eigenvalues --   -0.85364  -0.84975  -0.84568  -0.83045  -0.82367
 Alpha  occ. eigenvalues --   -0.81394  -0.79165  -0.78971  -0.78358  -0.77621
 Alpha  occ. eigenvalues --   -0.77256  -0.75131  -0.74363  -0.72373  -0.71835
 Alpha  occ. eigenvalues --   -0.71240  -0.68694  -0.68496  -0.68178  -0.67957
 Alpha  occ. eigenvalues --   -0.67421  -0.66979  -0.66908  -0.66628  -0.66228
 Alpha  occ. eigenvalues --   -0.63092  -0.61754  -0.59159  -0.58546  -0.57135
 Alpha  occ. eigenvalues --   -0.56997  -0.56792  -0.55155  -0.54151  -0.52982
 Alpha  occ. eigenvalues --   -0.52761  -0.52099  -0.50083  -0.49698  -0.49368
 Alpha  occ. eigenvalues --   -0.48710  -0.48054  -0.47605  -0.46783  -0.46694
 Alpha  occ. eigenvalues --   -0.45819  -0.45638  -0.45174  -0.44792  -0.44521
 Alpha  occ. eigenvalues --   -0.43846  -0.43394  -0.43260  -0.42548  -0.42419
 Alpha  occ. eigenvalues --   -0.41918  -0.41698  -0.41586  -0.40973  -0.40911
 Alpha  occ. eigenvalues --   -0.40670  -0.40244  -0.40002  -0.39588  -0.39363
 Alpha  occ. eigenvalues --   -0.39063  -0.38706  -0.38517  -0.38097  -0.37952
 Alpha  occ. eigenvalues --   -0.37598  -0.37247  -0.37204  -0.36917  -0.36207
 Alpha  occ. eigenvalues --   -0.36015  -0.35660  -0.35628  -0.35394  -0.35087
 Alpha  occ. eigenvalues --   -0.34490  -0.34324  -0.34224  -0.34024  -0.33712
 Alpha  occ. eigenvalues --   -0.33476  -0.33184  -0.33122  -0.32893  -0.32600
 Alpha  occ. eigenvalues --   -0.31457  -0.31361  -0.31163  -0.31118  -0.30992
 Alpha  occ. eigenvalues --   -0.30428  -0.30079  -0.29347  -0.28801  -0.28571
 Alpha  occ. eigenvalues --   -0.27535  -0.26948  -0.25926  -0.24234  -0.22823
 Alpha  occ. eigenvalues --   -0.21767  -0.18883  -0.17075
 Alpha virt. eigenvalues --   -0.07815  -0.05431  -0.01182   0.00512   0.02122
 Alpha virt. eigenvalues --    0.03904   0.04314   0.05971   0.06512   0.07431
 Alpha virt. eigenvalues --    0.07656   0.07869   0.07925   0.08085   0.09045

 Mulliken charges:
               1
     1  C    0.021635
     2  C   -0.007428
     3  C   -0.171211
     4  C   -0.179836
     5  C   -0.198474
     6  C   -0.204273
     7  C    0.050021
     8  C    0.107758
     9  C   -0.184976
    10  C   -0.218750
    11  C    0.103049
    12  C    0.055186
    13  C   -0.309596
    14  C   -0.314610
    15  C   -0.289084
    16  C   -0.283914
    17  C   -0.145894
    18  C   -0.157113
    19  C   -0.372794
    20  C   -0.351569
    21  C   -0.096511
    22  C   -0.089516
    23  C    0.084939
    24  C    0.171114
    25  C   -0.317503
    26  C   -0.371351
    27  C   -0.099283
    28  C   -0.138251
    29  C   -0.090904
    30  C   -0.084518
    31  C   -0.105021
    32  C   -0.142784
    33  C    0.079871
    34  C    0.160450
    35  C   -0.366221
    36  C   -0.387057
    37  C   -0.117167
    38  C   -0.123540
    39  C   -0.021486
    40  C   -0.113720
    41  H    0.086211
    42  H    0.056100
    43  H    0.094835
    44  H    0.092127
    45  H    0.098118
    46  H    0.079141
    47  H    0.082584
    48  H    0.109337
    49  H    0.058278
    50  H    0.117808
    51  H    0.117198
    52  H    0.088150
    53  H    0.111970
    54  H    0.088137
    55  H    0.117361
    56  H    0.096677
    57  H    0.110626
    58  H    0.088642
    59  H    0.074208
    60  H    0.121429
    61  H    0.101119
    62  H    0.097060
    63  H    0.060580
    64  H    0.098036
    65  H    0.077539
    66  H    0.086007
    67  H    0.124651
    68  H    0.091988
    69  H    0.092725
    70  H    0.082725
    71  H    0.125119
    72  H    0.091913
    73  H    0.070792
    74  H    0.073396
    75  H    0.138050
    76  H    0.111380
    77  H    0.060478
    78  H    0.102406
    79  H    0.108832
    80  H    0.111830
    81  H    0.094815
    82  H    0.058113
    83  H    0.076308
    84  H    0.065222
    85  H    0.072029
    86  H    0.062329
    87  H    0.118022
    88  H    0.091841
    89  H    0.132574
    90  H    0.124898
    91  H    0.132787
    92  H    0.104326
    93  H    0.072144
    94  H    0.070224
    95  H    0.071209
    96  H    0.077931
 Sum of Mulliken charges =  -0.00000

 Dipole moment (field-independent basis, Debye):
    X=             -0.6852    Y=             -0.1727    Z=              0.3507  Tot=              0.7889
 Quadrupole moment (field-independent basis, Debye-Ang):
   XX=           -226.4675   YY=           -235.0201   ZZ=           -254.9394
   XY=              1.7235   XZ=             -3.6219   YZ=              2.8645

 Normal termination of Gaussian 16 at Thu Aug  1 02:34:42 2019.
