 Gaussian 16, Revision A.03,
 Gaussian 16:  ES64L-G16RevA.03 25-Dec-2016

 ---------------------------------
 # td=(NStates=1) B3LYP/6-31G(d,p)
 ---------------------------------

 --
 TD
 --
 Symbolic Z-matrix:
 Charge =  0 Multiplicity = 1

                         Standard orientation:
 ---------------------------------------------------------------------
 Center     Atomic      Atomic             Coordinates (Angstroms)
 Number     Number       Type             X           Y           Z
 ---------------------------------------------------------------------
      1          6           0       12.107445    0.533571   -0.722549
      2          6           0      -12.133332   -0.019141    0.860832
      3          6           0       13.486894   -0.404586   -0.685252
      4          6           0      -13.023369    1.096808    1.245565
      5          6           0       13.225161   -1.919245   -0.435337
      6          6           0      -13.310481    2.039834    0.184010
      7          6           0       11.006813   -0.022199    0.292436
      8          6           0      -10.947085    0.452435   -0.102636
      9          6           0       12.342505   -2.028583    0.809167
     10          6           0      -12.043093    2.674245   -0.247366
     11          6           0       11.150704   -1.143638    0.975587
     12          6           0      -10.985232    1.692788   -0.680449
     13          6           0       11.546507    0.497141   -2.177247
     14          6           0       12.459701    1.929057   -0.369282
     15          6           0      -13.068489   -1.046098    0.090910
     16          6           0      -11.431156   -0.706580    2.107005
     17          6           0        9.896774    0.932479    0.494831
     18          6           0       -9.978357   -0.584127   -0.363823
     19          6           0       10.225803   -1.691059    2.016146
     20          6           0       -9.953907    2.110404   -1.663479
     21          6           0        8.632729    0.523373    0.318359
     22          6           0       -8.627328   -0.340991   -0.285459
     23          6           0        7.389514    1.396815    0.341104
     24          6           0       -7.462282   -1.305286   -0.389788
     25          6           0        7.572851    2.853621    0.480474
     26          6           0       -7.926991   -2.735331   -0.736063
     27          6           0        6.126583    0.749803    0.169999
     28          6           0       -6.205804   -0.871226   -0.381206
     29          6           0        4.887937    1.408890    0.184111
     30          6           0       -5.081376   -1.808319   -0.480281
     31          6           0        3.712759    0.706276    0.172896
     32          6           0       -3.828780   -1.256823   -0.345921
     33          6           0        2.396267    1.331725    0.229273
     34          6           0       -2.559738   -1.911402   -0.369987
     35          6           0        2.334120    2.803476    0.424215
     36          6           0       -2.517401   -3.353885   -0.832264
     37          6           0        1.164381    0.596987    0.152302
     38          6           0       -1.447944   -1.147368   -0.162707
     39          6           0        1.077209   -0.891701   -0.113477
     40          6           0       -0.019189   -1.553867   -0.141024
     41          1           0       14.057574   -0.118023    0.259148
     42          1           0       14.065891   -0.112896   -1.525468
     43          1           0      -12.706869    1.655090    2.186454
     44          1           0      -13.905788    0.558943    1.555531
     45          1           0       14.136961   -2.505758   -0.490934
     46          1           0       12.673196   -2.233214   -1.316884
     47          1           0      -14.097426    2.740488    0.432379
     48          1           0      -13.798379    1.636490   -0.496767
     49          1           0       12.932307   -1.837443    1.760358
     50          1           0       12.073224   -3.117168    0.959234
     51          1           0      -11.554597    3.356363    0.691707
     52          1           0      -12.170409    3.523861   -1.140693
     53          1           0       11.186462   -0.675644   -2.513597
     54          1           0       12.045868    0.979960   -3.028051
     55          1           0       10.633125    0.959689   -2.309012
     56          1           0       12.533162    2.292520    0.601682
     57          1           0       11.583250    2.643054   -0.705133
     58          1           0       13.388956    2.301377   -1.006478
     59          1           0      -13.560224   -0.817201   -0.890874
     60          1           0      -13.863803   -1.361980    0.738543
     61          1           0      -12.470204   -2.009644    0.057884
     62          1           0      -10.944856    0.063254    2.933045
     63          1           0      -10.518327   -1.423376    1.888786
     64          1           0      -12.281359   -1.240314    2.635804
     65          1           0       10.053897    1.863333    0.665971
     66          1           0      -10.354447   -1.505247   -0.603000
     67          1           0        9.324551   -0.919910    2.250547
     68          1           0       10.767450   -1.878279    3.033748
     69          1           0        9.785165   -2.516403    1.699239
     70          1           0       -9.491847    1.303786   -2.032177
     71          1           0       -9.140760    2.851290   -1.148436
     72          1           0      -10.457809    2.468040   -2.648949
     73          1           0        8.341783   -0.504506    0.179458
     74          1           0       -8.349219    0.748568   -0.206451
     75          1           0        7.817930    3.133359    1.459197
     76          1           0        6.745493    3.489551    0.312292
     77          1           0        8.671717    3.099517   -0.076446
     78          1           0       -8.109433   -2.811391   -1.888944
     79          1           0       -8.887362   -3.062981   -0.133906
     80          1           0       -7.049946   -3.432960   -0.532130
     81          1           0        6.268629   -0.271256    0.018056
     82          1           0       -5.991312    0.189456   -0.136293
     83          1           0        4.819086    2.464606    0.500863
     84          1           0       -5.122503   -2.688652   -0.717758
     85          1           0        3.976379   -0.314583    0.135059
     86          1           0       -3.823656   -0.059125    0.019391
     87          1           0        2.830775    3.217664    1.278692
     88          1           0        1.218420    3.136765    0.814290
     89          1           0        2.626201    3.419852   -0.415044
     90          1           0       -3.339958   -3.397568   -1.484632
     91          1           0       -2.787821   -3.962075    0.240711
     92          1           0       -1.657142   -3.715287   -0.860722
     93          1           0        0.274457    1.052026    0.459952
     94          1           0       -1.775664   -0.072694   -0.012641
     95          1           0        1.975858   -1.410115   -0.322679
     96          1           0        0.255421   -2.702850   -0.305676
 ---------------------------------------------------------------------

 SCF Done:  E(RB3LYP) =  -1557.53804132     A.U. after   15 cycles

 Excitation energies and oscillator strengths:

 Excited State   1:      Singlet-A      2.3772 eV  521.56 nm  f=2.7399  <S**2>=0.000
     148 ->149         0.70282
 This state for optimization and/or second-order correction.
 Total Energy, E(TD-HF/TD-DFT) =  -1557.45068108
 Copying the excited state density for this state as the 1-particle RhoCI density.

 The electronic state is 1-A.
 Alpha  occ. eigenvalues --  -10.21103 -10.20936 -10.20479 -10.20372 -10.20257
 Alpha  occ. eigenvalues --  -10.20111 -10.19962 -10.19838 -10.19729 -10.19583
 Alpha  occ. eigenvalues --  -10.19511 -10.19473 -10.19270 -10.18984 -10.18886
 Alpha  occ. eigenvalues --  -10.18858 -10.18801 -10.18742 -10.18707 -10.18594
 Alpha  occ. eigenvalues --  -10.18585 -10.18546 -10.18525 -10.18315 -10.18284
 Alpha  occ. eigenvalues --  -10.18277 -10.18275 -10.18259 -10.18077 -10.18066
 Alpha  occ. eigenvalues --  -10.17964 -10.17917 -10.17891 -10.17820 -10.17724
 Alpha  occ. eigenvalues --  -10.17678 -10.17664 -10.17255 -10.16604 -10.15384
 Alpha  occ. eigenvalues --   -0.85325  -0.84493  -0.83697  -0.82904  -0.81701
 Alpha  occ. eigenvalues --   -0.80924  -0.79435  -0.78635  -0.78408  -0.77579
 Alpha  occ. eigenvalues --   -0.77244  -0.75281  -0.74806  -0.72729  -0.72035
 Alpha  occ. eigenvalues --   -0.70321  -0.68744  -0.67967  -0.67631  -0.67549
 Alpha  occ. eigenvalues --   -0.67494  -0.66973  -0.66877  -0.66278  -0.65327
 Alpha  occ. eigenvalues --   -0.62837  -0.62328  -0.60616  -0.59230  -0.57211
 Alpha  occ. eigenvalues --   -0.57011  -0.55630  -0.55036  -0.54813  -0.54118
 Alpha  occ. eigenvalues --   -0.53039  -0.52435  -0.50378  -0.50028  -0.49440
 Alpha  occ. eigenvalues --   -0.48706  -0.47792  -0.47578  -0.46925  -0.46649
 Alpha  occ. eigenvalues --   -0.45536  -0.45014  -0.44749  -0.44504  -0.43898
 Alpha  occ. eigenvalues --   -0.43845  -0.43465  -0.42948  -0.42247  -0.42152
 Alpha  occ. eigenvalues --   -0.41655  -0.41284  -0.40960  -0.40831  -0.40756
 Alpha  occ. eigenvalues --   -0.40428  -0.40233  -0.39941  -0.39514  -0.39389
 Alpha  occ. eigenvalues --   -0.39289  -0.38844  -0.38730  -0.38380  -0.38292
 Alpha  occ. eigenvalues --   -0.37706  -0.37615  -0.37353  -0.37218  -0.37014
 Alpha  occ. eigenvalues --   -0.36112  -0.35913  -0.35854  -0.35695  -0.35466
 Alpha  occ. eigenvalues --   -0.35017  -0.34878  -0.34092  -0.33670  -0.33478
 Alpha  occ. eigenvalues --   -0.33369  -0.33117  -0.32710  -0.32544  -0.32483
 Alpha  occ. eigenvalues --   -0.32406  -0.31861  -0.31454  -0.31309  -0.31178
 Alpha  occ. eigenvalues --   -0.30894  -0.30394  -0.29935  -0.28698  -0.28566
 Alpha  occ. eigenvalues --   -0.27938  -0.27461  -0.25866  -0.24258  -0.22675
 Alpha  occ. eigenvalues --   -0.21219  -0.18802  -0.16882
 Alpha virt. eigenvalues --   -0.07604  -0.05067  -0.01209   0.00899   0.03143
 Alpha virt. eigenvalues --    0.03949   0.05982   0.06426   0.07138   0.07374
 Alpha virt. eigenvalues --    0.07598   0.08399   0.08451   0.08539   0.08888

 Mulliken charges:
               1
     1  C    0.014653
     2  C    0.010249
     3  C   -0.180091
     4  C   -0.169280
     5  C   -0.188323
     6  C   -0.149473
     7  C    0.048669
     8  C    0.077160
     9  C   -0.222408
    10  C   -0.197504
    11  C    0.085499
    12  C    0.072170
    13  C   -0.298238
    14  C   -0.303198
    15  C   -0.322823
    16  C   -0.303128
    17  C   -0.109839
    18  C   -0.138649
    19  C   -0.358308
    20  C   -0.352615
    21  C   -0.084583
    22  C   -0.099234
    23  C    0.115567
    24  C    0.112456
    25  C   -0.384250
    26  C   -0.365379
    27  C   -0.126593
    28  C   -0.120268
    29  C   -0.073087
    30  C   -0.034401
    31  C   -0.094345
    32  C   -0.127117
    33  C    0.096619
    34  C    0.123352
    35  C   -0.384033
    36  C   -0.311037
    37  C   -0.125296
    38  C   -0.129425
    39  C   -0.064926
    40  C   -0.096026
    41  H    0.079322
    42  H    0.091295
    43  H    0.079549
    44  H    0.080172
    45  H    0.096083
    46  H    0.102711
    47  H    0.083605
    48  H    0.103723
    49  H    0.099405
    50  H    0.087381
    51  H    0.068397
    52  H    0.058935
    53  H    0.060169
    54  H    0.099364
    55  H    0.118411
    56  H    0.118520
    57  H    0.076134
    58  H    0.084937
    59  H    0.112447
    60  H    0.105395
    61  H    0.091403
    62  H    0.085141
    63  H    0.104199
    64  H    0.088733
    65  H    0.069009
    66  H    0.087563
    67  H    0.093138
    68  H    0.094121
    69  H    0.132400
    70  H    0.133161
    71  H    0.090376
    72  H    0.086112
    73  H    0.077047
    74  H    0.074512
    75  H    0.134799
    76  H    0.115991
    77  H    0.085428
    78  H    0.117735
    79  H    0.106546
    80  H    0.101664
    81  H    0.073882
    82  H    0.085097
    83  H    0.078397
    84  H    0.048903
    85  H    0.080026
    86  H    0.054015
    87  H    0.124821
    88  H    0.079796
    89  H    0.131829
    90  H    0.128068
    91  H    0.075023
    92  H    0.113811
    93  H    0.085463
    94  H    0.077072
    95  H    0.085741
    96  H    0.060506
 Sum of Mulliken charges =  -0.00000

 Dipole moment (field-independent basis, Debye):
    X=              0.2971    Y=             -0.4456    Z=              0.1591  Tot=              0.5587
 Quadrupole moment (field-independent basis, Debye-Ang):
   XX=           -220.7874   YY=           -236.2149   ZZ=           -254.8811
   XY=              6.9812   XZ=              6.8701   YZ=              4.0068

 Normal termination of Gaussian 16 at Wed Jul 31 08:55:16 2019.
