 Gaussian 16, Revision A.03,
 Gaussian 16:  ES64L-G16RevA.03 25-Dec-2016

 ---------------------------------
 # td=(NStates=1) B3LYP/6-31G(d,p)
 ---------------------------------

 --
 TD
 --
 Symbolic Z-matrix:
 Charge =  0 Multiplicity = 1

                         Standard orientation:
 ---------------------------------------------------------------------
 Center     Atomic      Atomic             Coordinates (Angstroms)
 Number     Number       Type             X           Y           Z
 ---------------------------------------------------------------------
      1          6           0      -12.155911   -0.496465   -0.689934
      2          6           0       11.971484    0.037422    0.948719
      3          6           0      -13.460483    0.208206   -0.697139
      4          6           0       12.982676   -1.179371    1.279280
      5          6           0      -13.223696    1.691390   -0.755667
      6          6           0       13.422223   -2.068647    0.057550
      7          6           0      -11.102735    0.028152    0.195611
      8          6           0       10.965251   -0.394309   -0.182218
      9          6           0      -12.423065    2.143121    0.505424
     10          6           0       12.224035   -2.611026   -0.657364
     11          6           0      -11.250935    1.211870    0.824806
     12          6           0       11.137913   -1.574855   -0.937337
     13          6           0      -11.521781   -0.639516   -2.168105
     14          6           0      -12.392825   -2.026045   -0.224951
     15          6           0       12.884535    1.177976    0.393383
     16          6           0       11.377715    0.361987    2.386183
     17          6           0       -9.904004   -0.876135    0.334649
     18          6           0        9.906123    0.667889   -0.416500
     19          6           0      -10.140269    1.824593    1.762871
     20          6           0       10.115350   -1.989798   -1.961953
     21          6           0       -8.530194   -0.505057    0.293149
     22          6           0        8.555084    0.397575   -0.430289
     23          6           0       -7.372348   -1.411591    0.475069
     24          6           0        7.500663    1.387320   -0.475308
     25          6           0       -7.542946   -2.795942    0.873042
     26          6           0        7.884869    2.764405   -0.767083
     27          6           0       -6.102734   -0.627822    0.385144
     28          6           0        6.230480    1.003836   -0.392731
     29          6           0       -4.824956   -1.287616    0.448927
     30          6           0        5.055291    1.667304   -0.429652
     31          6           0       -3.632723   -0.634382    0.286240
     32          6           0        3.754420    1.137270   -0.164529
     33          6           0       -2.389186   -1.299477    0.268183
     34          6           0        2.531740    1.875160   -0.119578
     35          6           0       -2.335270   -2.844153    0.572655
     36          6           0        2.619863    3.292514   -0.442840
     37          6           0       -1.155804   -0.592378    0.157232
     38          6           0        1.278393    1.150272   -0.076366
     39          6           0       -1.139082    0.775737   -0.099674
     40          6           0       -0.031508    1.608627   -0.202456
     41          1           0      -13.981885   -0.088561    0.070559
     42          1           0      -14.059380    0.174824   -1.594906
     43          1           0       12.472719   -2.139044    1.887407
     44          1           0       13.950683   -0.833099    1.829698
     45          1           0      -14.091235    2.199089   -0.657993
     46          1           0      -12.546886    1.950861   -1.521777
     47          1           0       14.195944   -2.843143    0.302170
     48          1           0       13.817850   -1.523859   -0.838441
     49          1           0      -13.064373    2.327697    1.343634
     50          1           0      -11.882904    3.081031    0.271177
     51          1           0       11.765435   -3.482879   -0.115178
     52          1           0       12.488870   -3.023435   -1.522122
     53          1           0      -11.362999    0.405267   -2.745276
     54          1           0      -11.968074   -1.553913   -2.815978
     55          1           0      -10.534891   -1.135908   -2.205029
     56          1           0      -12.693804   -2.214335    0.838765
     57          1           0      -11.659375   -2.782051   -0.611400
     58          1           0      -13.396428   -2.086498   -0.858532
     59          1           0       13.188993    0.696563   -0.436878
     60          1           0       13.848283    1.448245    1.026223
     61          1           0       12.416273    2.119237    0.209609
     62          1           0       10.669943   -0.615260    2.510919
     63          1           0       10.758057    1.330359    2.420759
     64          1           0       12.231102    0.456354    3.099963
     65          1           0      -10.000095   -1.888798    0.546349
     66          1           0       10.152903    1.746385   -0.483851
     67          1           0       -9.450621    0.913183    2.082304
     68          1           0      -10.693594    2.161060    2.571531
     69          1           0       -9.679689    2.621390    1.285839
     70          1           0        9.307250   -1.378336   -2.325787
     71          1           0        9.389995   -2.995458   -1.938936
     72          1           0       10.754920   -2.280198   -2.795507
     73          1           0       -8.289675    0.579141    0.133494
     74          1           0        8.313877   -0.677708   -0.339227
     75          1           0       -8.077560   -2.679303    1.906628
     76          1           0       -6.624310   -3.291764    0.940130
     77          1           0       -8.223107   -3.297296    0.154200
     78          1           0        8.222424    2.964545   -1.755113
     79          1           0        8.770785    3.260206   -0.041299
     80          1           0        7.080872    3.356998   -0.704884
     81          1           0       -6.252966    0.422172    0.242347
     82          1           0        6.050589   -0.167581   -0.426119
     83          1           0       -4.666725   -2.407850    0.358986
     84          1           0        5.213811    2.792133   -0.852388
     85          1           0       -3.760590    0.401414    0.040703
     86          1           0        3.776468    0.000992    0.266946
     87          1           0       -2.801746   -2.998246    1.608357
     88          1           0       -1.327964   -3.257881    0.651197
     89          1           0       -3.108474   -3.428683    0.055288
     90          1           0        3.124473    3.575784   -1.366359
     91          1           0        3.275894    4.018856    0.166677
     92          1           0        1.573747    3.834432   -0.527360
     93          1           0       -0.327591   -1.173085    0.120713
     94          1           0        1.441700    0.100062    0.024996
     95          1           0       -2.061002    1.218528   -0.255234
     96          1           0       -0.259854    2.739121   -0.170646
 ---------------------------------------------------------------------

 SCF Done:  E(RB3LYP) =  -1557.59441090     A.U. after   17 cycles

 Excitation energies and oscillator strengths:

 Excited State   1:      Singlet-A      1.8612 eV  666.14 nm  f=3.1770  <S**2>=0.000
     148 ->149         0.71663
     148 <-149        -0.16138
 This state for optimization and/or second-order correction.
 Total Energy, E(TD-HF/TD-DFT) =  -1557.52601168
 Copying the excited state density for this state as the 1-particle RhoCI density.

 The electronic state is 1-A.
 Alpha  occ. eigenvalues --  -10.21555 -10.20976 -10.20799 -10.20496 -10.20431
 Alpha  occ. eigenvalues --  -10.20348 -10.20262 -10.20239 -10.19912 -10.19847
 Alpha  occ. eigenvalues --  -10.19704 -10.19684 -10.19615 -10.19593 -10.19568
 Alpha  occ. eigenvalues --  -10.19378 -10.19286 -10.19117 -10.18990 -10.18901
 Alpha  occ. eigenvalues --  -10.18861 -10.18759 -10.18723 -10.18701 -10.18684
 Alpha  occ. eigenvalues --  -10.18382 -10.18326 -10.18314 -10.18216 -10.18204
 Alpha  occ. eigenvalues --  -10.18157 -10.18141 -10.18074 -10.17853 -10.17706
 Alpha  occ. eigenvalues --  -10.17266 -10.17169 -10.16652 -10.16413 -10.16200
 Alpha  occ. eigenvalues --   -0.85578  -0.83885  -0.83619  -0.82992  -0.82127
 Alpha  occ. eigenvalues --   -0.81285  -0.78949  -0.77769  -0.77560  -0.77468
 Alpha  occ. eigenvalues --   -0.76669  -0.75158  -0.74104  -0.72020  -0.71748
 Alpha  occ. eigenvalues --   -0.70577  -0.69029  -0.68203  -0.68181  -0.67369
 Alpha  occ. eigenvalues --   -0.67137  -0.66940  -0.66156  -0.65903  -0.65607
 Alpha  occ. eigenvalues --   -0.63089  -0.62230  -0.59819  -0.58687  -0.56782
 Alpha  occ. eigenvalues --   -0.56545  -0.56201  -0.55404  -0.53699  -0.52874
 Alpha  occ. eigenvalues --   -0.52257  -0.51285  -0.50971  -0.50575  -0.49736
 Alpha  occ. eigenvalues --   -0.48225  -0.47812  -0.47387  -0.46790  -0.45965
 Alpha  occ. eigenvalues --   -0.45545  -0.45138  -0.44997  -0.44346  -0.44270
 Alpha  occ. eigenvalues --   -0.43638  -0.43226  -0.42834  -0.42531  -0.42321
 Alpha  occ. eigenvalues --   -0.42102  -0.41760  -0.41359  -0.40949  -0.40914
 Alpha  occ. eigenvalues --   -0.40648  -0.40418  -0.39639  -0.39040  -0.38970
 Alpha  occ. eigenvalues --   -0.38874  -0.38752  -0.38637  -0.38390  -0.38269
 Alpha  occ. eigenvalues --   -0.38190  -0.37631  -0.37223  -0.36958  -0.36709
 Alpha  occ. eigenvalues --   -0.36386  -0.35841  -0.35729  -0.35510  -0.35301
 Alpha  occ. eigenvalues --   -0.34877  -0.34597  -0.34186  -0.34145  -0.34042
 Alpha  occ. eigenvalues --   -0.33665  -0.33224  -0.33211  -0.33152  -0.33004
 Alpha  occ. eigenvalues --   -0.32707  -0.31395  -0.31192  -0.31105  -0.30628
 Alpha  occ. eigenvalues --   -0.30170  -0.30090  -0.29020  -0.28889  -0.28806
 Alpha  occ. eigenvalues --   -0.28161  -0.27285  -0.25785  -0.23564  -0.22454
 Alpha  occ. eigenvalues --   -0.21015  -0.18748  -0.15499
 Alpha virt. eigenvalues --   -0.09224  -0.05552  -0.01936   0.00440   0.02106
 Alpha virt. eigenvalues --    0.03602   0.05784   0.06235   0.06635   0.07440
 Alpha virt. eigenvalues --    0.07763   0.07871   0.08477   0.08963   0.09252

 Mulliken charges:
               1
     1  C   -0.005286
     2  C   -0.009838
     3  C   -0.162884
     4  C   -0.158458
     5  C   -0.194567
     6  C   -0.195661
     7  C    0.128912
     8  C    0.022551
     9  C   -0.240457
    10  C   -0.202220
    11  C    0.011302
    12  C    0.066041
    13  C   -0.307092
    14  C   -0.322854
    15  C   -0.291902
    16  C   -0.277133
    17  C   -0.149423
    18  C   -0.130754
    19  C   -0.356371
    20  C   -0.357988
    21  C   -0.106968
    22  C   -0.091071
    23  C    0.105468
    24  C    0.137322
    25  C   -0.369924
    26  C   -0.374379
    27  C   -0.131136
    28  C   -0.103102
    29  C   -0.085659
    30  C   -0.082224
    31  C   -0.087590
    32  C   -0.141775
    33  C    0.081029
    34  C    0.137403
    35  C   -0.390600
    36  C   -0.387189
    37  C   -0.089409
    38  C   -0.098317
    39  C   -0.067779
    40  C   -0.107541
    41  H    0.102117
    42  H    0.104298
    43  H    0.064072
    44  H    0.081974
    45  H    0.095611
    46  H    0.109786
    47  H    0.087862
    48  H    0.088266
    49  H    0.101611
    50  H    0.094193
    51  H    0.096256
    52  H    0.104778
    53  H    0.086443
    54  H    0.074335
    55  H    0.111564
    56  H    0.103869
    57  H    0.102614
    58  H    0.083417
    59  H    0.120687
    60  H    0.073340
    61  H    0.102788
    62  H    0.089650
    63  H    0.089104
    64  H    0.105474
    65  H    0.083680
    66  H    0.083880
    67  H    0.106794
    68  H    0.111947
    69  H    0.118948
    70  H    0.128847
    71  H    0.076402
    72  H    0.104576
    73  H    0.081611
    74  H    0.081471
    75  H    0.126989
    76  H    0.121594
    77  H    0.124273
    78  H    0.132238
    79  H    0.080242
    80  H    0.109896
    81  H    0.089983
    82  H    0.062665
    83  H    0.069411
    84  H    0.061509
    85  H    0.084342
    86  H    0.071621
    87  H    0.117526
    88  H    0.117298
    89  H    0.124549
    90  H    0.129380
    91  H    0.107646
    92  H    0.089363
    93  H    0.076018
    94  H    0.079002
    95  H    0.078193
    96  H    0.081516
 Sum of Mulliken charges =  -0.00000

 Dipole moment (field-independent basis, Debye):
    X=             -3.1179    Y=             -0.4722    Z=             -0.5140  Tot=              3.1950
 Quadrupole moment (field-independent basis, Debye-Ang):
   XX=           -222.5813   YY=           -232.0334   ZZ=           -257.6979
   XY=             -2.5650   XZ=             -8.7994   YZ=             -2.8043

 Normal termination of Gaussian 16 at Tue Jul 30 08:44:25 2019.
