 Gaussian 16, Revision A.03,
 Gaussian 16:  ES64L-G16RevA.03 25-Dec-2016

 ---------------------------------
 # td=(NStates=1) B3LYP/6-31G(d,p)
 ---------------------------------

 --
 TD
 --
 Symbolic Z-matrix:
 Charge =  0 Multiplicity = 1

                         Standard orientation:
 ---------------------------------------------------------------------
 Center     Atomic      Atomic             Coordinates (Angstroms)
 Number     Number       Type             X           Y           Z
 ---------------------------------------------------------------------
      1          6           0      -12.073272   -0.601891   -0.644250
      2          6           0       12.128331    0.006424    0.838668
      3          6           0      -13.338706    0.104653   -0.561650
      4          6           0       13.065298   -1.257571    1.213208
      5          6           0      -13.164784    1.676057   -0.440594
      6          6           0       13.443281   -2.108316    0.079210
      7          6           0      -11.052188   -0.172594    0.448942
      8          6           0       10.997538   -0.461934   -0.137133
      9          6           0      -12.256511    2.066240    0.754153
     10          6           0       12.095863   -2.751945   -0.365232
     11          6           0      -11.150024    1.099304    0.948749
     12          6           0       10.931497   -1.758797   -0.558212
     13          6           0      -11.464767   -0.444106   -2.056492
     14          6           0      -12.415087   -2.155317   -0.392242
     15          6           0       12.971297    1.062158    0.131883
     16          6           0       11.485717    0.613738    2.051849
     17          6           0       -9.810128   -0.925083    0.525296
     18          6           0        9.857729    0.532588   -0.266161
     19          6           0      -10.095770    1.727943    1.873991
     20          6           0        9.668956   -2.249942   -1.485033
     21          6           0       -8.470080   -0.423723    0.240595
     22          6           0        8.598029    0.314853   -0.280058
     23          6           0       -7.286357   -1.283282    0.281631
     24          6           0        7.503262    1.291887   -0.423685
     25          6           0       -7.602116   -2.772279    0.581823
     26          6           0        7.826757    2.849582   -0.619340
     27          6           0       -6.107389   -0.691748    0.093006
     28          6           0        6.127532    0.988216   -0.364635
     29          6           0       -4.846153   -1.401930    0.392053
     30          6           0        4.951615    1.764842   -0.398137
     31          6           0       -3.691883   -0.612835    0.178789
     32          6           0        3.719121    1.204043   -0.390913
     33          6           0       -2.380151   -1.203943    0.179918
     34          6           0        2.476201    1.913408   -0.423598
     35          6           0       -2.214152   -2.714010    0.417973
     36          6           0        2.529441    3.441252   -0.643924
     37          6           0       -1.210734   -0.413531   -0.040611
     38          6           0        1.327873    1.177391   -0.280347
     39          6           0       -1.095463    1.005348   -0.203457
     40          6           0       -0.011537    1.729385   -0.278765
     41          1           0      -14.060309   -0.207593    0.250008
     42          1           0      -13.955749   -0.167557   -1.607040
     43          1           0       12.484473   -1.901653    1.829942
     44          1           0       13.712076   -0.653758    1.836081
     45          1           0      -14.056074    2.431567   -0.330098
     46          1           0      -12.728143    2.168201   -1.498759
     47          1           0       14.189150   -2.816334    0.480473
     48          1           0       13.841969   -1.546904   -0.882182
     49          1           0      -13.059771    1.955871    1.612523
     50          1           0      -12.019263    3.152172    0.534540
     51          1           0       11.636973   -3.436319    0.298238
     52          1           0       12.196602   -3.289580   -1.294639
     53          1           0      -11.220636    0.683941   -2.057781
     54          1           0      -12.154829   -0.709199   -2.867474
     55          1           0      -10.695681   -1.018744   -2.135080
     56          1           0      -12.820374   -2.200391    0.725367
     57          1           0      -11.616544   -2.769149   -0.716679
     58          1           0      -13.086525   -2.307177   -1.270231
     59          1           0       13.450061    0.523449   -0.690823
     60          1           0       13.766831    1.424446    0.800970
     61          1           0       12.305221    1.901867   -0.192696
     62          1           0       10.723580   -0.078435    2.456253
     63          1           0       10.956139    1.553732    1.763340
     64          1           0       12.361427    0.602643    2.777039
     65          1           0       -9.945641   -1.927481    0.991242
     66          1           0       10.193253    1.501112   -0.586109
     67          1           0       -9.658654    0.894474    2.410624
     68          1           0      -10.718770    2.118602    2.514710
     69          1           0       -9.395405    2.363385    1.555273
     70          1           0        8.956332   -1.299548   -1.623691
     71          1           0        9.250825   -2.945057   -0.954949
     72          1           0       10.001306   -2.729378   -2.421696
     73          1           0       -8.286433    0.585855   -0.149122
     74          1           0        8.321685   -0.581850    0.138497
     75          1           0       -8.255678   -2.991026    1.302836
     76          1           0       -6.633779   -3.203182    0.884394
     77          1           0       -8.080077   -3.335796   -0.343913
     78          1           0        8.512520    2.815907   -1.463734
     79          1           0        8.599991    3.418773    0.310025
     80          1           0        7.136326    3.626068   -0.907196
     81          1           0       -6.085640    0.317280   -0.030209
     82          1           0        5.946539   -0.106930   -0.627622
     83          1           0       -4.978148   -2.564988    0.658882
     84          1           0        5.113009    2.983239   -0.260595
     85          1           0       -3.773447    0.472234    0.042684
     86          1           0        3.808385    0.051751   -0.325813
     87          1           0       -2.847546   -2.838684    1.301663
     88          1           0       -1.271727   -2.978478    0.682917
     89          1           0       -2.733231   -3.240077   -0.382881
     90          1           0        2.990548    3.868455   -1.531415
     91          1           0        3.154063    3.964285    0.163254
     92          1           0        1.499015    3.918874   -0.430747
     93          1           0       -0.337382   -0.790879    0.201609
     94          1           0        1.521680   -0.001274   -0.388487
     95          1           0       -2.000623    1.558790   -0.163907
     96          1           0        0.037572    2.793231   -0.251423
 ---------------------------------------------------------------------

 SCF Done:  E(RB3LYP) =  -1557.56283574     A.U. after   16 cycles

 Excitation energies and oscillator strengths:

 Excited State   1:      Singlet-A      2.2191 eV  558.71 nm  f=2.9541  <S**2>=0.000
     148 ->149         0.70883
 This state for optimization and/or second-order correction.
 Total Energy, E(TD-HF/TD-DFT) =  -1557.48128472
 Copying the excited state density for this state as the 1-particle RhoCI density.

 The electronic state is 1-A.
 Alpha  occ. eigenvalues --  -10.21297 -10.21195 -10.20640 -10.20471 -10.20003
 Alpha  occ. eigenvalues --  -10.19911 -10.19883 -10.19874 -10.19814 -10.19809
 Alpha  occ. eigenvalues --  -10.19737 -10.19687 -10.19626 -10.19512 -10.19495
 Alpha  occ. eigenvalues --  -10.19363 -10.19300 -10.19268 -10.19261 -10.19157
 Alpha  occ. eigenvalues --  -10.18846 -10.18791 -10.18715 -10.18345 -10.18314
 Alpha  occ. eigenvalues --  -10.18190 -10.18076 -10.18029 -10.17954 -10.17872
 Alpha  occ. eigenvalues --  -10.17770 -10.17757 -10.17743 -10.17428 -10.17404
 Alpha  occ. eigenvalues --  -10.17237 -10.17189 -10.16926 -10.15990 -10.14489
 Alpha  occ. eigenvalues --   -0.84708  -0.84600  -0.83642  -0.82998  -0.81971
 Alpha  occ. eigenvalues --   -0.81164  -0.79420  -0.78736  -0.77992  -0.77311
 Alpha  occ. eigenvalues --   -0.76223  -0.74813  -0.73973  -0.71923  -0.71442
 Alpha  occ. eigenvalues --   -0.69933  -0.69643  -0.68036  -0.67963  -0.67762
 Alpha  occ. eigenvalues --   -0.67631  -0.67484  -0.66867  -0.66524  -0.66115
 Alpha  occ. eigenvalues --   -0.62857  -0.61977  -0.59898  -0.58831  -0.57196
 Alpha  occ. eigenvalues --   -0.55881  -0.55027  -0.54729  -0.54140  -0.53316
 Alpha  occ. eigenvalues --   -0.52417  -0.51563  -0.50423  -0.49962  -0.49067
 Alpha  occ. eigenvalues --   -0.48280  -0.47843  -0.47215  -0.46963  -0.45736
 Alpha  occ. eigenvalues --   -0.45041  -0.44859  -0.44610  -0.44232  -0.43765
 Alpha  occ. eigenvalues --   -0.43460  -0.43230  -0.42905  -0.42692  -0.42240
 Alpha  occ. eigenvalues --   -0.41987  -0.41775  -0.41302  -0.40890  -0.40681
 Alpha  occ. eigenvalues --   -0.40553  -0.40308  -0.40107  -0.39757  -0.39531
 Alpha  occ. eigenvalues --   -0.39510  -0.39259  -0.38963  -0.38729  -0.38514
 Alpha  occ. eigenvalues --   -0.38145  -0.37618  -0.37136  -0.37024  -0.36990
 Alpha  occ. eigenvalues --   -0.36734  -0.36490  -0.35947  -0.35853  -0.35520
 Alpha  occ. eigenvalues --   -0.35325  -0.35129  -0.34973  -0.33941  -0.33794
 Alpha  occ. eigenvalues --   -0.33416  -0.33186  -0.33006  -0.32904  -0.32477
 Alpha  occ. eigenvalues --   -0.32114  -0.31930  -0.31456  -0.31311  -0.30981
 Alpha  occ. eigenvalues --   -0.30371  -0.29961  -0.29208  -0.28847  -0.28355
 Alpha  occ. eigenvalues --   -0.27607  -0.26906  -0.25707  -0.23633  -0.22501
 Alpha  occ. eigenvalues --   -0.21412  -0.19019  -0.16562
 Alpha virt. eigenvalues --   -0.08153  -0.05298  -0.01693   0.00475   0.02358
 Alpha virt. eigenvalues --    0.03627   0.05741   0.06421   0.06524   0.06728
 Alpha virt. eigenvalues --    0.07264   0.07710   0.07899   0.08730   0.09200

 Mulliken charges:
               1
     1  C   -0.012454
     2  C   -0.038403
     3  C   -0.142236
     4  C   -0.166299
     5  C   -0.191063
     6  C   -0.176553
     7  C    0.055746
     8  C    0.078905
     9  C   -0.216252
    10  C   -0.233001
    11  C    0.050127
    12  C    0.002543
    13  C   -0.278638
    14  C   -0.303237
    15  C   -0.283692
    16  C   -0.281259
    17  C   -0.162702
    18  C   -0.113747
    19  C   -0.348460
    20  C   -0.360519
    21  C   -0.097725
    22  C   -0.108584
    23  C    0.121876
    24  C    0.077127
    25  C   -0.357108
    26  C   -0.350775
    27  C   -0.104733
    28  C   -0.139179
    29  C   -0.105535
    30  C   -0.049365
    31  C   -0.105473
    32  C   -0.118792
    33  C    0.073734
    34  C    0.126085
    35  C   -0.359845
    36  C   -0.380341
    37  C   -0.113175
    38  C   -0.119787
    39  C   -0.067729
    40  C   -0.089433
    41  H    0.088012
    42  H    0.059259
    43  H    0.099777
    44  H    0.081332
    45  H    0.073628
    46  H    0.058193
    47  H    0.099759
    48  H    0.089495
    49  H    0.098104
    50  H    0.106904
    51  H    0.116557
    52  H    0.101170
    53  H    0.096744
    54  H    0.092142
    55  H    0.113676
    56  H    0.094400
    57  H    0.103003
    58  H    0.090686
    59  H    0.100611
    60  H    0.090727
    61  H    0.096093
    62  H    0.100795
    63  H    0.105751
    64  H    0.082318
    65  H    0.088255
    66  H    0.082010
    67  H    0.106511
    68  H    0.113209
    69  H    0.117864
    70  H    0.114874
    71  H    0.127594
    72  H    0.099933
    73  H    0.084222
    74  H    0.103600
    75  H    0.137004
    76  H    0.089165
    77  H    0.108982
    78  H    0.122657
    79  H    0.051302
    80  H    0.119402
    81  H    0.078936
    82  H    0.065520
    83  H    0.095801
    84  H    0.065404
    85  H    0.094125
    86  H    0.079300
    87  H    0.117374
    88  H    0.116832
    89  H    0.129529
    90  H    0.135929
    91  H    0.111723
    92  H    0.099716
    93  H    0.069024
    94  H    0.079614
    95  H    0.065823
    96  H    0.079585
 Sum of Mulliken charges =  -0.00000

 Dipole moment (field-independent basis, Debye):
    X=             -0.2045    Y=             -0.6367    Z=              0.3781  Tot=              0.7683
 Quadrupole moment (field-independent basis, Debye-Ang):
   XX=           -242.1520   YY=           -231.7168   ZZ=           -256.6068
   XY=             -7.9534   XZ=             -3.6383   YZ=             -3.1651

 Normal termination of Gaussian 16 at Wed Jul 31 06:02:09 2019.
