 Gaussian 16, Revision A.03,
 Gaussian 16:  ES64L-G16RevA.03 25-Dec-2016

 ---------------------------------
 # td=(NStates=1) B3LYP/6-31G(d,p)
 ---------------------------------

 --
 TD
 --
 Symbolic Z-matrix:
 Charge =  0 Multiplicity = 1

                         Standard orientation:
 ---------------------------------------------------------------------
 Center     Atomic      Atomic             Coordinates (Angstroms)
 Number     Number       Type             X           Y           Z
 ---------------------------------------------------------------------
      1          6           0      -12.047279   -0.594647   -0.732578
      2          6           0       12.014085   -0.033052    0.984806
      3          6           0      -13.388673    0.148343   -0.618230
      4          6           0       12.846641   -1.299532    1.326742
      5          6           0      -13.147641    1.726556   -0.601332
      6          6           0       13.436029   -2.130847    0.138125
      7          6           0      -11.052068   -0.044354    0.232572
      8          6           0       10.985689   -0.415330   -0.269532
      9          6           0      -12.367705    2.181942    0.604491
     10          6           0       12.161237   -2.572765   -0.754138
     11          6           0      -11.245922    1.143991    0.886753
     12          6           0       10.929533   -1.614837   -0.909700
     13          6           0      -11.512186   -0.487496   -2.233512
     14          6           0      -12.463028   -2.058829   -0.378885
     15          6           0       13.074131    0.932194    0.332954
     16          6           0       11.474427    0.553484    2.200408
     17          6           0       -9.905423   -0.920778    0.429529
     18          6           0        9.923962    0.539778   -0.121042
     19          6           0      -10.265479    1.690594    1.883440
     20          6           0       10.031459   -2.095099   -1.881918
     21          6           0       -8.590191   -0.562455    0.332221
     22          6           0        8.551175    0.385227   -0.221412
     23          6           0       -7.414770   -1.343877    0.485631
     24          6           0        7.566035    1.377794   -0.320048
     25          6           0       -7.701954   -2.841881    0.695518
     26          6           0        8.046594    2.814697   -0.507923
     27          6           0       -6.188404   -0.799800    0.443162
     28          6           0        6.260625    0.983192   -0.382745
     29          6           0       -4.841496   -1.339753    0.364260
     30          6           0        5.050349    1.782102   -0.409554
     31          6           0       -3.645059   -0.670891    0.293697
     32          6           0        3.767818    1.200690   -0.328497
     33          6           0       -2.334460   -1.171597    0.340760
     34          6           0        2.498257    1.953601   -0.338782
     35          6           0       -2.161549   -2.669421    0.647773
     36          6           0        2.473559    3.351532   -0.719566
     37          6           0       -1.219749   -0.473465    0.172246
     38          6           0        1.336405    1.223708   -0.202327
     39          6           0       -1.173161    0.908530   -0.248382
     40          6           0       -0.021570    1.612916   -0.320752
     41          1           0      -14.069367   -0.161692    0.317681
     42          1           0      -14.180504   -0.161585   -1.278953
     43          1           0       12.158296   -2.142648    1.828465
     44          1           0       13.636328   -0.943246    2.159773
     45          1           0      -14.115081    2.309364   -0.480278
     46          1           0      -12.615057    1.837975   -1.719088
     47          1           0       13.993665   -3.170142    0.489315
     48          1           0       14.261406   -1.602629   -0.501604
     49          1           0      -13.006407    2.375422    1.360081
     50          1           0      -11.931641    3.114114    0.297807
     51          1           0       11.939538   -3.527062   -0.520709
     52          1           0       12.521587   -2.651824   -1.944277
     53          1           0      -11.181684    0.365911   -2.489627
     54          1           0      -12.547493   -0.783458   -2.807051
     55          1           0      -10.697226   -1.187706   -2.435885
     56          1           0      -12.661174   -2.243972    0.669250
     57          1           0      -11.677924   -2.971463   -0.872770
     58          1           0      -13.513215   -1.970376   -1.011921
     59          1           0       13.549843    0.683745   -0.467851
     60          1           0       13.802640    1.419722    0.934255
     61          1           0       12.471497    1.887608   -0.299817
     62          1           0       10.681162   -0.175268    2.468093
     63          1           0       11.287113    1.684219    2.071822
     64          1           0       12.308689    0.590889    2.863339
     65          1           0      -10.266422   -1.929574    0.666623
     66          1           0       10.353485    1.517510   -0.137255
     67          1           0       -9.752972    0.739029    2.281448
     68          1           0      -10.772807    2.279184    2.761811
     69          1           0       -9.667968    2.513411    1.435828
     70          1           0        9.207318   -1.404591   -2.091621
     71          1           0        9.604551   -3.137360   -1.669661
     72          1           0       10.739692   -2.420975   -2.654309
     73          1           0       -8.476675    0.410441    0.183305
     74          1           0        8.257699   -0.663169   -0.127486
     75          1           0       -8.394311   -3.076654    1.588326
     76          1           0       -6.591834   -3.225376    0.813852
     77          1           0       -8.141569   -3.325014   -0.002744
     78          1           0        8.556811    2.835380   -1.505892
     79          1           0        8.816211    3.263147    0.339394
     80          1           0        7.285356    3.632286   -0.542094
     81          1           0       -6.084514    0.566153    0.352922
     82          1           0        6.136920   -0.182787   -0.402753
     83          1           0       -4.645083   -2.372005    0.458056
     84          1           0        5.195006    2.776903   -0.722705
     85          1           0       -3.876928    0.455452    0.124197
     86          1           0        3.475107    0.201163   -0.393617
     87          1           0       -2.625726   -2.906923    1.645612
     88          1           0       -1.071133   -2.763349    0.661067
     89          1           0       -2.777576   -3.187929   -0.100003
     90          1           0        2.576911    3.681806   -1.799206
     91          1           0        3.305205    3.912545   -0.165295
     92          1           0        1.604203    4.019506   -0.705946
     93          1           0       -0.314817   -1.117335    0.369390
     94          1           0        1.757407    0.126530    0.238037
     95          1           0       -2.084733    1.370902   -0.434451
     96          1           0       -0.183269    2.614806   -0.860256
 ---------------------------------------------------------------------

 SCF Done:  E(RB3LYP) =  -1557.49480974     A.U. after   15 cycles

 Excitation energies and oscillator strengths:

 Excited State   1:      Singlet-A      2.1854 eV  567.34 nm  f=2.9399  <S**2>=0.000
     148 ->149         0.70511
 This state for optimization and/or second-order correction.
 Total Energy, E(TD-HF/TD-DFT) =  -1557.41449905
 Copying the excited state density for this state as the 1-particle RhoCI density.

 The electronic state is 1-A.
 Alpha  occ. eigenvalues --  -10.21613 -10.21061 -10.20734 -10.20384 -10.20226
 Alpha  occ. eigenvalues --  -10.20203 -10.20192 -10.20151 -10.20118 -10.20048
 Alpha  occ. eigenvalues --  -10.19857 -10.19688 -10.19608 -10.19545 -10.19545
 Alpha  occ. eigenvalues --  -10.19412 -10.19393 -10.19379 -10.19371 -10.19287
 Alpha  occ. eigenvalues --  -10.19148 -10.18827 -10.18743 -10.18706 -10.18650
 Alpha  occ. eigenvalues --  -10.18634 -10.18615 -10.18530 -10.18525 -10.18328
 Alpha  occ. eigenvalues --  -10.18218 -10.18182 -10.18099 -10.18093 -10.17814
 Alpha  occ. eigenvalues --  -10.17545 -10.17411 -10.17387 -10.17279 -10.17147
 Alpha  occ. eigenvalues --   -0.85030  -0.84583  -0.84152  -0.83061  -0.82387
 Alpha  occ. eigenvalues --   -0.81860  -0.80102  -0.78856  -0.78204  -0.77320
 Alpha  occ. eigenvalues --   -0.76439  -0.75126  -0.74165  -0.72475  -0.71697
 Alpha  occ. eigenvalues --   -0.69978  -0.68985  -0.68958  -0.68632  -0.68419
 Alpha  occ. eigenvalues --   -0.67986  -0.67359  -0.66319  -0.66208  -0.66033
 Alpha  occ. eigenvalues --   -0.63118  -0.62243  -0.59487  -0.58677  -0.57681
 Alpha  occ. eigenvalues --   -0.56430  -0.55830  -0.55558  -0.53755  -0.52839
 Alpha  occ. eigenvalues --   -0.52500  -0.51916  -0.51214  -0.50003  -0.49204
 Alpha  occ. eigenvalues --   -0.48502  -0.48084  -0.47352  -0.46822  -0.46168
 Alpha  occ. eigenvalues --   -0.45878  -0.45563  -0.45141  -0.44268  -0.44027
 Alpha  occ. eigenvalues --   -0.43948  -0.43760  -0.43001  -0.42389  -0.41653
 Alpha  occ. eigenvalues --   -0.41640  -0.41302  -0.41166  -0.41161  -0.41028
 Alpha  occ. eigenvalues --   -0.40718  -0.40565  -0.39893  -0.39762  -0.39409
 Alpha  occ. eigenvalues --   -0.39249  -0.38921  -0.38708  -0.38312  -0.38072
 Alpha  occ. eigenvalues --   -0.37608  -0.37601  -0.37367  -0.37129  -0.37045
 Alpha  occ. eigenvalues --   -0.36369  -0.35796  -0.35448  -0.35093  -0.34791
 Alpha  occ. eigenvalues --   -0.34504  -0.34252  -0.34089  -0.33830  -0.33660
 Alpha  occ. eigenvalues --   -0.33334  -0.33183  -0.33057  -0.32581  -0.32225
 Alpha  occ. eigenvalues --   -0.31891  -0.31538  -0.31483  -0.30768  -0.30660
 Alpha  occ. eigenvalues --   -0.30244  -0.30019  -0.29778  -0.29197  -0.28635
 Alpha  occ. eigenvalues --   -0.27713  -0.27334  -0.26184  -0.24319  -0.22953
 Alpha  occ. eigenvalues --   -0.21318  -0.19051  -0.16725
 Alpha virt. eigenvalues --   -0.08363  -0.05607  -0.02217   0.00584   0.02414
 Alpha virt. eigenvalues --    0.04328   0.05442   0.05729   0.06173   0.06479
 Alpha virt. eigenvalues --    0.06846   0.07396   0.07705   0.08342   0.08911

 Mulliken charges:
               1
     1  C   -0.005651
     2  C    0.010140
     3  C   -0.185830
     4  C   -0.148110
     5  C   -0.192810
     6  C   -0.181144
     7  C    0.071115
     8  C    0.029781
     9  C   -0.195000
    10  C   -0.224296
    11  C    0.051328
    12  C    0.093805
    13  C   -0.272645
    14  C   -0.278112
    15  C   -0.285653
    16  C   -0.281528
    17  C   -0.151341
    18  C   -0.108813
    19  C   -0.360744
    20  C   -0.369569
    21  C   -0.060409
    22  C   -0.130426
    23  C    0.125427
    24  C    0.161145
    25  C   -0.357072
    26  C   -0.376118
    27  C   -0.120454
    28  C   -0.132970
    29  C   -0.084035
    30  C   -0.104551
    31  C   -0.091158
    32  C   -0.101140
    33  C    0.107831
    34  C    0.155331
    35  C   -0.368273
    36  C   -0.389375
    37  C   -0.110160
    38  C   -0.120096
    39  C   -0.074164
    40  C   -0.110058
    41  H    0.062901
    42  H    0.096914
    43  H    0.069800
    44  H    0.065500
    45  H    0.074815
    46  H    0.071855
    47  H    0.071305
    48  H    0.092821
    49  H    0.116335
    50  H    0.111056
    51  H    0.121798
    52  H    0.062106
    53  H    0.119117
    54  H    0.073513
    55  H    0.105992
    56  H    0.120645
    57  H    0.058335
    58  H    0.076717
    59  H    0.123332
    60  H    0.097989
    61  H    0.032781
    62  H    0.114168
    63  H    0.097938
    64  H    0.106117
    65  H    0.085166
    66  H    0.082273
    67  H    0.112452
    68  H    0.082254
    69  H    0.113626
    70  H    0.122227
    71  H    0.109090
    72  H    0.111620
    73  H    0.070789
    74  H    0.077960
    75  H    0.108891
    76  H    0.088249
    77  H    0.139058
    78  H    0.128322
    79  H    0.095482
    80  H    0.105449
    81  H    0.032750
    82  H    0.068691
    83  H    0.069687
    84  H    0.096233
    85  H    0.063053
    86  H    0.086443
    87  H    0.118595
    88  H    0.103689
    89  H    0.124622
    90  H    0.113403
    91  H    0.104837
    92  H    0.112360
    93  H    0.076357
    94  H    0.052895
    95  H    0.090949
    96  H    0.074479
 Sum of Mulliken charges =  -0.00000

 Dipole moment (field-independent basis, Debye):
    X=              0.6038    Y=             -0.0651    Z=             -0.6806  Tot=              0.9121
 Quadrupole moment (field-independent basis, Debye-Ang):
   XX=           -220.0239   YY=           -234.4023   ZZ=           -257.0119
   XY=             -6.6908   XZ=             -4.2573   YZ=             -2.6946

 Normal termination of Gaussian 16 at Tue Jul 30 03:32:41 2019.
