 Gaussian 16, Revision A.03,
 Gaussian 16:  ES64L-G16RevA.03 25-Dec-2016

 ---------------------------------
 # td=(NStates=1) B3LYP/6-31G(d,p)
 ---------------------------------

 --
 TD
 --
 Symbolic Z-matrix:
 Charge =  0 Multiplicity = 1

                         Standard orientation:
 ---------------------------------------------------------------------
 Center     Atomic      Atomic             Coordinates (Angstroms)
 Number     Number       Type             X           Y           Z
 ---------------------------------------------------------------------
      1          6           0       12.244406    0.501231   -0.689058
      2          6           0      -12.215323   -0.221300    0.844617
      3          6           0       13.507132   -0.242744   -0.572469
      4          6           0      -13.162159    0.968594    1.240750
      5          6           0       13.296180   -1.799711   -0.586291
      6          6           0      -13.558350    1.900753    0.099163
      7          6           0       11.069252   -0.142107    0.149680
      8          6           0      -11.110529    0.402539   -0.116102
      9          6           0       12.358900   -2.269927    0.490197
     10          6           0      -12.322922    2.582583   -0.495160
     11          6           0       11.225485   -1.331780    0.803502
     12          6           0      -11.197784    1.592581   -0.704478
     13          6           0       11.679723    0.571409   -2.171818
     14          6           0       12.660047    1.885335   -0.238129
     15          6           0      -12.991601   -1.334653    0.090218
     16          6           0      -11.513782   -0.861131    2.138034
     17          6           0        9.910172    0.807237    0.446781
     18          6           0       -9.924210   -0.460741   -0.306453
     19          6           0       10.261244   -1.875442    1.867422
     20          6           0      -10.134276    2.077859   -1.679238
     21          6           0        8.595219    0.464297    0.417917
     22          6           0       -8.623122   -0.292856   -0.101529
     23          6           0        7.445053    1.386615    0.522995
     24          6           0       -7.556685   -1.203923   -0.391047
     25          6           0        7.635818    2.809633    0.878782
     26          6           0       -7.948767   -2.572542   -0.783273
     27          6           0        6.197044    0.770186    0.164431
     28          6           0       -6.239331   -0.754622   -0.364746
     29          6           0        4.934535    1.426962    0.208558
     30          6           0       -5.062109   -1.473655   -0.503218
     31          6           0        3.745516    0.725927    0.131627
     32          6           0       -3.872630   -0.995115   -0.196412
     33          6           0        2.456925    1.275551    0.213907
     34          6           0       -2.506671   -1.640335   -0.393096
     35          6           0        2.359384    2.820665    0.539085
     36          6           0       -2.579325   -3.123634   -0.558603
     37          6           0        1.231971    0.600138    0.088419
     38          6           0       -1.372873   -1.010645   -0.289183
     39          6           0        1.152483   -0.762640   -0.214387
     40          6           0        0.052095   -1.512617   -0.386512
     41          1           0       14.136439    0.131611    0.556451
     42          1           0       14.484514   -0.031507   -1.377414
     43          1           0      -12.683421    1.542452    1.983026
     44          1           0      -14.138580    0.635547    1.738273
     45          1           0       14.375014   -2.245189   -0.246284
     46          1           0       12.901095   -2.093840   -1.734914
     47          1           0      -14.352883    2.661901    0.519720
     48          1           0      -14.060111    1.199558   -0.651196
     49          1           0       12.854198   -2.446670    1.540167
     50          1           0       12.045359   -3.328317    0.179126
     51          1           0      -11.982782    3.404393    0.142215
     52          1           0      -12.767131    3.175526   -1.409120
     53          1           0       11.448795   -0.231790   -2.730206
     54          1           0       12.410740    1.068020   -2.852520
     55          1           0       10.910628    1.372803   -2.224219
     56          1           0       12.916378    2.031701    0.875109
     57          1           0       12.000739    2.648875   -0.639473
     58          1           0       13.776565    2.102286   -0.803450
     59          1           0      -13.519803   -0.830933   -0.695247
     60          1           0      -13.614039   -1.653101    0.956668
     61          1           0      -12.368346   -2.323955   -0.460497
     62          1           0      -10.995465   -0.072321    2.904094
     63          1           0      -10.824008   -1.648525    2.043446
     64          1           0      -12.559332   -1.331033    2.536811
     65          1           0       10.095658    2.049902    0.450267
     66          1           0      -10.386661   -1.439794   -0.797057
     67          1           0        9.327632   -1.264292    2.078515
     68          1           0       10.804371   -2.318243    2.930519
     69          1           0        9.631024   -2.726900    1.566939
     70          1           0       -9.213389    1.207543   -1.529085
     71          1           0       -9.725633    2.909896   -1.184024
     72          1           0      -10.611529    2.402719   -2.752370
     73          1           0        8.590696   -0.558857    0.231470
     74          1           0       -8.450275    0.744230    0.310521
     75          1           0        8.043975    2.832926    1.908467
     76          1           0        6.770104    3.239709    1.264033
     77          1           0        8.427707    3.411242    0.251078
     78          1           0       -8.656954   -2.729410   -1.644425
     79          1           0       -8.591745   -2.650646    0.160132
     80          1           0       -7.147598   -3.297396   -0.847773
     81          1           0        6.152181   -0.272484    0.009297
     82          1           0       -6.030843    0.276632    0.045587
     83          1           0        4.914726    2.544732    0.787949
     84          1           0       -5.251423   -2.552493   -0.482512
     85          1           0        3.964672   -0.209271   -0.138258
     86          1           0       -3.562152   -0.004851    0.153238
     87          1           0        2.469390    3.050517    1.685997
     88          1           0        1.276669    3.391779    0.482997
     89          1           0        2.862047    3.275932   -0.102037
     90          1           0       -3.308889   -3.629766   -1.370333
     91          1           0       -2.848565   -3.525216    0.428238
     92          1           0       -1.506162   -3.505032   -0.887636
     93          1           0        0.306675    1.253134    0.306446
     94          1           0       -1.341726    0.142628   -0.132060
     95          1           0        1.938535   -1.401787   -0.457376
     96          1           0       -0.093888   -2.512420   -0.446629
 ---------------------------------------------------------------------

 SCF Done:  E(RB3LYP) =  -1557.46277491     A.U. after   15 cycles

 Excitation energies and oscillator strengths:

 Excited State   1:      Singlet-A      2.2796 eV  543.88 nm  f=2.9079  <S**2>=0.000
     147 ->149         0.11346
     148 ->149         0.69708
 This state for optimization and/or second-order correction.
 Total Energy, E(TD-HF/TD-DFT) =  -1557.37899970
 Copying the excited state density for this state as the 1-particle RhoCI density.

 The electronic state is 1-A.
 Alpha  occ. eigenvalues --  -10.21584 -10.21344 -10.21337 -10.20880 -10.20662
 Alpha  occ. eigenvalues --  -10.20626 -10.20431 -10.20308 -10.20259 -10.20163
 Alpha  occ. eigenvalues --  -10.20087 -10.19773 -10.19728 -10.19537 -10.19533
 Alpha  occ. eigenvalues --  -10.19531 -10.19443 -10.19406 -10.19289 -10.19273
 Alpha  occ. eigenvalues --  -10.19258 -10.19246 -10.19167 -10.18926 -10.18820
 Alpha  occ. eigenvalues --  -10.18819 -10.18789 -10.18715 -10.18540 -10.18444
 Alpha  occ. eigenvalues --  -10.18418 -10.18363 -10.18346 -10.18318 -10.18268
 Alpha  occ. eigenvalues --  -10.18208 -10.18208 -10.18161 -10.18026 -10.17022
 Alpha  occ. eigenvalues --   -0.84826  -0.84734  -0.83735  -0.83366  -0.82406
 Alpha  occ. eigenvalues --   -0.81519  -0.79488  -0.78626  -0.78060  -0.77606
 Alpha  occ. eigenvalues --   -0.76549  -0.75807  -0.74397  -0.72132  -0.72076
 Alpha  occ. eigenvalues --   -0.69562  -0.69093  -0.68505  -0.68016  -0.67412
 Alpha  occ. eigenvalues --   -0.67283  -0.66760  -0.66601  -0.66233  -0.65809
 Alpha  occ. eigenvalues --   -0.62638  -0.61717  -0.59253  -0.58206  -0.57135
 Alpha  occ. eigenvalues --   -0.56229  -0.55504  -0.54452  -0.53643  -0.53251
 Alpha  occ. eigenvalues --   -0.52449  -0.52186  -0.50934  -0.50181  -0.48552
 Alpha  occ. eigenvalues --   -0.48030  -0.47227  -0.46934  -0.46681  -0.46254
 Alpha  occ. eigenvalues --   -0.46005  -0.45308  -0.44993  -0.44133  -0.43684
 Alpha  occ. eigenvalues --   -0.43557  -0.43205  -0.43108  -0.42566  -0.42478
 Alpha  occ. eigenvalues --   -0.42061  -0.41804  -0.41271  -0.41025  -0.40879
 Alpha  occ. eigenvalues --   -0.40570  -0.40204  -0.39755  -0.39399  -0.38729
 Alpha  occ. eigenvalues --   -0.38620  -0.38076  -0.38041  -0.37922  -0.37203
 Alpha  occ. eigenvalues --   -0.37124  -0.36725  -0.36676  -0.36633  -0.36282
 Alpha  occ. eigenvalues --   -0.36181  -0.35941  -0.35688  -0.35643  -0.35214
 Alpha  occ. eigenvalues --   -0.34847  -0.34420  -0.34196  -0.34173  -0.33441
 Alpha  occ. eigenvalues --   -0.33297  -0.33190  -0.32977  -0.32335  -0.32091
 Alpha  occ. eigenvalues --   -0.31929  -0.31588  -0.31446  -0.31125  -0.30091
 Alpha  occ. eigenvalues --   -0.29793  -0.29381  -0.29120  -0.28892  -0.28662
 Alpha  occ. eigenvalues --   -0.28578  -0.27427  -0.26269  -0.24310  -0.22842
 Alpha  occ. eigenvalues --   -0.21705  -0.19202  -0.16839
 Alpha virt. eigenvalues --   -0.08249  -0.05270  -0.01679   0.00930   0.02573
 Alpha virt. eigenvalues --    0.03888   0.05284   0.05676   0.05942   0.06099
 Alpha virt. eigenvalues --    0.07018   0.07183   0.07768   0.07889   0.08270

 Mulliken charges:
               1
     1  C    0.034417
     2  C   -0.014911
     3  C   -0.136152
     4  C   -0.174169
     5  C   -0.182171
     6  C   -0.185453
     7  C    0.039642
     8  C    0.051294
     9  C   -0.198253
    10  C   -0.210908
    11  C    0.092676
    12  C    0.068467
    13  C   -0.312176
    14  C   -0.289666
    15  C   -0.271871
    16  C   -0.281198
    17  C   -0.114742
    18  C   -0.125446
    19  C   -0.363290
    20  C   -0.351023
    21  C   -0.083032
    22  C   -0.112209
    23  C    0.095850
    24  C    0.105284
    25  C   -0.376572
    26  C   -0.363093
    27  C   -0.113093
    28  C   -0.115040
    29  C   -0.083586
    30  C   -0.078259
    31  C   -0.087833
    32  C   -0.098660
    33  C    0.079047
    34  C    0.126095
    35  C   -0.350159
    36  C   -0.376338
    37  C   -0.116181
    38  C   -0.132570
    39  C   -0.068173
    40  C   -0.085194
    41  H    0.035681
    42  H    0.065842
    43  H    0.105763
    44  H    0.073373
    45  H    0.079822
    46  H    0.077920
    47  H    0.076182
    48  H    0.092041
    49  H    0.092811
    50  H    0.102542
    51  H    0.110164
    52  H    0.084059
    53  H    0.117744
    54  H    0.087297
    55  H    0.105043
    56  H    0.110385
    57  H    0.094978
    58  H    0.068970
    59  H    0.115767
    60  H    0.101099
    61  H    0.070731
    62  H    0.083877
    63  H    0.121507
    64  H    0.067033
    65  H    0.052103
    66  H    0.069979
    67  H    0.111155
    68  H    0.077459
    69  H    0.113610
    70  H    0.091448
    71  H    0.118064
    72  H    0.091122
    73  H    0.083819
    74  H    0.090788
    75  H    0.125226
    76  H    0.118451
    77  H    0.123103
    78  H    0.123315
    79  H    0.119611
    80  H    0.108957
    81  H    0.085179
    82  H    0.071110
    83  H    0.067266
    84  H    0.083421
    85  H    0.075969
    86  H    0.072425
    87  H    0.109945
    88  H    0.073483
    89  H    0.138085
    90  H    0.099005
    91  H    0.130175
    92  H    0.088364
    93  H    0.094196
    94  H    0.056377
    95  H    0.088339
    96  H    0.066470
 Sum of Mulliken charges =  -0.00000

 Dipole moment (field-independent basis, Debye):
    X=              0.2489    Y=             -0.0554    Z=              0.8891  Tot=              0.9249
 Quadrupole moment (field-independent basis, Debye-Ang):
   XX=           -230.9112   YY=           -236.3050   ZZ=           -256.2488
   XY=             -1.1239   XZ=             -3.4937   YZ=              5.2813

 Normal termination of Gaussian 16 at Tue Jul 30 15:39:47 2019.
