 Gaussian 16, Revision A.03,
 Gaussian 16:  ES64L-G16RevA.03 25-Dec-2016

 ---------------------------------
 # td=(NStates=1) B3LYP/6-31G(d,p)
 ---------------------------------

 --
 TD
 --
 Symbolic Z-matrix:
 Charge =  0 Multiplicity = 1

                         Standard orientation:
 ---------------------------------------------------------------------
 Center     Atomic      Atomic             Coordinates (Angstroms)
 Number     Number       Type             X           Y           Z
 ---------------------------------------------------------------------
      1          6           0       12.157371    0.589164   -0.696123
      2          6           0      -12.169935   -0.054440    0.755067
      3          6           0       13.502775   -0.278636   -0.708608
      4          6           0      -13.134543    1.180781    1.203297
      5          6           0       13.317354   -1.746302   -0.609282
      6          6           0      -13.378683    2.087445    0.043989
      7          6           0       11.028173    0.003963    0.228413
      8          6           0      -11.005172    0.423791   -0.064255
      9          6           0       12.330734   -2.014911    0.611392
     10          6           0      -12.017374    2.699871   -0.402066
     11          6           0       11.181960   -1.174883    0.815479
     12          6           0      -10.977918    1.623057   -0.651650
     13          6           0       11.697966    0.547290   -2.215147
     14          6           0       12.546446    1.973500   -0.183567
     15          6           0      -13.053091   -1.086824    0.075083
     16          6           0      -11.569794   -0.726593    2.050889
     17          6           0        9.844603    0.883322    0.349502
     18          6           0       -9.926313   -0.539428   -0.213418
     19          6           0       10.318749   -1.526425    2.011828
     20          6           0       -9.932957    2.103483   -1.694416
     21          6           0        8.569086    0.518367    0.328892
     22          6           0       -8.589643   -0.317154   -0.123276
     23          6           0        7.420409    1.323808    0.453219
     24          6           0       -7.503807   -1.325110   -0.425722
     25          6           0        7.541879    2.751206    0.594691
     26          6           0       -7.925313   -2.745619   -0.656272
     27          6           0        6.163968    0.674092    0.390648
     28          6           0       -6.262747   -0.862606   -0.359107
     29          6           0        4.860268    1.326806    0.348343
     30          6           0       -5.056400   -1.626496   -0.557645
     31          6           0        3.736387    0.624062    0.244017
     32          6           0       -3.861375   -1.059603   -0.316996
     33          6           0        2.346431    1.205040    0.250454
     34          6           0       -2.665267   -1.825622   -0.380100
     35          6           0        2.099545    2.746470    0.375804
     36          6           0       -2.700081   -3.287116   -0.682334
     37          6           0        1.216964    0.394875    0.117091
     38          6           0       -1.344029   -1.230199   -0.121099
     39          6           0        1.130430   -0.959694    0.074646
     40          6           0        0.098859   -1.754063   -0.270635
     41          1           0       14.018253   -0.158051    0.242020
     42          1           0       14.183427    0.216443   -1.584465
     43          1           0      -12.535702    1.786516    2.078360
     44          1           0      -14.152891    1.014341    1.639618
     45          1           0       14.092414   -2.558315   -0.711671
     46          1           0       12.707615   -2.023875   -1.574822
     47          1           0      -14.368016    2.775997    0.562911
     48          1           0      -13.719420    1.434470   -0.956739
     49          1           0       12.932433   -2.085641    1.468504
     50          1           0       12.032100   -3.000059    0.604683
     51          1           0      -11.563886    3.481749    0.162444
     52          1           0      -12.130326    3.461114   -1.132531
     53          1           0       11.595281   -0.516531   -2.573129
     54          1           0       12.323910    1.060643   -2.792593
     55          1           0       10.866992    1.064702   -2.300592
     56          1           0       12.747979    1.861222    0.897636
     57          1           0       11.756726    2.620084   -0.300509
     58          1           0       13.336418    2.388103   -0.582453
     59          1           0      -13.299257   -0.815245   -0.798804
     60          1           0      -13.931105   -1.315249    0.595343
     61          1           0      -12.523564   -2.106019   -0.133570
     62          1           0      -10.898261    0.123533    2.536934
     63          1           0      -11.048767   -1.622826    1.914724
     64          1           0      -12.508123   -1.130036    2.706840
     65          1           0       10.167756    1.952211    0.471385
     66          1           0      -10.337621   -1.508426   -0.566283
     67          1           0        9.749536   -0.878634    2.549070
     68          1           0       11.083406   -2.021458    2.595034
     69          1           0        9.845091   -2.350587    1.624181
     70          1           0       -9.298124    1.294601   -2.036790
     71          1           0       -9.037819    2.659399   -1.139607
     72          1           0      -10.429565    2.673279   -2.708076
     73          1           0        8.419253   -0.687269    0.211677
     74          1           0       -8.092306    0.639357    0.240843
     75          1           0        8.196083    3.129889    1.436646
     76          1           0        6.606455    3.386820    0.773032
     77          1           0        8.005601    3.269496   -0.248638
     78          1           0       -8.712030   -2.924323   -1.452279
     79          1           0       -8.448258   -2.965926    0.221447
     80          1           0       -7.211345   -3.341948   -0.550944
     81          1           0        6.256688   -0.532361    0.246829
     82          1           0       -6.053351    0.304152   -0.155123
     83          1           0        4.677695    2.385700    0.355026
     84          1           0       -4.887749   -2.541798   -0.870615
     85          1           0        3.699478   -0.484258    0.264416
     86          1           0       -3.831402    0.044247   -0.205284
     87          1           0        2.655187    3.282547    1.146660
     88          1           0        1.095335    3.191527    0.386651
     89          1           0        2.573610    3.269741   -0.513379
     90          1           0       -3.047507   -3.459755   -1.609206
     91          1           0       -3.336282   -3.631283    0.168107
     92          1           0       -1.710684   -3.653613   -0.669955
     93          1           0        0.282577    0.912332    0.217161
     94          1           0       -1.392355   -0.134358    0.256783
     95          1           0        1.989967   -1.563983    0.049386
     96          1           0        0.392981   -2.904385   -0.402438
 ---------------------------------------------------------------------

 SCF Done:  E(RB3LYP) =  -1557.52867321     A.U. after   15 cycles

 Excitation energies and oscillator strengths:

 Excited State   1:      Singlet-A      2.2641 eV  547.62 nm  f=2.9055  <S**2>=0.000
     148 ->149         0.70743
 This state for optimization and/or second-order correction.
 Total Energy, E(TD-HF/TD-DFT) =  -1557.44547019
 Copying the excited state density for this state as the 1-particle RhoCI density.

 The electronic state is 1-A.
 Alpha  occ. eigenvalues --  -10.21306 -10.21087 -10.20709 -10.20605 -10.20585
 Alpha  occ. eigenvalues --  -10.20258 -10.20002 -10.19976 -10.19855 -10.19724
 Alpha  occ. eigenvalues --  -10.19557 -10.19394 -10.19319 -10.19296 -10.19152
 Alpha  occ. eigenvalues --  -10.19138 -10.19117 -10.19002 -10.18951 -10.18908
 Alpha  occ. eigenvalues --  -10.18761 -10.18586 -10.18418 -10.18277 -10.18243
 Alpha  occ. eigenvalues --  -10.18087 -10.18082 -10.18066 -10.17929 -10.17616
 Alpha  occ. eigenvalues --  -10.17569 -10.17445 -10.17387 -10.17248 -10.17032
 Alpha  occ. eigenvalues --  -10.16714 -10.15979 -10.15772 -10.15403 -10.14732
 Alpha  occ. eigenvalues --   -0.85060  -0.84894  -0.83713  -0.83177  -0.82344
 Alpha  occ. eigenvalues --   -0.81343  -0.79274  -0.79162  -0.77727  -0.77316
 Alpha  occ. eigenvalues --   -0.76940  -0.75440  -0.74532  -0.72793  -0.72063
 Alpha  occ. eigenvalues --   -0.70111  -0.69749  -0.69487  -0.68812  -0.68601
 Alpha  occ. eigenvalues --   -0.68141  -0.67574  -0.67083  -0.66744  -0.66217
 Alpha  occ. eigenvalues --   -0.62553  -0.61584  -0.59391  -0.58301  -0.57479
 Alpha  occ. eigenvalues --   -0.57079  -0.55632  -0.55128  -0.54525  -0.53766
 Alpha  occ. eigenvalues --   -0.52295  -0.51877  -0.50285  -0.49698  -0.48933
 Alpha  occ. eigenvalues --   -0.47885  -0.47525  -0.47103  -0.46630  -0.45978
 Alpha  occ. eigenvalues --   -0.45781  -0.45304  -0.44821  -0.44477  -0.44062
 Alpha  occ. eigenvalues --   -0.43610  -0.43013  -0.42839  -0.42446  -0.42351
 Alpha  occ. eigenvalues --   -0.42268  -0.42217  -0.41629  -0.41153  -0.40987
 Alpha  occ. eigenvalues --   -0.40400  -0.40137  -0.40003  -0.39957  -0.39762
 Alpha  occ. eigenvalues --   -0.39501  -0.39170  -0.39038  -0.38631  -0.38420
 Alpha  occ. eigenvalues --   -0.38201  -0.37641  -0.37356  -0.36768  -0.36523
 Alpha  occ. eigenvalues --   -0.36466  -0.36175  -0.36093  -0.35915  -0.35375
 Alpha  occ. eigenvalues --   -0.35092  -0.35064  -0.34741  -0.34386  -0.33660
 Alpha  occ. eigenvalues --   -0.33383  -0.33337  -0.33181  -0.33005  -0.32945
 Alpha  occ. eigenvalues --   -0.32403  -0.32096  -0.31585  -0.31300  -0.30428
 Alpha  occ. eigenvalues --   -0.30389  -0.29584  -0.29149  -0.28891  -0.28215
 Alpha  occ. eigenvalues --   -0.28011  -0.27790  -0.25764  -0.24072  -0.22650
 Alpha  occ. eigenvalues --   -0.21168  -0.18944  -0.16512
 Alpha virt. eigenvalues --   -0.07849  -0.04801  -0.01571   0.00827   0.03249
 Alpha virt. eigenvalues --    0.04314   0.06371   0.06803   0.07295   0.07432
 Alpha virt. eigenvalues --    0.07961   0.08180   0.08278   0.08664   0.09121

 Mulliken charges:
               1
     1  C   -0.026131
     2  C   -0.019421
     3  C   -0.151651
     4  C   -0.152422
     5  C   -0.192730
     6  C   -0.157451
     7  C    0.067874
     8  C    0.082298
     9  C   -0.247461
    10  C   -0.208529
    11  C    0.044717
    12  C    0.062107
    13  C   -0.292441
    14  C   -0.304534
    15  C   -0.287563
    16  C   -0.280934
    17  C   -0.133313
    18  C   -0.148577
    19  C   -0.342966
    20  C   -0.355648
    21  C   -0.100477
    22  C   -0.092209
    23  C    0.174242
    24  C    0.125015
    25  C   -0.401526
    26  C   -0.355580
    27  C   -0.145704
    28  C   -0.149377
    29  C   -0.072919
    30  C   -0.057562
    31  C   -0.090923
    32  C   -0.085341
    33  C    0.093337
    34  C    0.059902
    35  C   -0.393808
    36  C   -0.366347
    37  C   -0.105646
    38  C   -0.142267
    39  C   -0.052281
    40  C   -0.115411
    41  H    0.085340
    42  H    0.066046
    43  H    0.069626
    44  H    0.086728
    45  H    0.094671
    46  H    0.070226
    47  H    0.046472
    48  H    0.077551
    49  H    0.114420
    50  H    0.104516
    51  H    0.108916
    52  H    0.093256
    53  H    0.097983
    54  H    0.099695
    55  H    0.104947
    56  H    0.101170
    57  H    0.102414
    58  H    0.105079
    59  H    0.113096
    60  H    0.109873
    61  H    0.070848
    62  H    0.087400
    63  H    0.112095
    64  H    0.063722
    65  H    0.077069
    66  H    0.084377
    67  H    0.128146
    68  H    0.098348
    69  H    0.120734
    70  H    0.125858
    71  H    0.095277
    72  H    0.085055
    73  H    0.066696
    74  H    0.077955
    75  H    0.113642
    76  H    0.104132
    77  H    0.125143
    78  H    0.117581
    79  H    0.131033
    80  H    0.108139
    81  H    0.074042
    82  H    0.069875
    83  H    0.085529
    84  H    0.071353
    85  H    0.080739
    86  H    0.071997
    87  H    0.119403
    88  H    0.117675
    89  H    0.110949
    90  H    0.132693
    91  H    0.120821
    92  H    0.113071
    93  H    0.077966
    94  H    0.073184
    95  H    0.074469
    96  H    0.080618
 Sum of Mulliken charges =  -0.00000

 Dipole moment (field-independent basis, Debye):
    X=              1.1524    Y=             -0.1321    Z=              0.0959  Tot=              1.1639
 Quadrupole moment (field-independent basis, Debye-Ang):
   XX=           -228.9235   YY=           -229.3964   ZZ=           -257.2349
   XY=              4.8386   XZ=              7.3163   YZ=              1.7626

 Normal termination of Gaussian 16 at Tue Jul 23 21:19:55 2019.
