 Gaussian 16, Revision A.03,
 Gaussian 16:  ES64L-G16RevA.03 25-Dec-2016

 ---------------------------------
 # td=(NStates=1) B3LYP/6-31G(d,p)
 ---------------------------------

 --
 TD
 --
 Symbolic Z-matrix:
 Charge =  0 Multiplicity = 1

                         Standard orientation:
 ---------------------------------------------------------------------
 Center     Atomic      Atomic             Coordinates (Angstroms)
 Number     Number       Type             X           Y           Z
 ---------------------------------------------------------------------
      1          6           0       12.178119    0.449998   -0.702619
      2          6           0      -12.088322   -0.166991    0.944557
      3          6           0       13.445823   -0.469853   -0.610848
      4          6           0      -12.987934    0.952985    1.439120
      5          6           0       13.138111   -1.913358   -0.407418
      6          6           0      -13.560694    1.859254    0.349184
      7          6           0       11.091078    0.014672    0.422954
      8          6           0      -11.065156    0.448011   -0.053253
      9          6           0       12.274464   -2.184414    0.807100
     10          6           0      -12.442427    2.506521   -0.406406
     11          6           0       11.150253   -1.183711    0.969460
     12          6           0      -11.228573    1.598483   -0.639878
     13          6           0       11.620752    0.479663   -2.015409
     14          6           0       12.539340    1.941533   -0.314184
     15          6           0      -12.951841   -1.273976    0.267854
     16          6           0      -11.538249   -0.730617    2.261317
     17          6           0        9.876980    0.796533    0.469066
     18          6           0       -9.952377   -0.542137   -0.331143
     19          6           0       10.199617   -1.587339    2.144624
     20          6           0      -10.247519    2.149263   -1.622155
     21          6           0        8.597568    0.402830    0.270751
     22          6           0       -8.601043   -0.293073   -0.205388
     23          6           0        7.462970    1.306810    0.455864
     24          6           0       -7.509893   -1.236530   -0.516952
     25          6           0        7.601512    2.817625    0.543529
     26          6           0       -7.893285   -2.599767   -0.840408
     27          6           0        6.257430    0.731464    0.199253
     28          6           0       -6.210354   -0.769589   -0.535567
     29          6           0        4.974561    1.510161    0.252430
     30          6           0       -4.977144   -1.584223   -0.654755
     31          6           0        3.741495    0.841209    0.144681
     32          6           0       -3.734856   -1.089098   -0.487928
     33          6           0        2.410207    1.386531    0.170837
     34          6           0       -2.444660   -1.774853   -0.633515
     35          6           0        2.272131    2.974762    0.286807
     36          6           0       -2.416351   -3.286982   -0.718180
     37          6           0        1.299174    0.664547   -0.029242
     38          6           0       -1.326109   -0.986005   -0.385193
     39          6           0        1.246869   -0.812194   -0.162054
     40          6           0        0.068873   -1.507368   -0.360794
     41          1           0       14.050790   -0.009033    0.250502
     42          1           0       13.997410   -0.195533   -1.542209
     43          1           0      -12.407924    1.426430    2.218803
     44          1           0      -13.831355    0.427988    1.908128
     45          1           0       14.139337   -2.529707   -0.255576
     46          1           0       12.625414   -2.303219   -1.297705
     47          1           0      -14.182545    2.589310    0.788749
     48          1           0      -14.342891    1.355151   -0.280978
     49          1           0       12.827230   -1.899493    1.794364
     50          1           0       11.946460   -3.308046    0.807230
     51          1           0      -11.839314    3.289894    0.375306
     52          1           0      -12.612005    2.990538   -1.415668
     53          1           0       11.138042   -0.623052   -2.272828
     54          1           0       12.280244    0.820925   -2.920678
     55          1           0       10.831750    1.233469   -2.229305
     56          1           0       12.751506    1.871782    0.874337
     57          1           0       11.689416    2.473198   -0.523780
     58          1           0       13.358742    2.573946   -0.822104
     59          1           0      -13.672554   -0.762776   -0.623113
     60          1           0      -13.590129   -1.775234    1.224472
     61          1           0      -12.416542   -2.066964   -0.228735
     62          1           0      -11.037675    0.029196    2.977334
     63          1           0      -10.771337   -1.681206    2.040541
     64          1           0      -12.294269   -1.229337    3.043235
     65          1           0        9.921093    1.918714    0.549140
     66          1           0      -10.300471   -1.553381   -0.386251
     67          1           0        9.695802   -0.819549    2.404511
     68          1           0       10.755404   -2.108111    2.856136
     69          1           0        9.461625   -2.319786    1.723855
     70          1           0       -9.708681    1.286464   -2.419620
     71          1           0       -9.282212    2.564524   -1.005481
     72          1           0      -10.587234    3.086115   -2.156210
     73          1           0        8.434680   -0.672171    0.002441
     74          1           0       -8.299544    0.804735    0.034873
     75          1           0        8.194831    2.859234    1.458265
     76          1           0        6.700079    3.285795    0.671576
     77          1           0        8.239982    3.213057   -0.201575
     78          1           0       -8.700814   -2.546023   -1.553463
     79          1           0       -8.342675   -2.908058    0.079175
     80          1           0       -7.117814   -3.295418   -1.227896
     81          1           0        6.047040   -0.320281    0.098414
     82          1           0       -6.140524    0.346908   -0.168836
     83          1           0        4.986016    2.710054    0.088990
     84          1           0       -5.120709   -2.653383   -0.943969
     85          1           0        3.752869   -0.286005   -0.075197
     86          1           0       -3.552895   -0.007341   -0.408538
     87          1           0        2.439743    3.135484    1.350011
     88          1           0        1.296887    3.076586    0.213115
     89          1           0        2.967911    3.412227   -0.490116
     90          1           0       -3.047146   -3.709398   -1.637164
     91          1           0       -2.765835   -3.711230    0.237046
     92          1           0       -1.551398   -3.625425   -1.035952
     93          1           0        0.254908    1.199282    0.041632
     94          1           0       -1.220631   -0.036058   -0.242492
     95          1           0        2.166508   -1.487733    0.091851
     96          1           0        0.162169   -2.582700   -0.435175
 ---------------------------------------------------------------------

 SCF Done:  E(RB3LYP) =  -1557.60942561     A.U. after   14 cycles

 Excitation energies and oscillator strengths:

 Excited State   1:      Singlet-A      2.4249 eV  511.30 nm  f=2.8543  <S**2>=0.000
     148 ->149         0.70655
 This state for optimization and/or second-order correction.
 Total Energy, E(TD-HF/TD-DFT) =  -1557.52031246
 Copying the excited state density for this state as the 1-particle RhoCI density.

 The electronic state is 1-A.
 Alpha  occ. eigenvalues --  -10.20630 -10.20564 -10.20529 -10.20388 -10.20118
 Alpha  occ. eigenvalues --  -10.20007 -10.20007 -10.19984 -10.19822 -10.19808
 Alpha  occ. eigenvalues --  -10.19761 -10.19645 -10.19644 -10.19523 -10.19448
 Alpha  occ. eigenvalues --  -10.19381 -10.19372 -10.19310 -10.18764 -10.18755
 Alpha  occ. eigenvalues --  -10.18721 -10.18720 -10.18675 -10.18647 -10.18618
 Alpha  occ. eigenvalues --  -10.18482 -10.18413 -10.18302 -10.18139 -10.18128
 Alpha  occ. eigenvalues --  -10.18116 -10.18076 -10.17872 -10.17851 -10.17843
 Alpha  occ. eigenvalues --  -10.17616 -10.17568 -10.17537 -10.17315 -10.15849
 Alpha  occ. eigenvalues --   -0.85259  -0.84973  -0.82892  -0.82588  -0.81985
 Alpha  occ. eigenvalues --   -0.81250  -0.78796  -0.78594  -0.77889  -0.77397
 Alpha  occ. eigenvalues --   -0.76717  -0.74830  -0.73947  -0.72326  -0.71818
 Alpha  occ. eigenvalues --   -0.70142  -0.69299  -0.68784  -0.67998  -0.67257
 Alpha  occ. eigenvalues --   -0.66869  -0.66816  -0.66618  -0.66189  -0.65410
 Alpha  occ. eigenvalues --   -0.62327  -0.61601  -0.59801  -0.58893  -0.57064
 Alpha  occ. eigenvalues --   -0.55942  -0.54930  -0.54618  -0.53312  -0.52767
 Alpha  occ. eigenvalues --   -0.52158  -0.51067  -0.50408  -0.48847  -0.48346
 Alpha  occ. eigenvalues --   -0.48106  -0.47122  -0.46881  -0.46228  -0.45982
 Alpha  occ. eigenvalues --   -0.45588  -0.44825  -0.44699  -0.43903  -0.43822
 Alpha  occ. eigenvalues --   -0.43550  -0.43206  -0.42843  -0.42692  -0.42525
 Alpha  occ. eigenvalues --   -0.42304  -0.42221  -0.41855  -0.41618  -0.41422
 Alpha  occ. eigenvalues --   -0.40528  -0.40038  -0.39967  -0.39667  -0.39441
 Alpha  occ. eigenvalues --   -0.39407  -0.39217  -0.38541  -0.37901  -0.37779
 Alpha  occ. eigenvalues --   -0.37474  -0.37094  -0.36902  -0.36622  -0.36270
 Alpha  occ. eigenvalues --   -0.35927  -0.35740  -0.35438  -0.35341  -0.35226
 Alpha  occ. eigenvalues --   -0.34841  -0.34593  -0.34249  -0.34058  -0.33835
 Alpha  occ. eigenvalues --   -0.33565  -0.33520  -0.33197  -0.33087  -0.32817
 Alpha  occ. eigenvalues --   -0.32690  -0.31737  -0.31520  -0.31276  -0.30982
 Alpha  occ. eigenvalues --   -0.30598  -0.29790  -0.29379  -0.29003  -0.28281
 Alpha  occ. eigenvalues --   -0.27558  -0.27104  -0.25925  -0.24053  -0.22833
 Alpha  occ. eigenvalues --   -0.21366  -0.18965  -0.16802
 Alpha virt. eigenvalues --   -0.07298  -0.04734  -0.01500   0.00691   0.02825
 Alpha virt. eigenvalues --    0.04284   0.05877   0.06559   0.06860   0.07066
 Alpha virt. eigenvalues --    0.07651   0.08050   0.08387   0.08597   0.09028

 Mulliken charges:
               1
     1  C    0.011440
     2  C    0.001285
     3  C   -0.161263
     4  C   -0.169276
     5  C   -0.175662
     6  C   -0.185333
     7  C    0.079077
     8  C    0.069477
     9  C   -0.211214
    10  C   -0.200144
    11  C    0.019905
    12  C    0.085871
    13  C   -0.278037
    14  C   -0.302358
    15  C   -0.273743
    16  C   -0.290565
    17  C   -0.160401
    18  C   -0.140051
    19  C   -0.331494
    20  C   -0.347440
    21  C   -0.065137
    22  C   -0.096706
    23  C    0.083120
    24  C    0.132986
    25  C   -0.359555
    26  C   -0.380228
    27  C   -0.111112
    28  C   -0.138314
    29  C   -0.108303
    30  C   -0.098229
    31  C   -0.108610
    32  C   -0.091206
    33  C    0.079177
    34  C    0.086727
    35  C   -0.348875
    36  C   -0.359372
    37  C   -0.135291
    38  C   -0.054672
    39  C   -0.097719
    40  C   -0.117457
    41  H    0.081058
    42  H    0.089290
    43  H    0.096089
    44  H    0.085120
    45  H    0.075771
    46  H    0.103544
    47  H    0.102393
    48  H    0.096313
    49  H    0.103308
    50  H    0.093298
    51  H    0.077160
    52  H    0.097953
    53  H    0.069042
    54  H    0.083123
    55  H    0.101362
    56  H    0.079126
    57  H    0.110249
    58  H    0.086352
    59  H    0.075089
    60  H    0.071759
    61  H    0.110634
    62  H    0.097631
    63  H    0.066628
    64  H    0.087562
    65  H    0.064634
    66  H    0.080037
    67  H    0.124117
    68  H    0.105768
    69  H    0.098273
    70  H    0.097202
    71  H    0.094102
    72  H    0.098957
    73  H    0.079698
    74  H    0.075630
    75  H    0.123700
    76  H    0.116409
    77  H    0.131912
    78  H    0.124874
    79  H    0.131440
    80  H    0.107456
    81  H    0.082571
    82  H    0.065586
    83  H    0.077910
    84  H    0.080543
    85  H    0.072344
    86  H    0.077303
    87  H    0.124891
    88  H    0.113668
    89  H    0.119026
    90  H    0.090404
    91  H    0.133773
    92  H    0.125583
    93  H    0.078891
    94  H    0.053536
    95  H    0.089564
    96  H    0.069045
 Sum of Mulliken charges =  -0.00000

 Dipole moment (field-independent basis, Debye):
    X=             -0.6619    Y=             -0.1460    Z=              0.1293  Tot=              0.6900
 Quadrupole moment (field-independent basis, Debye-Ang):
   XX=           -225.1897   YY=           -233.7266   ZZ=           -254.8506
   XY=             -2.8404   XZ=             -1.3729   YZ=              0.4846

 Normal termination of Gaussian 16 at Wed Jul 24 01:53:18 2019.
