 Gaussian 16, Revision A.03,
 Gaussian 16:  ES64L-G16RevA.03 25-Dec-2016

 ---------------------------------
 # td=(NStates=1) B3LYP/6-31G(d,p)
 ---------------------------------

 --
 TD
 --
 Symbolic Z-matrix:
 Charge =  0 Multiplicity = 1

                         Standard orientation:
 ---------------------------------------------------------------------
 Center     Atomic      Atomic             Coordinates (Angstroms)
 Number     Number       Type             X           Y           Z
 ---------------------------------------------------------------------
      1          6           0       12.121800    0.519370   -0.720969
      2          6           0      -12.147412   -0.091412    0.863561
      3          6           0       13.447781   -0.497618   -0.755950
      4          6           0      -13.138847    1.051363    1.316219
      5          6           0       13.011073   -1.968603   -0.595047
      6          6           0      -13.509895    1.999712    0.107396
      7          6           0       11.094408    0.042437    0.227951
      8          6           0      -11.053141    0.502692   -0.083752
      9          6           0       12.429533   -2.030815    0.707481
     10          6           0      -12.295041    2.671407   -0.444398
     11          6           0       11.201772   -1.099083    0.939775
     12          6           0      -11.163537    1.668187   -0.715189
     13          6           0       11.491275    0.592391   -2.179580
     14          6           0       12.702431    1.984283   -0.428820
     15          6           0      -12.969263   -1.226678    0.200306
     16          6           0      -11.551158   -0.636490    2.175869
     17          6           0        9.789624    0.984970    0.314243
     18          6           0       -9.878355   -0.439458   -0.278988
     19          6           0       10.280391   -1.594962    2.047724
     20          6           0      -10.072857    2.000194   -1.808251
     21          6           0        8.539848    0.512579    0.273157
     22          6           0       -8.582916   -0.323567   -0.121716
     23          6           0        7.440626    1.343181    0.436960
     24          6           0       -7.494972   -1.167193   -0.577537
     25          6           0        7.764833    2.845657    0.655838
     26          6           0       -7.938420   -2.620030   -0.980007
     27          6           0        6.195563    0.690011    0.365298
     28          6           0       -6.211188   -0.758287   -0.369309
     29          6           0        4.893219    1.350845    0.364182
     30          6           0       -4.965310   -1.564171   -0.576238
     31          6           0        3.689654    0.695764    0.337550
     32          6           0       -3.796324   -1.112366   -0.283116
     33          6           0        2.404002    1.228154    0.274439
     34          6           0       -2.562101   -1.841751   -0.275913
     35          6           0        2.301730    2.732555    0.398042
     36          6           0       -2.557209   -3.361574   -0.682591
     37          6           0        1.237525    0.481179    0.083300
     38          6           0       -1.319986   -1.123609   -0.101633
     39          6           0        1.172956   -0.954051   -0.059010
     40          6           0       -0.038149   -1.680579   -0.211540
     41          1           0       14.105632   -0.265951    0.170898
     42          1           0       14.112447   -0.263101   -1.625988
     43          1           0      -12.683428    1.665782    2.023594
     44          1           0      -13.996642    0.578130    1.809537
     45          1           0       13.868938   -2.704953   -0.833464
     46          1           0       12.376033   -2.156141   -1.426465
     47          1           0      -14.148841    2.752223    0.559577
     48          1           0      -13.851281    1.288972   -0.505713
     49          1           0       13.025203   -1.776034    1.477456
     50          1           0       11.970545   -2.984230    0.828820
     51          1           0      -11.710925    3.362563    0.335986
     52          1           0      -12.542018    3.267485   -1.308279
     53          1           0       11.276505   -0.511895   -2.465913
     54          1           0       12.290562    1.096199   -2.856235
     55          1           0       10.387640    1.128168   -2.271163
     56          1           0       12.878477    2.216724    0.600113
     57          1           0       11.806003    2.721355   -0.612123
     58          1           0       13.657623    2.138447   -0.849026
     59          1           0      -13.451036   -1.058521   -0.636089
     60          1           0      -13.750069   -1.810467    0.739427
     61          1           0      -12.303867   -2.015965   -0.192874
     62          1           0      -10.768373    0.088902    2.677706
     63          1           0      -10.945420   -1.820206    2.033894
     64          1           0      -12.179070   -0.962785    2.976995
     65          1           0        9.922974    2.086539    0.315431
     66          1           0      -10.319486   -1.314654   -0.458606
     67          1           0        9.476193   -0.913140    2.357566
     68          1           0       10.990854   -1.671682    2.932088
     69          1           0        9.626574   -2.546341    1.918009
     70          1           0       -9.258901    1.314024   -2.095623
     71          1           0       -9.460616    2.868196   -1.587364
     72          1           0      -10.543864    2.528731   -2.799387
     73          1           0        8.428101   -0.527482    0.306146
     74          1           0       -8.220614    0.613842    0.284855
     75          1           0        8.432077    3.041528    1.479839
     76          1           0        6.839660    3.347315    0.874591
     77          1           0        8.073188    3.358171   -0.299571
     78          1           0       -8.591864   -2.603540   -1.842841
     79          1           0       -8.422829   -3.257137   -0.317106
     80          1           0       -6.958870   -3.119872   -1.047433
     81          1           0        5.976713   -0.345368    0.091915
     82          1           0       -5.811333    0.345040   -0.242684
     83          1           0        4.984355    2.458811    0.480947
     84          1           0       -5.067263   -2.626643   -0.384414
     85          1           0        3.786218   -0.606532    0.496600
     86          1           0       -3.550410   -0.084954   -0.041118
     87          1           0        2.609415    3.036801    1.354533
     88          1           0        1.147447    3.073736    0.529235
     89          1           0        2.930504    3.385781   -0.194419
     90          1           0       -2.978600   -3.496760   -1.530420
     91          1           0       -3.080112   -4.130599    0.191987
     92          1           0       -1.451509   -3.583172   -0.727189
     93          1           0        0.429804    0.866774    0.537868
     94          1           0       -1.393164   -0.055084    0.163787
     95          1           0        2.121279   -1.509686   -0.093465
     96          1           0        0.125667   -2.735149   -0.342869
 ---------------------------------------------------------------------

 SCF Done:  E(RB3LYP) =  -1557.57111936     A.U. after   16 cycles

 Excitation energies and oscillator strengths:

 Excited State   1:      Singlet-A      2.1138 eV  586.53 nm  f=2.9291  <S**2>=0.000
     148 ->149         0.70873
     148 <-149        -0.12697
 This state for optimization and/or second-order correction.
 Total Energy, E(TD-HF/TD-DFT) =  -1557.49343686
 Copying the excited state density for this state as the 1-particle RhoCI density.

 The electronic state is 1-A.
 Alpha  occ. eigenvalues --  -10.20856 -10.20726 -10.20685 -10.20594 -10.20497
 Alpha  occ. eigenvalues --  -10.20297 -10.19984 -10.19800 -10.19711 -10.19652
 Alpha  occ. eigenvalues --  -10.19616 -10.19513 -10.19491 -10.19431 -10.19382
 Alpha  occ. eigenvalues --  -10.19279 -10.19234 -10.19234 -10.19119 -10.19051
 Alpha  occ. eigenvalues --  -10.19010 -10.18985 -10.18923 -10.18912 -10.18678
 Alpha  occ. eigenvalues --  -10.18377 -10.18243 -10.17940 -10.17853 -10.17720
 Alpha  occ. eigenvalues --  -10.17702 -10.17668 -10.17445 -10.17110 -10.17108
 Alpha  occ. eigenvalues --  -10.17076 -10.17009 -10.16660 -10.16647 -10.16411
 Alpha  occ. eigenvalues --   -0.84611  -0.84364  -0.83553  -0.83025  -0.82412
 Alpha  occ. eigenvalues --   -0.81025  -0.79058  -0.77870  -0.77614  -0.76994
 Alpha  occ. eigenvalues --   -0.76406  -0.75425  -0.74011  -0.71907  -0.71601
 Alpha  occ. eigenvalues --   -0.70021  -0.69040  -0.68797  -0.68467  -0.67752
 Alpha  occ. eigenvalues --   -0.67144  -0.66824  -0.66448  -0.65986  -0.65696
 Alpha  occ. eigenvalues --   -0.63208  -0.62013  -0.59888  -0.59206  -0.57580
 Alpha  occ. eigenvalues --   -0.56748  -0.56258  -0.55672  -0.53791  -0.53057
 Alpha  occ. eigenvalues --   -0.52858  -0.52208  -0.51154  -0.49742  -0.49318
 Alpha  occ. eigenvalues --   -0.48580  -0.47650  -0.46810  -0.46394  -0.45771
 Alpha  occ. eigenvalues --   -0.45420  -0.45219  -0.44540  -0.44311  -0.43943
 Alpha  occ. eigenvalues --   -0.43684  -0.42992  -0.42675  -0.42366  -0.42245
 Alpha  occ. eigenvalues --   -0.41745  -0.41413  -0.41303  -0.41038  -0.40776
 Alpha  occ. eigenvalues --   -0.40443  -0.40389  -0.39847  -0.39629  -0.39193
 Alpha  occ. eigenvalues --   -0.38694  -0.38539  -0.38387  -0.38176  -0.38007
 Alpha  occ. eigenvalues --   -0.37601  -0.37331  -0.37065  -0.36816  -0.36593
 Alpha  occ. eigenvalues --   -0.36035  -0.35826  -0.35665  -0.35526  -0.35290
 Alpha  occ. eigenvalues --   -0.34657  -0.34301  -0.34234  -0.34008  -0.33980
 Alpha  occ. eigenvalues --   -0.33338  -0.33201  -0.33048  -0.32766  -0.32528
 Alpha  occ. eigenvalues --   -0.32410  -0.32050  -0.31930  -0.31604  -0.31116
 Alpha  occ. eigenvalues --   -0.30493  -0.30422  -0.30026  -0.29249  -0.28203
 Alpha  occ. eigenvalues --   -0.27485  -0.27366  -0.25822  -0.23985  -0.22968
 Alpha  occ. eigenvalues --   -0.21308  -0.19405  -0.16299
 Alpha virt. eigenvalues --   -0.08700  -0.04929  -0.01491   0.00852   0.03116
 Alpha virt. eigenvalues --    0.03817   0.05586   0.07001   0.07597   0.07804
 Alpha virt. eigenvalues --    0.07842   0.08375   0.08536   0.08782   0.09085

 Mulliken charges:
               1
     1  C   -0.006567
     2  C    0.001668
     3  C   -0.198487
     4  C   -0.186201
     5  C   -0.179684
     6  C   -0.185020
     7  C    0.094362
     8  C    0.035094
     9  C   -0.191976
    10  C   -0.208328
    11  C    0.012784
    12  C    0.068295
    13  C   -0.280468
    14  C   -0.311428
    15  C   -0.315551
    16  C   -0.273906
    17  C   -0.160585
    18  C   -0.104384
    19  C   -0.362141
    20  C   -0.369131
    21  C   -0.044289
    22  C   -0.067473
    23  C    0.100012
    24  C    0.090429
    25  C   -0.385896
    26  C   -0.372213
    27  C   -0.128302
    28  C   -0.134922
    29  C   -0.081778
    30  C   -0.110486
    31  C   -0.102514
    32  C   -0.064485
    33  C    0.112760
    34  C    0.075032
    35  C   -0.382357
    36  C   -0.347085
    37  C   -0.115198
    38  C   -0.110216
    39  C   -0.101875
    40  C   -0.090841
    41  H    0.077545
    42  H    0.080785
    43  H    0.095905
    44  H    0.085531
    45  H    0.077123
    46  H    0.107137
    47  H    0.094859
    48  H    0.117815
    49  H    0.121083
    50  H    0.099852
    51  H    0.095485
    52  H    0.104098
    53  H    0.091257
    54  H    0.091120
    55  H    0.088571
    56  H    0.103250
    57  H    0.084862
    58  H    0.111631
    59  H    0.113965
    60  H    0.096552
    61  H    0.094047
    62  H    0.091994
    63  H    0.033314
    64  H    0.112021
    65  H    0.084029
    66  H    0.072519
    67  H    0.119750
    68  H    0.104394
    69  H    0.101433
    70  H    0.129874
    71  H    0.109245
    72  H    0.070800
    73  H    0.082399
    74  H    0.065045
    75  H    0.136091
    76  H    0.107954
    77  H    0.127936
    78  H    0.123021
    79  H    0.128379
    80  H    0.102050
    81  H    0.085453
    82  H    0.078273
    83  H    0.073919
    84  H    0.090620
    85  H    0.048207
    86  H    0.065960
    87  H    0.129475
    88  H    0.083496
    89  H    0.127258
    90  H    0.143211
    91  H    0.079288
    92  H    0.100964
    93  H    0.089659
    94  H    0.084848
    95  H    0.079615
    96  H    0.088381
 Sum of Mulliken charges =  -0.00000

 Dipole moment (field-independent basis, Debye):
    X=              1.1485    Y=              0.6365    Z=              0.9677  Tot=              1.6312
 Quadrupole moment (field-independent basis, Debye-Ang):
   XX=           -210.9824   YY=           -233.5354   ZZ=           -255.7200
   XY=              1.5358   XZ=              3.3780   YZ=              3.3214

 Normal termination of Gaussian 16 at Wed Jul 31 18:58:09 2019.
