 Gaussian 16, Revision A.03,
 Gaussian 16:  ES64L-G16RevA.03 25-Dec-2016

 ---------------------------------
 # td=(NStates=1) B3LYP/6-31G(d,p)
 ---------------------------------

 --
 TD
 --
 Symbolic Z-matrix:
 Charge =  0 Multiplicity = 1

                         Standard orientation:
 ---------------------------------------------------------------------
 Center     Atomic      Atomic             Coordinates (Angstroms)
 Number     Number       Type             X           Y           Z
 ---------------------------------------------------------------------
      1          6           0       12.169990    0.532041   -0.799652
      2          6           0      -12.107291   -0.129082    0.736059
      3          6           0       13.524137   -0.218026   -0.470144
      4          6           0      -13.028303    1.222762    1.178894
      5          6           0       13.372197   -1.760702   -0.446864
      6          6           0      -13.330533    2.155605    0.083548
      7          6           0       11.090511   -0.013719    0.183595
      8          6           0      -11.032599    0.384133   -0.196913
      9          6           0       12.480366   -2.100627    0.753866
     10          6           0      -12.056949    2.698337   -0.442311
     11          6           0       11.157545   -1.247200    0.797442
     12          6           0      -10.940641    1.584937   -0.682397
     13          6           0       11.590196    0.322242   -2.285825
     14          6           0       12.427863    2.096416   -0.616530
     15          6           0      -13.073462   -1.108150   -0.001661
     16          6           0      -11.659299   -0.676369    2.033640
     17          6           0        9.947533    0.866567    0.285335
     18          6           0       -9.908651   -0.580924   -0.310443
     19          6           0       10.177387   -1.650374    1.937221
     20          6           0       -9.995782    2.102952   -1.755487
     21          6           0        8.579397    0.436963    0.046460
     22          6           0       -8.599598   -0.339401   -0.163986
     23          6           0        7.450140    1.227923    0.388883
     24          6           0       -7.613052   -1.282902   -0.277456
     25          6           0        7.543685    2.724640    0.725963
     26          6           0       -8.046063   -2.749127   -0.750839
     27          6           0        6.195937    0.670312    0.227191
     28          6           0       -6.265507   -1.033979   -0.133484
     29          6           0        4.850450    1.460582    0.397237
     30          6           0       -5.051727   -1.629673   -0.302853
     31          6           0        3.710464    0.719492    0.304060
     32          6           0       -3.790080   -1.081900   -0.143054
     33          6           0        2.348653    1.353768    0.379538
     34          6           0       -2.489496   -1.810079   -0.258394
     35          6           0        2.341076    2.785668    0.686092
     36          6           0       -2.642388   -3.267543   -0.633510
     37          6           0        1.212586    0.530226    0.253510
     38          6           0       -1.378777   -1.176654   -0.106675
     39          6           0        1.142883   -0.799136   -0.201477
     40          6           0       -0.032579   -1.574396   -0.240231
     41          1           0       13.936219    0.164398    0.275145
     42          1           0       14.103955    0.207903   -1.312387
     43          1           0      -12.526185    1.662898    1.986563
     44          1           0      -13.968700    0.624090    1.597637
     45          1           0       14.360817   -2.096794   -0.394052
     46          1           0       12.783284   -2.163975   -1.355062
     47          1           0      -13.997340    2.757146    0.430365
     48          1           0      -13.935977    1.605340   -0.553391
     49          1           0       12.995826   -1.947817    1.575211
     50          1           0       12.231831   -3.157757    0.982852
     51          1           0      -11.695523    3.332561    0.144576
     52          1           0      -12.339513    3.158410   -1.366585
     53          1           0       11.535236   -0.672483   -2.727524
     54          1           0       12.464637    0.795025   -2.863631
     55          1           0       10.777747    0.906406   -2.351207
     56          1           0       12.473585    2.155177    0.423618
     57          1           0       11.684927    2.599964   -0.998946
     58          1           0       13.470450    2.176203   -1.201124
     59          1           0      -13.454269   -0.653964   -0.984628
     60          1           0      -13.718799   -1.586274    0.738141
     61          1           0      -12.424532   -1.903343   -0.458915
     62          1           0      -10.951966   -0.002593    2.442403
     63          1           0      -11.086449   -1.633931    1.603584
     64          1           0      -12.543510   -0.761030    2.882518
     65          1           0        9.920152    1.950673    0.654651
     66          1           0      -10.282545   -1.606579   -0.648817
     67          1           0        9.446728   -0.907545    2.348379
     68          1           0       10.810965   -1.943022    2.847160
     69          1           0        9.470679   -2.440156    1.710352
     70          1           0       -9.044669    1.466720   -1.901916
     71          1           0       -9.704597    3.090893   -1.385715
     72          1           0      -10.581399    2.131278   -2.706569
     73          1           0        8.594380   -0.561763   -0.088763
     74          1           0       -8.460741    0.714379    0.192989
     75          1           0        8.303326    2.779424    1.468263
     76          1           0        6.644627    3.398177    0.983966
     77          1           0        8.111854    3.168698    0.081359
     78          1           0       -8.270202   -2.783829   -1.931572
     79          1           0       -9.014557   -3.108390   -0.021167
     80          1           0       -7.179690   -3.433206   -0.959050
     81          1           0        6.093805   -0.264345   -0.131035
     82          1           0       -6.206104    0.098833    0.079138
     83          1           0        4.777366    2.567746    0.596832
     84          1           0       -5.303413   -2.677236   -0.805060
     85          1           0        3.970065   -0.190673    0.134806
     86          1           0       -3.662967    0.034144    0.130109
     87          1           0        2.890875    2.892762    1.636241
     88          1           0        1.281374    3.135220    0.689691
     89          1           0        2.702998    3.493156   -0.045289
     90          1           0       -3.507291   -3.500921   -1.399144
     91          1           0       -2.787697   -4.078166    0.291087
     92          1           0       -1.660090   -3.987356   -1.205542
     93          1           0        0.232300    1.054212    0.446668
     94          1           0       -1.627587   -0.028714    0.059597
     95          1           0        1.971954   -1.300936   -0.134935
     96          1           0        0.273028   -2.602648   -0.571945
 ---------------------------------------------------------------------

 SCF Done:  E(RB3LYP) =  -1557.45842556     A.U. after   15 cycles

 Excitation energies and oscillator strengths:

 Excited State   1:      Singlet-A      2.1821 eV  568.18 nm  f=2.7884  <S**2>=0.000
     147 ->149         0.12318
     148 ->149         0.69808
 This state for optimization and/or second-order correction.
 Total Energy, E(TD-HF/TD-DFT) =  -1557.37823397
 Copying the excited state density for this state as the 1-particle RhoCI density.

 The electronic state is 1-A.
 Alpha  occ. eigenvalues --  -10.21959 -10.21076 -10.20688 -10.20671 -10.20251
 Alpha  occ. eigenvalues --  -10.20230 -10.20131 -10.20117 -10.20076 -10.19859
 Alpha  occ. eigenvalues --  -10.19594 -10.19468 -10.19435 -10.19279 -10.18975
 Alpha  occ. eigenvalues --  -10.18883 -10.18740 -10.18651 -10.18615 -10.18567
 Alpha  occ. eigenvalues --  -10.18556 -10.18504 -10.18458 -10.18447 -10.18417
 Alpha  occ. eigenvalues --  -10.18410 -10.18162 -10.18149 -10.17991 -10.17905
 Alpha  occ. eigenvalues --  -10.17786 -10.17725 -10.17467 -10.17350 -10.17091
 Alpha  occ. eigenvalues --  -10.17069 -10.16788 -10.16430 -10.16388 -10.14826
 Alpha  occ. eigenvalues --   -0.85268  -0.84089  -0.83633  -0.82794  -0.82263
 Alpha  occ. eigenvalues --   -0.81409  -0.79322  -0.78550  -0.77811  -0.77634
 Alpha  occ. eigenvalues --   -0.76921  -0.76046  -0.74495  -0.71889  -0.71749
 Alpha  occ. eigenvalues --   -0.69741  -0.69617  -0.68410  -0.68057  -0.67836
 Alpha  occ. eigenvalues --   -0.67572  -0.67091  -0.67014  -0.66308  -0.66167
 Alpha  occ. eigenvalues --   -0.63049  -0.61747  -0.60226  -0.59302  -0.58188
 Alpha  occ. eigenvalues --   -0.56853  -0.56248  -0.55399  -0.54611  -0.53592
 Alpha  occ. eigenvalues --   -0.52857  -0.51290  -0.50655  -0.49865  -0.49225
 Alpha  occ. eigenvalues --   -0.48596  -0.47859  -0.47374  -0.46819  -0.46132
 Alpha  occ. eigenvalues --   -0.45645  -0.45094  -0.44916  -0.44597  -0.44108
 Alpha  occ. eigenvalues --   -0.43761  -0.43281  -0.43220  -0.42922  -0.42588
 Alpha  occ. eigenvalues --   -0.42201  -0.41951  -0.41303  -0.41043  -0.40702
 Alpha  occ. eigenvalues --   -0.40484  -0.40072  -0.40020  -0.39921  -0.39497
 Alpha  occ. eigenvalues --   -0.39217  -0.38905  -0.38810  -0.38567  -0.38250
 Alpha  occ. eigenvalues --   -0.38136  -0.37756  -0.37508  -0.36910  -0.36641
 Alpha  occ. eigenvalues --   -0.36277  -0.35968  -0.35589  -0.35286  -0.34938
 Alpha  occ. eigenvalues --   -0.34663  -0.34456  -0.34083  -0.33943  -0.33862
 Alpha  occ. eigenvalues --   -0.33612  -0.33389  -0.32916  -0.32341  -0.32263
 Alpha  occ. eigenvalues --   -0.32160  -0.32092  -0.31551  -0.31407  -0.30808
 Alpha  occ. eigenvalues --   -0.30407  -0.30124  -0.29571  -0.29203  -0.28463
 Alpha  occ. eigenvalues --   -0.27699  -0.26273  -0.25742  -0.23996  -0.23096
 Alpha  occ. eigenvalues --   -0.21127  -0.18796  -0.16573
 Alpha virt. eigenvalues --   -0.08296  -0.05195  -0.02578   0.01103   0.02554
 Alpha virt. eigenvalues --    0.03775   0.05316   0.06388   0.06767   0.07186
 Alpha virt. eigenvalues --    0.07399   0.07712   0.08066   0.08512   0.08754

 Mulliken charges:
               1
     1  C   -0.041260
     2  C   -0.017164
     3  C   -0.158471
     4  C   -0.190029
     5  C   -0.192151
     6  C   -0.166644
     7  C    0.072896
     8  C    0.106519
     9  C   -0.218500
    10  C   -0.207487
    11  C    0.042692
    12  C   -0.001266
    13  C   -0.290002
    14  C   -0.294024
    15  C   -0.299883
    16  C   -0.275343
    17  C   -0.160614
    18  C   -0.144742
    19  C   -0.367763
    20  C   -0.348394
    21  C   -0.094116
    22  C   -0.086065
    23  C    0.121615
    24  C    0.128639
    25  C   -0.378355
    26  C   -0.358367
    27  C   -0.150536
    28  C   -0.125741
    29  C   -0.090681
    30  C   -0.054417
    31  C   -0.065158
    32  C   -0.145229
    33  C    0.096015
    34  C    0.194416
    35  C   -0.385566
    36  C   -0.348685
    37  C   -0.114149
    38  C   -0.123661
    39  C   -0.062448
    40  C   -0.114992
    41  H    0.101458
    42  H    0.071578
    43  H    0.086788
    44  H    0.052536
    45  H    0.099120
    46  H    0.096352
    47  H    0.094812
    48  H    0.097194
    49  H    0.122405
    50  H    0.089180
    51  H    0.117480
    52  H    0.097654
    53  H    0.104349
    54  H    0.075874
    55  H    0.121296
    56  H    0.114030
    57  H    0.114447
    58  H    0.081334
    59  H    0.101335
    60  H    0.109156
    61  H    0.087495
    62  H    0.114722
    63  H    0.078642
    64  H    0.081494
    65  H    0.069550
    66  H    0.083788
    67  H    0.119119
    68  H    0.094393
    69  H    0.114150
    70  H    0.107194
    71  H    0.110199
    72  H    0.117877
    73  H    0.080765
    74  H    0.087758
    75  H    0.115285
    76  H    0.111768
    77  H    0.136436
    78  H    0.097816
    79  H    0.099267
    80  H    0.103431
    81  H    0.078264
    82  H    0.048536
    83  H    0.076962
    84  H    0.066099
    85  H    0.059539
    86  H    0.084821
    87  H    0.127696
    88  H    0.102585
    89  H    0.130709
    90  H    0.113089
    91  H    0.103153
    92  H    0.056398
    93  H    0.067596
    94  H    0.068996
    95  H    0.082319
    96  H    0.082823
 Sum of Mulliken charges =  -0.00000

 Dipole moment (field-independent basis, Debye):
    X=              0.9033    Y=              1.1995    Z=             -0.0155  Tot=              1.5017
 Quadrupole moment (field-independent basis, Debye-Ang):
   XX=           -209.0803   YY=           -235.2130   ZZ=           -254.6655
   XY=             -8.0569   XZ=             10.8118   YZ=              3.9668

 Normal termination of Gaussian 16 at Sat Jul 27 05:51:03 2019.
