 Gaussian 16, Revision A.03,
 Gaussian 16:  ES64L-G16RevA.03 25-Dec-2016

 ---------------------------------
 # td=(NStates=1) B3LYP/6-31G(d,p)
 ---------------------------------

 --
 TD
 --
 Symbolic Z-matrix:
 Charge =  0 Multiplicity = 1

                         Standard orientation:
 ---------------------------------------------------------------------
 Center     Atomic      Atomic             Coordinates (Angstroms)
 Number     Number       Type             X           Y           Z
 ---------------------------------------------------------------------
      1          6           0      -12.085422   -0.608189   -0.698493
      2          6           0       12.074623    0.028187    0.781408
      3          6           0      -13.410467    0.247569   -0.525017
      4          6           0       12.892625   -1.094295    1.284483
      5          6           0      -13.078771    1.789259   -0.705186
      6          6           0       13.333499   -2.052632    0.188036
      7          6           0      -10.983471    0.044282    0.197860
      8          6           0       10.916873   -0.423765   -0.172374
      9          6           0      -12.278472    2.155742    0.612970
     10          6           0       12.101255   -2.627695   -0.487563
     11          6           0      -11.177903    1.232381    0.892829
     12          6           0       10.913362   -1.670071   -0.714253
     13          6           0      -11.632648   -0.639036   -2.164645
     14          6           0      -12.569225   -2.013837   -0.298787
     15          6           0       12.975721    0.929626   -0.041954
     16          6           0       11.482408    0.826490    2.050601
     17          6           0       -9.752661   -0.811603    0.367365
     18          6           0        9.897296    0.715702   -0.332613
     19          6           0      -10.264033    1.683867    1.910421
     20          6           0        9.852208   -2.244197   -1.610809
     21          6           0       -8.538798   -0.402938    0.334824
     22          6           0        8.548846    0.444244   -0.324548
     23          6           0       -7.372320   -1.165355    0.439180
     24          6           0        7.484545    1.332292   -0.473357
     25          6           0       -7.625985   -2.617838    0.695253
     26          6           0        7.909242    2.740971   -0.679544
     27          6           0       -6.106387   -0.726313    0.236197
     28          6           0        6.196528    0.924854   -0.409219
     29          6           0       -4.829726   -1.403535    0.350807
     30          6           0        4.990023    1.636879   -0.526461
     31          6           0       -3.605662   -0.789974    0.287678
     32          6           0        3.747676    1.149833   -0.157308
     33          6           0       -2.261355   -1.376198    0.331793
     34          6           0        2.472843    1.860584   -0.230926
     35          6           0       -2.158753   -2.789286    0.699350
     36          6           0        2.545081    3.429643   -0.495696
     37          6           0       -1.167086   -0.602469    0.115422
     38          6           0        1.424755    1.090153   -0.164093
     39          6           0       -1.133454    0.809309   -0.186130
     40          6           0        0.149454    1.556150   -0.286291
     41          1           0      -14.011040   -0.063905    0.357134
     42          1           0      -13.912715    0.074896   -1.459984
     43          1           0       12.061918   -1.608384    2.054186
     44          1           0       13.787861   -0.741298    1.824568
     45          1           0      -14.019823    2.338346   -0.604973
     46          1           0      -12.627321    2.156850   -1.567533
     47          1           0       13.984220   -2.761829    0.606242
     48          1           0       13.913595   -1.472046   -0.489849
     49          1           0      -12.820136    2.079003    1.397322
     50          1           0      -11.724884    3.137919    0.278421
     51          1           0       11.643568   -3.537279    0.125007
     52          1           0       12.503392   -3.088449   -1.439799
     53          1           0      -11.357933    0.356489   -2.680938
     54          1           0      -12.398689   -1.012654   -3.092265
     55          1           0      -10.811827   -1.359342   -2.397350
     56          1           0      -12.953672   -2.182636    0.772943
     57          1           0      -11.584860   -2.727478   -0.545446
     58          1           0      -13.580659   -2.396085   -0.915680
     59          1           0       13.413437    0.483333   -1.025878
     60          1           0       13.716828    1.136472    0.573089
     61          1           0       12.538158    1.902709   -0.275656
     62          1           0       10.782776    0.186865    2.623702
     63          1           0       10.988635    1.847743    1.790005
     64          1           0       12.173312    0.970939    2.911624
     65          1           0       -9.878958   -1.939032    0.477381
     66          1           0       10.137815    1.580206   -0.305529
     67          1           0       -9.469753    0.952701    2.240433
     68          1           0      -10.740873    2.010589    2.713358
     69          1           0       -9.694904    2.424529    1.389473
     70          1           0        9.367426   -1.472442   -2.135471
     71          1           0        9.038164   -2.946764   -1.197168
     72          1           0       10.234236   -3.036452   -2.337908
     73          1           0       -8.076541    0.616537    0.052382
     74          1           0        8.362471   -0.786103   -0.356796
     75          1           0       -8.404746   -2.828882    1.453447
     76          1           0       -6.791269   -3.117114    0.767696
     77          1           0       -8.184416   -2.927900   -0.003990
     78          1           0        8.852754    2.743857   -1.295529
     79          1           0        8.185236    2.995224    0.498323
     80          1           0        7.090903    3.483690   -0.943907
     81          1           0       -6.099969    0.242708   -0.120399
     82          1           0        6.060006   -0.050039   -0.015343
     83          1           0       -4.821722   -2.359874    0.758219
     84          1           0        5.169234    2.682216   -0.891807
     85          1           0       -3.496429    0.180315   -0.098280
     86          1           0        3.809404    0.053759    0.099969
     87          1           0       -2.563552   -3.065510    1.703025
     88          1           0       -1.206904   -3.237879    0.521253
     89          1           0       -2.831937   -3.404927   -0.009202
     90          1           0        2.614306    3.577138   -1.595090
     91          1           0        3.412672    3.721765    0.153399
     92          1           0        1.478554    3.786551   -0.290517
     93          1           0       -0.131808   -1.018405    0.245683
     94          1           0        1.578650   -0.002482   -0.051107
     95          1           0       -1.898528    1.371496   -0.533596
     96          1           0       -0.061253    2.637608   -0.258566
 ---------------------------------------------------------------------

 SCF Done:  E(RB3LYP) =  -1557.55408455     A.U. after   16 cycles

 Excitation energies and oscillator strengths:

 Excited State   1:      Singlet-A      2.1394 eV  579.54 nm  f=3.0312  <S**2>=0.000
     148 ->149         0.70623
     148 <-149        -0.11349
 This state for optimization and/or second-order correction.
 Total Energy, E(TD-HF/TD-DFT) =  -1557.47546437
 Copying the excited state density for this state as the 1-particle RhoCI density.

 The electronic state is 1-A.
 Alpha  occ. eigenvalues --  -10.20608 -10.20579 -10.20215 -10.20192 -10.19910
 Alpha  occ. eigenvalues --  -10.19613 -10.19525 -10.19453 -10.19228 -10.19206
 Alpha  occ. eigenvalues --  -10.19187 -10.19169 -10.19137 -10.19123 -10.19060
 Alpha  occ. eigenvalues --  -10.18953 -10.18944 -10.18925 -10.18695 -10.18659
 Alpha  occ. eigenvalues --  -10.18542 -10.18373 -10.18339 -10.18339 -10.18197
 Alpha  occ. eigenvalues --  -10.18100 -10.18086 -10.17927 -10.17881 -10.17852
 Alpha  occ. eigenvalues --  -10.17737 -10.17707 -10.17627 -10.17467 -10.17398
 Alpha  occ. eigenvalues --  -10.17231 -10.16882 -10.16216 -10.15848 -10.14483
 Alpha  occ. eigenvalues --   -0.84969  -0.84924  -0.84087  -0.83626  -0.83150
 Alpha  occ. eigenvalues --   -0.82304  -0.79186  -0.78667  -0.77910  -0.77645
 Alpha  occ. eigenvalues --   -0.76447  -0.75375  -0.74367  -0.72804  -0.72086
 Alpha  occ. eigenvalues --   -0.70315  -0.70003  -0.68354  -0.68122  -0.67928
 Alpha  occ. eigenvalues --   -0.67410  -0.66777  -0.66399  -0.66088  -0.65958
 Alpha  occ. eigenvalues --   -0.63490  -0.62282  -0.60316  -0.59709  -0.58247
 Alpha  occ. eigenvalues --   -0.56759  -0.55840  -0.55220  -0.53979  -0.53345
 Alpha  occ. eigenvalues --   -0.52181  -0.51844  -0.50310  -0.50066  -0.49854
 Alpha  occ. eigenvalues --   -0.48618  -0.47881  -0.47318  -0.46697  -0.46366
 Alpha  occ. eigenvalues --   -0.45779  -0.45664  -0.45233  -0.44458  -0.44342
 Alpha  occ. eigenvalues --   -0.43850  -0.43266  -0.43195  -0.42488  -0.42320
 Alpha  occ. eigenvalues --   -0.42018  -0.41840  -0.41707  -0.41254  -0.41203
 Alpha  occ. eigenvalues --   -0.41103  -0.41021  -0.40417  -0.40143  -0.39511
 Alpha  occ. eigenvalues --   -0.39232  -0.38985  -0.38459  -0.38083  -0.37948
 Alpha  occ. eigenvalues --   -0.37835  -0.37488  -0.37306  -0.37111  -0.36799
 Alpha  occ. eigenvalues --   -0.36640  -0.36404  -0.36377  -0.35684  -0.35400
 Alpha  occ. eigenvalues --   -0.35085  -0.34450  -0.34292  -0.33901  -0.33795
 Alpha  occ. eigenvalues --   -0.33654  -0.33384  -0.32905  -0.32500  -0.32421
 Alpha  occ. eigenvalues --   -0.32145  -0.31861  -0.31354  -0.31258  -0.30894
 Alpha  occ. eigenvalues --   -0.30327  -0.29939  -0.29715  -0.29425  -0.28366
 Alpha  occ. eigenvalues --   -0.27645  -0.27349  -0.26831  -0.23674  -0.22612
 Alpha  occ. eigenvalues --   -0.20821  -0.18969  -0.16190
 Alpha virt. eigenvalues --   -0.08310  -0.04839  -0.02051   0.01317   0.02776
 Alpha virt. eigenvalues --    0.04612   0.06272   0.06855   0.07299   0.08015
 Alpha virt. eigenvalues --    0.08260   0.08448   0.08888   0.09168   0.09748

 Mulliken charges:
               1
     1  C    0.014493
     2  C   -0.000598
     3  C   -0.189571
     4  C   -0.163800
     5  C   -0.205006
     6  C   -0.185862
     7  C    0.068214
     8  C    0.067287
     9  C   -0.195702
    10  C   -0.214824
    11  C    0.042148
    12  C    0.071980
    13  C   -0.293968
    14  C   -0.278094
    15  C   -0.288688
    16  C   -0.317683
    17  C   -0.175067
    18  C   -0.073350
    19  C   -0.345269
    20  C   -0.380459
    21  C   -0.034954
    22  C   -0.106257
    23  C    0.132466
    24  C    0.139170
    25  C   -0.371727
    26  C   -0.372099
    27  C   -0.139138
    28  C   -0.125626
    29  C   -0.084817
    30  C   -0.073113
    31  C   -0.094257
    32  C   -0.135082
    33  C    0.131879
    34  C    0.099665
    35  C   -0.388343
    36  C   -0.355284
    37  C   -0.128893
    38  C   -0.058224
    39  C   -0.090888
    40  C   -0.151390
    41  H    0.094893
    42  H    0.099685
    43  H    0.055212
    44  H    0.082003
    45  H    0.088517
    46  H    0.110040
    47  H    0.098234
    48  H    0.103666
    49  H    0.113036
    50  H    0.088030
    51  H    0.085367
    52  H    0.093647
    53  H    0.097346
    54  H    0.057636
    55  H    0.107692
    56  H    0.098915
    57  H    0.065586
    58  H    0.082403
    59  H    0.092567
    60  H    0.106853
    61  H    0.091535
    62  H    0.109119
    63  H    0.088673
    64  H    0.095798
    65  H    0.074437
    66  H    0.043861
    67  H    0.113151
    68  H    0.110303
    69  H    0.119551
    70  H    0.133125
    71  H    0.103654
    72  H    0.092853
    73  H    0.056635
    74  H    0.070751
    75  H    0.103201
    76  H    0.098200
    77  H    0.137935
    78  H    0.120883
    79  H    0.103270
    80  H    0.107945
    81  H    0.059956
    82  H    0.067703
    83  H    0.079281
    84  H    0.065220
    85  H    0.068288
    86  H    0.078230
    87  H    0.122126
    88  H    0.110674
    89  H    0.103777
    90  H    0.134966
    91  H    0.128187
    92  H    0.108168
    93  H    0.078011
    94  H    0.084625
    95  H    0.088796
    96  H    0.076519
 Sum of Mulliken charges =  -0.00000

 Dipole moment (field-independent basis, Debye):
    X=             -0.1238    Y=              0.7758    Z=              0.0613  Tot=              0.7880
 Quadrupole moment (field-independent basis, Debye-Ang):
   XX=           -214.6790   YY=           -236.4392   ZZ=           -253.6333
   XY=             -3.9365   XZ=             -2.3312   YZ=             -2.9195

 Normal termination of Gaussian 16 at Fri Jul 26 15:25:04 2019.
