 Gaussian 16, Revision A.03,
 Gaussian 16:  ES64L-G16RevA.03 25-Dec-2016

 ---------------------------------
 # td=(NStates=1) B3LYP/6-31G(d,p)
 ---------------------------------

 --
 TD
 --
 Symbolic Z-matrix:
 Charge =  0 Multiplicity = 1

                         Standard orientation:
 ---------------------------------------------------------------------
 Center     Atomic      Atomic             Coordinates (Angstroms)
 Number     Number       Type             X           Y           Z
 ---------------------------------------------------------------------
      1          6           0       12.013066   -0.538961    0.885219
      2          6           0      -12.037103   -0.098439   -0.834021
      3          6           0       13.349281    0.231560    0.943614
      4          6           0      -12.991067   -1.324251   -1.164945
      5          6           0       13.173171    1.780787    0.745596
      6          6           0      -13.402081   -2.011937    0.038684
      7          6           0       10.920331   -0.029372   -0.154022
      8          6           0      -10.973018   -0.444263    0.122466
      9          6           0       12.413654    2.117374   -0.584626
     10          6           0      -12.123674   -2.676915    0.880348
     11          6           0       11.174834    1.125056   -0.737625
     12          6           0      -11.078429   -1.520824    0.899024
     13          6           0       11.421120   -0.520176    2.270266
     14          6           0       12.435469   -2.095757    0.635879
     15          6           0      -12.986607    0.985134   -0.208679
     16          6           0      -11.543114    0.441959   -2.191193
     17          6           0        9.819352   -0.882111   -0.411837
     18          6           0       -9.930524    0.599911    0.317447
     19          6           0       10.298227    1.623287   -1.918856
     20          6           0      -10.068211   -1.751412    2.080251
     21          6           0        8.561830   -0.524413   -0.418846
     22          6           0       -8.541808    0.356103    0.299324
     23          6           0        7.357914   -1.324167   -0.602980
     24          6           0       -7.498948    1.361778    0.340520
     25          6           0        7.576220   -2.775489   -0.798610
     26          6           0       -7.817793    2.746764    0.528050
     27          6           0        6.187278   -0.766085   -0.564687
     28          6           0       -6.211679    0.921303    0.201941
     29          6           0        4.908078   -1.352440   -0.619171
     30          6           0       -5.024752    1.789904    0.213466
     31          6           0        3.710247   -0.687626   -0.407881
     32          6           0       -3.709919    1.187740    0.236974
     33          6           0        2.380574   -1.267760   -0.475914
     34          6           0       -2.429054    1.729557    0.350349
     35          6           0        2.182640   -2.700449   -0.803165
     36          6           0       -2.487037    3.256557    0.610025
     37          6           0        1.340491   -0.440307   -0.248934
     38          6           0       -1.299432    1.089831    0.131084
     39          6           0        1.243579    0.928485    0.065841
     40          6           0        0.053204    1.602725    0.243923
     41          1           0       13.711369   -0.123566   -0.208774
     42          1           0       14.051883   -0.278379    1.653630
     43          1           0      -12.532419   -1.983539   -1.757459
     44          1           0      -13.981997   -1.013777   -1.696560
     45          1           0       14.104385    2.290254    0.717610
     46          1           0       12.486638    2.148625    1.646107
     47          1           0      -14.168845   -2.787212   -0.135426
     48          1           0      -13.907083   -1.446442    0.657042
     49          1           0       13.060022    2.014945   -1.460944
     50          1           0       12.167098    3.296240   -0.676566
     51          1           0      -11.826992   -3.437859    0.273317
     52          1           0      -12.490352   -3.053112    1.849352
     53          1           0       11.107136    0.608564    2.357885
     54          1           0       12.166492   -0.860907    3.116021
     55          1           0       10.363561   -0.976514    2.471419
     56          1           0       12.623146   -2.282597   -0.370348
     57          1           0       11.548662   -2.810692    0.931573
     58          1           0       13.390524   -2.276261    1.321111
     59          1           0      -13.519249    0.670102    0.659873
     60          1           0      -13.695938    1.369649   -1.067531
     61          1           0      -12.513622    1.934526   -0.109135
     62          1           0      -10.959234   -0.383207   -2.732926
     63          1           0      -11.019845    1.167227   -1.850497
     64          1           0      -12.226450    0.894973   -2.962517
     65          1           0       10.032654   -1.908436   -0.460357
     66          1           0      -10.358256    1.664238    0.345490
     67          1           0        9.544614    0.774890   -2.287800
     68          1           0       11.024809    2.001746   -2.745546
     69          1           0        9.483380    2.302203   -1.331855
     70          1           0       -9.567099   -0.760285    2.132922
     71          1           0       -9.360210   -2.715627    1.723496
     72          1           0      -10.815411   -1.698222    3.207571
     73          1           0        8.287417    0.578008   -0.082720
     74          1           0       -8.030617   -0.577329    0.035018
     75          1           0        8.476151   -2.802607   -1.617264
     76          1           0        6.678007   -3.337177   -1.165264
     77          1           0        8.018625   -3.315621    0.223313
     78          1           0       -8.324214    2.847379    1.443276
     79          1           0       -8.793538    2.986619   -0.326752
     80          1           0       -7.060659    3.607700    0.373595
     81          1           0        6.288991    0.307314   -0.205360
     82          1           0       -5.964639   -0.154514    0.368903
     83          1           0        4.658383   -2.357689   -0.870088
     84          1           0       -5.070546    2.901129    0.107342
     85          1           0        3.749794    0.407441   -0.020742
     86          1           0       -3.721828    0.057282    0.013620
     87          1           0        2.852882   -2.778957   -1.767955
     88          1           0        0.968456   -2.692666   -0.989852
     89          1           0        2.731196   -3.323927   -0.220190
     90          1           0       -3.106433    3.541816    1.495474
     91          1           0       -2.686785    3.868637   -0.205650
     92          1           0       -1.494221    3.802758    1.028102
     93          1           0        0.440981   -0.732106   -0.562478
     94          1           0       -1.216568   -0.025478   -0.230164
     95          1           0        2.076766    1.431565    0.177752
     96          1           0        0.121177    2.562892    0.422099
 ---------------------------------------------------------------------

 SCF Done:  E(RB3LYP) =  -1557.49620111     A.U. after   15 cycles

 Excitation energies and oscillator strengths:

 Excited State   1:      Singlet-A      2.2099 eV  561.04 nm  f=3.0940  <S**2>=0.000
     148 ->149         0.70536
     148 <-149        -0.10273
 This state for optimization and/or second-order correction.
 Total Energy, E(TD-HF/TD-DFT) =  -1557.41498886
 Copying the excited state density for this state as the 1-particle RhoCI density.

 The electronic state is 1-A.
 Alpha  occ. eigenvalues --  -10.20694 -10.20605 -10.20559 -10.20465 -10.20360
 Alpha  occ. eigenvalues --  -10.20201 -10.20057 -10.20052 -10.20031 -10.19911
 Alpha  occ. eigenvalues --  -10.19899 -10.19838 -10.19786 -10.19650 -10.19630
 Alpha  occ. eigenvalues --  -10.19629 -10.19588 -10.19562 -10.19525 -10.19447
 Alpha  occ. eigenvalues --  -10.19303 -10.19145 -10.19107 -10.19075 -10.19045
 Alpha  occ. eigenvalues --  -10.19006 -10.18525 -10.18498 -10.18359 -10.18352
 Alpha  occ. eigenvalues --  -10.18260 -10.18092 -10.18089 -10.17940 -10.17714
 Alpha  occ. eigenvalues --  -10.17422 -10.17190 -10.16378 -10.16069 -10.15835
 Alpha  occ. eigenvalues --   -0.85191  -0.85129  -0.84442  -0.83572  -0.83119
 Alpha  occ. eigenvalues --   -0.82452  -0.79338  -0.78277  -0.77530  -0.77151
 Alpha  occ. eigenvalues --   -0.76811  -0.75241  -0.74364  -0.71964  -0.71548
 Alpha  occ. eigenvalues --   -0.70538  -0.68410  -0.68230  -0.68142  -0.67831
 Alpha  occ. eigenvalues --   -0.67037  -0.66805  -0.66277  -0.65602  -0.65393
 Alpha  occ. eigenvalues --   -0.63404  -0.62487  -0.60309  -0.59477  -0.58192
 Alpha  occ. eigenvalues --   -0.57417  -0.55801  -0.55066  -0.54145  -0.52916
 Alpha  occ. eigenvalues --   -0.52273  -0.52005  -0.50609  -0.50087  -0.49440
 Alpha  occ. eigenvalues --   -0.48362  -0.47809  -0.46861  -0.46525  -0.46008
 Alpha  occ. eigenvalues --   -0.45486  -0.45145  -0.45011  -0.44562  -0.43831
 Alpha  occ. eigenvalues --   -0.43071  -0.42984  -0.42952  -0.42756  -0.42530
 Alpha  occ. eigenvalues --   -0.42087  -0.41638  -0.41312  -0.41133  -0.40842
 Alpha  occ. eigenvalues --   -0.40574  -0.40402  -0.40266  -0.39735  -0.39492
 Alpha  occ. eigenvalues --   -0.39166  -0.38889  -0.38482  -0.38219  -0.37950
 Alpha  occ. eigenvalues --   -0.37597  -0.37570  -0.37258  -0.36807  -0.36386
 Alpha  occ. eigenvalues --   -0.35921  -0.35875  -0.35434  -0.35363  -0.35136
 Alpha  occ. eigenvalues --   -0.35036  -0.34701  -0.34475  -0.34281  -0.34011
 Alpha  occ. eigenvalues --   -0.33805  -0.33337  -0.32988  -0.32585  -0.32462
 Alpha  occ. eigenvalues --   -0.32297  -0.32164  -0.31378  -0.31307  -0.30567
 Alpha  occ. eigenvalues --   -0.29709  -0.29498  -0.29004  -0.28570  -0.28148
 Alpha  occ. eigenvalues --   -0.27709  -0.27160  -0.26482  -0.24840  -0.23164
 Alpha  occ. eigenvalues --   -0.21768  -0.19412  -0.16847
 Alpha virt. eigenvalues --   -0.08573  -0.05324  -0.01898   0.00749   0.02846
 Alpha virt. eigenvalues --    0.03987   0.05591   0.05807   0.06256   0.06563
 Alpha virt. eigenvalues --    0.06875   0.07200   0.07826   0.08003   0.08624

 Mulliken charges:
               1
     1  C   -0.006558
     2  C   -0.048701
     3  C   -0.161995
     4  C   -0.142813
     5  C   -0.173870
     6  C   -0.202859
     7  C    0.087937
     8  C    0.135906
     9  C   -0.223390
    10  C   -0.221993
    11  C    0.043534
    12  C    0.029468
    13  C   -0.268304
    14  C   -0.301099
    15  C   -0.304740
    16  C   -0.286070
    17  C   -0.133329
    18  C   -0.190680
    19  C   -0.342610
    20  C   -0.318853
    21  C   -0.087968
    22  C   -0.080158
    23  C    0.181089
    24  C    0.169380
    25  C   -0.365924
    26  C   -0.366595
    27  C   -0.137251
    28  C   -0.150035
    29  C   -0.089868
    30  C   -0.085816
    31  C   -0.097785
    32  C   -0.137066
    33  C    0.120841
    34  C    0.157073
    35  C   -0.364130
    36  C   -0.391080
    37  C   -0.114411
    38  C   -0.122952
    39  C   -0.055316
    40  C   -0.076423
    41  H    0.053846
    42  H    0.097352
    43  H    0.093082
    44  H    0.073070
    45  H    0.097612
    46  H    0.087800
    47  H    0.066365
    48  H    0.106754
    49  H    0.115176
    50  H    0.090058
    51  H    0.123036
    52  H    0.102659
    53  H    0.078112
    54  H    0.080104
    55  H    0.089371
    56  H    0.113198
    57  H    0.083792
    58  H    0.081305
    59  H    0.114139
    60  H    0.080662
    61  H    0.097123
    62  H    0.088478
    63  H    0.105509
    64  H    0.091352
    65  H    0.086118
    66  H    0.094862
    67  H    0.102169
    68  H    0.098222
    69  H    0.099534
    70  H    0.122976
    71  H    0.094050
    72  H    0.051505
    73  H    0.065751
    74  H    0.089391
    75  H    0.096526
    76  H    0.109353
    77  H    0.100482
    78  H    0.141238
    79  H    0.059617
    80  H    0.110413
    81  H    0.070213
    82  H    0.087895
    83  H    0.062200
    84  H    0.089272
    85  H    0.071192
    86  H    0.068677
    87  H    0.104347
    88  H    0.102160
    89  H    0.144864
    90  H    0.118027
    91  H    0.139325
    92  H    0.080420
    93  H    0.056706
    94  H    0.070368
    95  H    0.064879
    96  H    0.062703
 Sum of Mulliken charges =  -0.00000

 Dipole moment (field-independent basis, Debye):
    X=              0.0263    Y=              0.4342    Z=             -0.2881  Tot=              0.5217
 Quadrupole moment (field-independent basis, Debye-Ang):
   XX=           -230.8904   YY=           -236.4345   ZZ=           -258.2770
   XY=             -3.1009   XZ=             -1.1490   YZ=              2.8306

 Normal termination of Gaussian 16 at Thu Aug  1 09:19:16 2019.
