 Gaussian 16, Revision A.03,
 Gaussian 16:  ES64L-G16RevA.03 25-Dec-2016

 ---------------------------------
 # td=(NStates=1) B3LYP/6-31G(d,p)
 ---------------------------------

 --
 TD
 --
 Symbolic Z-matrix:
 Charge =  0 Multiplicity = 1

                         Standard orientation:
 ---------------------------------------------------------------------
 Center     Atomic      Atomic             Coordinates (Angstroms)
 Number     Number       Type             X           Y           Z
 ---------------------------------------------------------------------
      1          6           0       12.211531    0.536993   -0.607214
      2          6           0      -12.288537   -0.037725    0.916594
      3          6           0       13.604908   -0.265708   -0.415597
      4          6           0      -13.074251    1.196804    1.313835
      5          6           0       13.320944   -1.823357   -0.470218
      6          6           0      -13.556478    2.053832    0.181939
      7          6           0       11.066012   -0.027719    0.234580
      8          6           0      -11.131351    0.427645    0.013352
      9          6           0       12.430642   -2.071689    0.684991
     10          6           0      -12.172655    2.608529   -0.437294
     11          6           0       11.207653   -1.102188    0.968780
     12          6           0      -11.064155    1.573100   -0.638608
     13          6           0       11.657936    0.560030   -2.086247
     14          6           0       12.601105    2.006449   -0.150819
     15          6           0      -13.113292   -1.098028    0.254765
     16          6           0      -11.522574   -0.687644    2.178234
     17          6           0        9.897589    0.870160    0.397549
     18          6           0       -9.989615   -0.563519   -0.129588
     19          6           0       10.205603   -1.675760    1.949369
     20          6           0       -9.945055    1.963651   -1.624435
     21          6           0        8.672481    0.390099    0.378945
     22          6           0       -8.725132   -0.365647   -0.258962
     23          6           0        7.492823    1.275430    0.354188
     24          6           0       -7.560562   -1.264369   -0.437745
     25          6           0        7.625252    2.810509    0.484084
     26          6           0       -8.064580   -2.758328   -0.697030
     27          6           0        6.262935    0.559423    0.211398
     28          6           0       -6.264790   -0.805623   -0.390064
     29          6           0        4.991342    1.286191    0.324548
     30          6           0       -5.068991   -1.637750   -0.555931
     31          6           0        3.704653    0.655684    0.104395
     32          6           0       -3.858517   -1.013302   -0.438481
     33          6           0        2.477023    1.261042    0.180739
     34          6           0       -2.637197   -1.732634   -0.544209
     35          6           0        2.463330    2.674295    0.321543
     36          6           0       -2.654997   -3.215684   -0.812356
     37          6           0        1.305864    0.550002   -0.007393
     38          6           0       -1.418797   -1.071874   -0.228365
     39          6           0        1.078177   -0.833190   -0.184558
     40          6           0       -0.085226   -1.543571   -0.393658
     41          1           0       14.215000   -0.056319    0.364039
     42          1           0       14.027767   -0.343968   -1.471638
     43          1           0      -12.635899    1.830662    2.042438
     44          1           0      -13.962909    0.892407    1.834043
     45          1           0       14.243748   -2.485855   -0.234827
     46          1           0       12.904860   -2.415941   -1.400740
     47          1           0      -14.157527    2.907422    0.527134
     48          1           0      -14.044099    1.500115   -0.611332
     49          1           0       12.992244   -2.120390    1.724674
     50          1           0       11.992753   -3.071294    0.604985
     51          1           0      -11.777998    3.389728    0.169522
     52          1           0      -12.424924    3.123604   -1.268361
     53          1           0       11.791042   -0.241751   -2.601724
     54          1           0       12.212004    1.389316   -2.615813
     55          1           0       10.527372    0.895875   -2.055228
     56          1           0       12.640157    2.078840    0.956078
     57          1           0       12.025848    2.733316   -0.519239
     58          1           0       13.560932    2.429551   -0.541056
     59          1           0      -13.406060   -0.815592   -0.757474
     60          1           0      -14.115340   -1.296919    0.818940
     61          1           0      -12.568535   -2.037793    0.319345
     62          1           0      -10.811084   -0.059173    2.372503
     63          1           0      -10.997323   -1.487963    1.925407
     64          1           0      -12.033363   -0.938304    3.062611
     65          1           0       10.146717    2.150519    0.139806
     66          1           0      -10.205274   -1.539318   -0.233180
     67          1           0        9.636914   -1.005168    2.336330
     68          1           0       10.691174   -2.195401    2.963792
     69          1           0        9.502412   -2.353033    1.308355
     70          1           0       -9.280400    1.044346   -1.891419
     71          1           0       -9.276026    2.794880   -1.195885
     72          1           0      -10.701843    2.440921   -2.550255
     73          1           0        8.374840   -0.569117    0.527801
     74          1           0       -8.406646    0.663715    0.055573
     75          1           0        8.097054    3.170579    1.450702
     76          1           0        6.620487    3.317068    0.451221
     77          1           0        8.173009    3.210828   -0.322067
     78          1           0       -8.739492   -2.653447   -1.574920
     79          1           0       -8.479354   -2.986212    0.322160
     80          1           0       -7.283510   -3.616312   -0.860245
     81          1           0        6.568048   -0.571467    0.207520
     82          1           0       -6.385404    0.285661   -0.126694
     83          1           0        5.056961    2.251489    0.570675
     84          1           0       -5.326121   -2.852042   -0.558751
     85          1           0        3.859895   -0.307526   -0.051312
     86          1           0       -3.859973    0.368266   -0.549216
     87          1           0        2.967799    2.799306    1.188921
     88          1           0        1.473880    3.165422    0.343410
     89          1           0        2.865300    3.132763   -0.427826
     90          1           0       -2.866541   -3.424089   -1.834153
     91          1           0       -3.290776   -3.919437   -0.178914
     92          1           0       -1.559740   -3.512101   -0.507828
     93          1           0        0.346848    1.108460   -0.266223
     94          1           0       -1.385824    0.003137   -0.117174
     95          1           0        1.966449   -1.535373   -0.311722
     96          1           0        0.014174   -2.654236   -0.623090
 ---------------------------------------------------------------------

 SCF Done:  E(RB3LYP) =  -1557.49800132     A.U. after   16 cycles

 Excitation energies and oscillator strengths:

 Excited State   1:      Singlet-A      2.0896 eV  593.34 nm  f=3.2527  <S**2>=0.000
     148 ->149         0.71187
     148 <-149        -0.13295
 This state for optimization and/or second-order correction.
 Total Energy, E(TD-HF/TD-DFT) =  -1557.42121001
 Copying the excited state density for this state as the 1-particle RhoCI density.

 The electronic state is 1-A.
 Alpha  occ. eigenvalues --  -10.21003 -10.20975 -10.20768 -10.20574 -10.20342
 Alpha  occ. eigenvalues --  -10.20304 -10.20172 -10.20074 -10.19927 -10.19718
 Alpha  occ. eigenvalues --  -10.19689 -10.19249 -10.19131 -10.19124 -10.19072
 Alpha  occ. eigenvalues --  -10.19027 -10.19022 -10.19000 -10.18983 -10.18854
 Alpha  occ. eigenvalues --  -10.18614 -10.18601 -10.18520 -10.18485 -10.18407
 Alpha  occ. eigenvalues --  -10.18139 -10.17910 -10.17827 -10.17779 -10.17613
 Alpha  occ. eigenvalues --  -10.17612 -10.17498 -10.17382 -10.17060 -10.16924
 Alpha  occ. eigenvalues --  -10.16693 -10.16655 -10.16268 -10.15424 -10.14042
 Alpha  occ. eigenvalues --   -0.85036  -0.84700  -0.84336  -0.82575  -0.81633
 Alpha  occ. eigenvalues --   -0.81316  -0.78855  -0.77863  -0.77662  -0.77225
 Alpha  occ. eigenvalues --   -0.76948  -0.74881  -0.74415  -0.71950  -0.71864
 Alpha  occ. eigenvalues --   -0.70474  -0.69472  -0.69170  -0.68741  -0.68069
 Alpha  occ. eigenvalues --   -0.67796  -0.67434  -0.66908  -0.66462  -0.66036
 Alpha  occ. eigenvalues --   -0.63172  -0.61496  -0.59848  -0.58648  -0.57058
 Alpha  occ. eigenvalues --   -0.56930  -0.55819  -0.55080  -0.54537  -0.52630
 Alpha  occ. eigenvalues --   -0.51863  -0.51059  -0.50732  -0.49568  -0.48759
 Alpha  occ. eigenvalues --   -0.48261  -0.47165  -0.46810  -0.46259  -0.45773
 Alpha  occ. eigenvalues --   -0.45402  -0.44887  -0.44679  -0.44535  -0.43972
 Alpha  occ. eigenvalues --   -0.43697  -0.43500  -0.42868  -0.42607  -0.42458
 Alpha  occ. eigenvalues --   -0.42186  -0.42130  -0.41541  -0.41508  -0.41293
 Alpha  occ. eigenvalues --   -0.40823  -0.40520  -0.40043  -0.39782  -0.39655
 Alpha  occ. eigenvalues --   -0.39086  -0.38659  -0.38303  -0.38133  -0.37941
 Alpha  occ. eigenvalues --   -0.37697  -0.37583  -0.37087  -0.36821  -0.36452
 Alpha  occ. eigenvalues --   -0.36310  -0.35831  -0.35425  -0.35207  -0.35070
 Alpha  occ. eigenvalues --   -0.34973  -0.34772  -0.34377  -0.34246  -0.33807
 Alpha  occ. eigenvalues --   -0.33446  -0.33099  -0.32983  -0.32501  -0.32329
 Alpha  occ. eigenvalues --   -0.32211  -0.31798  -0.31527  -0.31385  -0.31106
 Alpha  occ. eigenvalues --   -0.30852  -0.29960  -0.29445  -0.28972  -0.27887
 Alpha  occ. eigenvalues --   -0.27761  -0.27556  -0.26513  -0.24575  -0.22937
 Alpha  occ. eigenvalues --   -0.21389  -0.19085  -0.15884
 Alpha virt. eigenvalues --   -0.08469  -0.04668  -0.01123   0.01107   0.03273
 Alpha virt. eigenvalues --    0.04060   0.05074   0.05871   0.06623   0.07458
 Alpha virt. eigenvalues --    0.07569   0.07734   0.08041   0.08585   0.08822

 Mulliken charges:
               1
     1  C    0.009320
     2  C   -0.001118
     3  C   -0.181257
     4  C   -0.162915
     5  C   -0.208543
     6  C   -0.198964
     7  C    0.093309
     8  C    0.079476
     9  C   -0.199996
    10  C   -0.229861
    11  C    0.045898
    12  C    0.051138
    13  C   -0.307938
    14  C   -0.321213
    15  C   -0.291052
    16  C   -0.316419
    17  C   -0.146549
    18  C   -0.122910
    19  C   -0.346651
    20  C   -0.337782
    21  C   -0.055901
    22  C   -0.124499
    23  C    0.107960
    24  C    0.088541
    25  C   -0.374968
    26  C   -0.370387
    27  C   -0.130540
    28  C   -0.114875
    29  C   -0.108886
    30  C   -0.092428
    31  C   -0.083051
    32  C   -0.081772
    33  C    0.121726
    34  C    0.092049
    35  C   -0.368100
    36  C   -0.364826
    37  C   -0.146263
    38  C   -0.096346
    39  C   -0.069170
    40  C   -0.110457
    41  H    0.113733
    42  H    0.099081
    43  H    0.095757
    44  H    0.075843
    45  H    0.084722
    46  H    0.090018
    47  H    0.091482
    48  H    0.102189
    49  H    0.074403
    50  H    0.091497
    51  H    0.106512
    52  H    0.092472
    53  H    0.116300
    54  H    0.085108
    55  H    0.098813
    56  H    0.103828
    57  H    0.107266
    58  H    0.093338
    59  H    0.103900
    60  H    0.084038
    61  H    0.105406
    62  H    0.116889
    63  H    0.105191
    64  H    0.094511
    65  H    0.060179
    66  H    0.073109
    67  H    0.133974
    68  H    0.077323
    69  H    0.105162
    70  H    0.128015
    71  H    0.108972
    72  H    0.065043
    73  H    0.076127
    74  H    0.071768
    75  H    0.119891
    76  H    0.102509
    77  H    0.131841
    78  H    0.129591
    79  H    0.127310
    80  H    0.088360
    81  H    0.077964
    82  H    0.075708
    83  H    0.074707
    84  H    0.091306
    85  H    0.067164
    86  H    0.056369
    87  H    0.129464
    88  H    0.098712
    89  H    0.134943
    90  H    0.134520
    91  H    0.111241
    92  H    0.096306
    93  H    0.074613
    94  H    0.073037
    95  H    0.073309
    96  H    0.075385
 Sum of Mulliken charges =  -0.00000

 Dipole moment (field-independent basis, Debye):
    X=              1.1712    Y=              0.4121    Z=              0.1364  Tot=              1.2491
 Quadrupole moment (field-independent basis, Debye-Ang):
   XX=           -216.9946   YY=           -231.9734   ZZ=           -255.0837
   XY=              2.2143   XZ=             -2.5138   YZ=              2.4921

 Normal termination of Gaussian 16 at Sun Jul 28 17:46:00 2019.
