 Gaussian 16, Revision A.03,
 Gaussian 16:  ES64L-G16RevA.03 25-Dec-2016

 ---------------------------------
 # td=(NStates=1) B3LYP/6-31G(d,p)
 ---------------------------------

 --
 TD
 --
 Symbolic Z-matrix:
 Charge =  0 Multiplicity = 1

                         Standard orientation:
 ---------------------------------------------------------------------
 Center     Atomic      Atomic             Coordinates (Angstroms)
 Number     Number       Type             X           Y           Z
 ---------------------------------------------------------------------
      1          6           0      -12.175100   -0.480020   -0.812058
      2          6           0       12.186429    0.048491    0.951566
      3          6           0      -13.395806    0.366411   -0.679215
      4          6           0       12.916766   -1.251196    1.431691
      5          6           0      -13.114822    1.829341   -0.806441
      6          6           0       13.464197   -1.992153    0.131449
      7          6           0      -11.046013    0.002634    0.229175
      8          6           0       11.040041   -0.412951   -0.088735
      9          6           0      -12.350308    2.147590    0.455508
     10          6           0       12.219474   -2.575276   -0.688966
     11          6           0      -11.235947    1.134042    0.945684
     12          6           0       11.142311   -1.491288   -0.866691
     13          6           0      -11.562339   -0.450976   -2.215346
     14          6           0      -12.606483   -1.917693   -0.458641
     15          6           0       13.037768    1.145294    0.297124
     16          6           0       11.476667    0.699260    2.214377
     17          6           0       -9.868199   -0.869646    0.502513
     18          6           0       10.014462    0.573973   -0.348079
     19          6           0      -10.282285    1.736293    2.086601
     20          6           0       10.186876   -1.941089   -2.060794
     21          6           0       -8.546142   -0.439071    0.411393
     22          6           0        8.659879    0.347639   -0.289816
     23          6           0       -7.463970   -1.391084    0.524197
     24          6           0        7.602725    1.265355   -0.395581
     25          6           0       -7.736501   -2.886146    0.745211
     26          6           0        7.885276    2.866073   -0.523976
     27          6           0       -6.164956   -0.763458    0.453839
     28          6           0        6.247599    0.817535   -0.525922
     29          6           0       -4.940134   -1.498878    0.539090
     30          6           0        5.034055    1.640560   -0.610684
     31          6           0       -3.733345   -0.773552    0.377934
     32          6           0        3.795352    1.152599   -0.389601
     33          6           0       -2.419751   -1.352302    0.324132
     34          6           0        2.535026    1.804096   -0.368817
     35          6           0       -2.222403   -2.816201    0.626534
     36          6           0        2.415247    3.304647   -0.549984
     37          6           0       -1.263855   -0.635709    0.068663
     38          6           0        1.397858    1.047749   -0.172222
     39          6           0       -1.123254    0.756152   -0.171675
     40          6           0        0.018419    1.487364   -0.234572
     41          1           0      -13.979496    0.231791    0.151489
     42          1           0      -14.166257    0.176979   -1.396917
     43          1           0       12.240188   -1.730177    1.995044
     44          1           0       13.688761   -0.911805    2.077024
     45          1           0      -13.819610    2.652557   -0.812629
     46          1           0      -12.436565    1.816134   -1.667469
     47          1           0       13.822180   -2.868569    0.622393
     48          1           0       14.082246   -1.511745   -0.632165
     49          1           0      -13.167164    2.397068    1.269507
     50          1           0      -11.708139    3.095766    0.392712
     51          1           0       11.871745   -3.561439   -0.084015
     52          1           0       12.478701   -2.941719   -1.755453
     53          1           0      -11.522084    0.624804   -2.439437
     54          1           0      -12.234983   -0.813638   -2.971077
     55          1           0      -10.685172   -1.066505   -2.288318
     56          1           0      -12.532842   -2.171217    0.577578
     57          1           0      -11.846742   -2.851823   -0.786405
     58          1           0      -13.428161   -2.298756   -1.041899
     59          1           0       13.738437    0.733875   -0.338242
     60          1           0       13.584694    1.495516    1.126722
     61          1           0       12.151358    1.886399   -0.214822
     62          1           0       10.818351   -0.174800    2.721653
     63          1           0       10.555943    1.396320    2.032092
     64          1           0       12.115456    0.886349    2.963867
     65          1           0      -10.074183   -1.913208    0.589258
     66          1           0       10.177971    1.627922   -0.276707
     67          1           0       -9.711734    1.153768    2.677709
     68          1           0      -10.691989    2.142472    3.003103
     69          1           0       -9.811999    2.560976    1.605711
     70          1           0        9.469986   -1.218551   -2.171241
     71          1           0        9.570372   -2.898028   -1.941459
     72          1           0       10.943315   -2.208023   -2.799184
     73          1           0       -8.430722    0.651839    0.535755
     74          1           0        8.308210   -0.680360   -0.281182
     75          1           0       -8.413604   -3.152081    1.395822
     76          1           0       -6.802329   -3.436209    0.824338
     77          1           0       -8.173796   -3.300202   -0.183186
     78          1           0        8.776369    3.005666   -1.102971
     79          1           0        8.460247    3.331702    0.250776
     80          1           0        7.118333    3.637641   -0.678823
     81          1           0       -6.261724    0.186893   -0.111033
     82          1           0        6.145426   -0.454678   -0.380490
     83          1           0       -4.838888   -2.603677    0.660298
     84          1           0        4.928937    2.719700   -0.649408
     85          1           0       -3.946476    0.275718    0.123903
     86          1           0        3.593305    0.047976   -0.169414
     87          1           0       -2.770998   -3.201548    1.483732
     88          1           0       -1.068977   -2.934288    0.760381
     89          1           0       -2.558871   -3.404263   -0.275831
     90          1           0        3.084960    3.692262   -1.429002
     91          1           0        2.774117    3.948487    0.310338
     92          1           0        1.402970    3.762102   -0.886200
     93          1           0       -0.284724   -1.199312    0.171878
     94          1           0        1.530429    0.011870   -0.168431
     95          1           0       -1.968071    1.460129   -0.297565
     96          1           0       -0.245615    2.489497   -0.445317
 ---------------------------------------------------------------------

 SCF Done:  E(RB3LYP) =  -1557.59560621     A.U. after   16 cycles

 Excitation energies and oscillator strengths:

 Excited State   1:      Singlet-A      2.0693 eV  599.17 nm  f=3.2076  <S**2>=0.000
     148 ->149         0.71167
     148 <-149        -0.11071
 This state for optimization and/or second-order correction.
 Total Energy, E(TD-HF/TD-DFT) =  -1557.51956234
 Copying the excited state density for this state as the 1-particle RhoCI density.

 The electronic state is 1-A.
 Alpha  occ. eigenvalues --  -10.21522 -10.21147 -10.20910 -10.20745 -10.20186
 Alpha  occ. eigenvalues --  -10.19981 -10.19974 -10.19920 -10.19799 -10.19732
 Alpha  occ. eigenvalues --  -10.19685 -10.19393 -10.19134 -10.19122 -10.19035
 Alpha  occ. eigenvalues --  -10.18951 -10.18894 -10.18869 -10.18806 -10.18775
 Alpha  occ. eigenvalues --  -10.18704 -10.18590 -10.18538 -10.18431 -10.18390
 Alpha  occ. eigenvalues --  -10.18356 -10.18289 -10.18266 -10.18256 -10.18208
 Alpha  occ. eigenvalues --  -10.18035 -10.17945 -10.17608 -10.17602 -10.17381
 Alpha  occ. eigenvalues --  -10.17349 -10.17296 -10.17177 -10.16733 -10.16492
 Alpha  occ. eigenvalues --   -0.85177  -0.83974  -0.83224  -0.82511  -0.81503
 Alpha  occ. eigenvalues --   -0.80793  -0.78786  -0.77731  -0.77457  -0.77256
 Alpha  occ. eigenvalues --   -0.76196  -0.75078  -0.74027  -0.72173  -0.71415
 Alpha  occ. eigenvalues --   -0.69688  -0.69278  -0.68826  -0.68742  -0.68088
 Alpha  occ. eigenvalues --   -0.68048  -0.67536  -0.66777  -0.66442  -0.66258
 Alpha  occ. eigenvalues --   -0.62905  -0.62142  -0.59543  -0.58833  -0.57142
 Alpha  occ. eigenvalues --   -0.56653  -0.55888  -0.55253  -0.53740  -0.53040
 Alpha  occ. eigenvalues --   -0.52161  -0.52061  -0.50704  -0.50076  -0.49624
 Alpha  occ. eigenvalues --   -0.47808  -0.47759  -0.47309  -0.46570  -0.46079
 Alpha  occ. eigenvalues --   -0.45771  -0.45485  -0.44951  -0.44631  -0.43829
 Alpha  occ. eigenvalues --   -0.43365  -0.42736  -0.42643  -0.41975  -0.41892
 Alpha  occ. eigenvalues --   -0.41727  -0.41557  -0.41378  -0.41152  -0.41002
 Alpha  occ. eigenvalues --   -0.40935  -0.40468  -0.40200  -0.39588  -0.39457
 Alpha  occ. eigenvalues --   -0.39172  -0.38528  -0.38367  -0.38175  -0.38063
 Alpha  occ. eigenvalues --   -0.37729  -0.37569  -0.37362  -0.36773  -0.36622
 Alpha  occ. eigenvalues --   -0.36287  -0.35734  -0.35610  -0.35222  -0.34702
 Alpha  occ. eigenvalues --   -0.34665  -0.34569  -0.34386  -0.34037  -0.33950
 Alpha  occ. eigenvalues --   -0.33653  -0.33195  -0.33144  -0.32772  -0.32622
 Alpha  occ. eigenvalues --   -0.32435  -0.32244  -0.31625  -0.31329  -0.30933
 Alpha  occ. eigenvalues --   -0.30158  -0.29887  -0.29719  -0.28849  -0.28802
 Alpha  occ. eigenvalues --   -0.28081  -0.26928  -0.26186  -0.24258  -0.23073
 Alpha  occ. eigenvalues --   -0.21241  -0.18389  -0.15991
 Alpha virt. eigenvalues --   -0.08334  -0.05467  -0.01772   0.01079   0.03060
 Alpha virt. eigenvalues --    0.03915   0.06110   0.06468   0.07063   0.07483
 Alpha virt. eigenvalues --    0.07805   0.08179   0.08385   0.08643   0.08725

 Mulliken charges:
               1
     1  C    0.003655
     2  C   -0.021562
     3  C   -0.165005
     4  C   -0.172938
     5  C   -0.191194
     6  C   -0.200090
     7  C    0.038905
     8  C    0.081680
     9  C   -0.209983
    10  C   -0.215049
    11  C    0.051530
    12  C    0.045533
    13  C   -0.293214
    14  C   -0.309082
    15  C   -0.267187
    16  C   -0.311806
    17  C   -0.139935
    18  C   -0.151393
    19  C   -0.366045
    20  C   -0.341039
    21  C   -0.093864
    22  C   -0.103760
    23  C    0.100851
    24  C    0.146446
    25  C   -0.372204
    26  C   -0.396689
    27  C   -0.149130
    28  C   -0.146653
    29  C   -0.080666
    30  C   -0.090035
    31  C   -0.110693
    32  C   -0.095018
    33  C    0.124178
    34  C    0.161490
    35  C   -0.376580
    36  C   -0.393612
    37  C   -0.139117
    38  C   -0.126894
    39  C   -0.076256
    40  C   -0.088238
    41  H    0.103861
    42  H    0.086416
    43  H    0.113672
    44  H    0.087540
    45  H    0.099534
    46  H    0.094785
    47  H    0.100615
    48  H    0.111119
    49  H    0.079475
    50  H    0.080616
    51  H    0.082053
    52  H    0.079203
    53  H    0.098592
    54  H    0.096641
    55  H    0.116286
    56  H    0.117386
    57  H    0.047059
    58  H    0.112568
    59  H    0.106051
    60  H    0.103167
    61  H    0.081587
    62  H    0.067193
    63  H    0.103322
    64  H    0.109381
    65  H    0.075256
    66  H    0.069873
    67  H    0.123770
    68  H    0.100023
    69  H    0.120744
    70  H    0.121936
    71  H    0.099183
    72  H    0.108458
    73  H    0.095106
    74  H    0.079767
    75  H    0.134617
    76  H    0.110702
    77  H    0.122757
    78  H    0.116579
    79  H    0.113925
    80  H    0.120304
    81  H    0.099864
    82  H    0.063734
    83  H    0.086946
    84  H    0.085604
    85  H    0.079493
    86  H    0.064614
    87  H    0.121251
    88  H    0.099791
    89  H    0.118278
    90  H    0.100392
    91  H    0.120505
    92  H    0.109418
    93  H    0.075498
    94  H    0.077239
    95  H    0.076880
    96  H    0.070036
 Sum of Mulliken charges =  -0.00000

 Dipole moment (field-independent basis, Debye):
    X=             -1.5611    Y=             -0.4353    Z=              0.3692  Tot=              1.6621
 Quadrupole moment (field-independent basis, Debye-Ang):
   XX=           -206.5058   YY=           -231.6502   ZZ=           -255.0915
   XY=              0.6471   XZ=              6.1436   YZ=             -1.1552

 Normal termination of Gaussian 16 at Sun Jul 28 05:45:34 2019.
