 Gaussian 16, Revision A.03,
 Gaussian 16:  ES64L-G16RevA.03 25-Dec-2016

 ---------------------------------
 # td=(NStates=1) B3LYP/6-31G(d,p)
 ---------------------------------

 --
 TD
 --
 Symbolic Z-matrix:
 Charge =  0 Multiplicity = 1

                         Standard orientation:
 ---------------------------------------------------------------------
 Center     Atomic      Atomic             Coordinates (Angstroms)
 Number     Number       Type             X           Y           Z
 ---------------------------------------------------------------------
      1          6           0      -12.188909   -0.508871   -0.626734
      2          6           0       11.981725    0.171569    1.057088
      3          6           0      -13.515682    0.293920   -0.373559
      4          6           0       12.853684   -1.054883    1.545537
      5          6           0      -13.254240    1.800160   -0.442861
      6          6           0       13.465646   -1.974565    0.308987
      7          6           0      -10.999664    0.089197    0.304268
      8          6           0       11.027046   -0.376922   -0.098347
      9          6           0      -12.407933    2.068745    0.820335
     10          6           0       12.357404   -2.598247   -0.443465
     11          6           0      -11.132407    1.268567    0.891529
     12          6           0       11.187824   -1.577770   -0.686398
     13          6           0      -11.825643   -0.642996   -2.138654
     14          6           0      -12.390174   -1.959407   -0.015398
     15          6           0       12.929587    1.268997    0.476597
     16          6           0       11.208776    0.642238    2.243217
     17          6           0       -9.851548   -0.785442    0.472328
     18          6           0        9.946231    0.460310   -0.260276
     19          6           0      -10.167967    1.785962    1.884077
     20          6           0       10.183987   -2.105797   -1.708138
     21          6           0       -8.570434   -0.376778    0.362514
     22          6           0        8.556318    0.218549   -0.252722
     23          6           0       -7.337720   -1.255746    0.476862
     24          6           0        7.519290    1.214901   -0.551839
     25          6           0       -7.624657   -2.703936    0.675250
     26          6           0        7.882471    2.707048   -0.700940
     27          6           0       -6.044250   -0.699019    0.254529
     28          6           0        6.244734    0.768013   -0.527072
     29          6           0       -4.834952   -1.461158    0.243975
     30          6           0        5.034496    1.675237   -0.506312
     31          6           0       -3.639814   -0.797803   -0.049427
     32          6           0        3.704311    1.118768   -0.533075
     33          6           0       -2.308063   -1.384350    0.038533
     34          6           0        2.538571    1.881002   -0.490389
     35          6           0       -2.249101   -2.921775    0.305346
     36          6           0        2.590456    3.327189   -0.666811
     37          6           0       -1.212928   -0.666732   -0.247333
     38          6           0        1.425474    1.031888   -0.541668
     39          6           0       -1.110527    0.788015   -0.462931
     40          6           0        0.023987    1.574477   -0.542577
     41          1           0      -13.872262   -0.015506    0.622236
     42          1           0      -14.134509   -0.091191   -1.205812
     43          1           0       12.071940   -1.602169    2.271627
     44          1           0       13.516142   -0.579261    2.250848
     45          1           0      -14.169531    2.343803   -0.639553
     46          1           0      -12.558465    1.988275   -1.239030
     47          1           0       14.055007   -2.751794    0.668542
     48          1           0       13.938139   -1.288596   -0.348676
     49          1           0      -12.986801    1.967532    1.714739
     50          1           0      -12.136176    3.140637    0.863525
     51          1           0       11.853802   -3.468646    0.262613
     52          1           0       12.566031   -3.112944   -1.285085
     53          1           0      -11.752610    0.400472   -2.585090
     54          1           0      -12.631534   -1.035879   -2.754732
     55          1           0      -10.953657   -1.143733   -2.173515
     56          1           0      -12.254726   -2.094486    1.037537
     57          1           0      -11.517849   -2.767894   -0.297980
     58          1           0      -13.280881   -2.361666   -0.413961
     59          1           0       13.602115    0.885045   -0.397434
     60          1           0       13.602738    1.590539    1.353418
     61          1           0       12.475897    2.085821   -0.090776
     62          1           0       10.609189   -0.070719    2.911947
     63          1           0       10.406841    1.409731    2.033342
     64          1           0       11.991644    1.068139    2.765667
     65          1           0       -9.827707   -1.960318    0.645801
     66          1           0       10.252395    1.480127   -0.138241
     67          1           0       -9.238303    1.321570    2.138893
     68          1           0      -10.533249    2.106360    3.010157
     69          1           0       -9.969797    2.796874    1.605451
     70          1           0        9.764696   -1.195006   -2.187784
     71          1           0        9.232499   -2.691466   -1.256590
     72          1           0       10.813108   -2.632524   -2.340538
     73          1           0       -8.151752    0.520365    0.267464
     74          1           0        8.127105   -0.888131   -0.131032
     75          1           0       -8.117226   -2.876298    1.530592
     76          1           0       -6.703901   -3.325816    0.984421
     77          1           0       -8.131070   -3.368619   -0.076362
     78          1           0        8.433939    2.833036   -1.729312
     79          1           0        8.574016    3.110769    0.243658
     80          1           0        7.091026    3.579277   -0.617161
     81          1           0       -6.130449    0.184547    0.129073
     82          1           0        6.048704   -0.105260   -0.287129
     83          1           0       -4.944730   -2.504529    0.329325
     84          1           0        5.106889    2.622144   -0.551072
     85          1           0       -3.706434    0.100664   -0.193882
     86          1           0        3.530984   -0.063342   -0.825899
     87          1           0       -2.600753   -3.174966    1.464147
     88          1           0       -1.181329   -3.206189    0.118435
     89          1           0       -2.791719   -3.499888   -0.408400
     90          1           0        3.093180    3.678515   -1.649816
     91          1           0        2.988943    3.984568    0.268062
     92          1           0        1.592194    3.738622   -0.898220
     93          1           0       -0.296442   -1.138635   -0.309817
     94          1           0        1.520111    0.089294   -0.409132
     95          1           0       -2.020269    1.504446   -0.444513
     96          1           0       -0.237574    2.668979   -0.569257
 ---------------------------------------------------------------------

 SCF Done:  E(RB3LYP) =  -1557.51483573     A.U. after   16 cycles

 Excitation energies and oscillator strengths:

 Excited State   1:      Singlet-A      2.1735 eV  570.43 nm  f=2.8110  <S**2>=0.000
     148 ->149         0.70636
 This state for optimization and/or second-order correction.
 Total Energy, E(TD-HF/TD-DFT) =  -1557.43496052
 Copying the excited state density for this state as the 1-particle RhoCI density.

 The electronic state is 1-A.
 Alpha  occ. eigenvalues --  -10.21216 -10.20454 -10.20133 -10.20114 -10.20002
 Alpha  occ. eigenvalues --  -10.19890 -10.19824 -10.19820 -10.19730 -10.19675
 Alpha  occ. eigenvalues --  -10.19647 -10.19631 -10.19554 -10.19168 -10.18947
 Alpha  occ. eigenvalues --  -10.18831 -10.18796 -10.18794 -10.18561 -10.18547
 Alpha  occ. eigenvalues --  -10.18512 -10.18478 -10.18388 -10.18065 -10.17994
 Alpha  occ. eigenvalues --  -10.17953 -10.17759 -10.17728 -10.17674 -10.17636
 Alpha  occ. eigenvalues --  -10.17608 -10.17509 -10.17485 -10.17393 -10.17242
 Alpha  occ. eigenvalues --  -10.17041 -10.16978 -10.16960 -10.16938 -10.16761
 Alpha  occ. eigenvalues --   -0.84715  -0.84391  -0.83422  -0.82859  -0.81424
 Alpha  occ. eigenvalues --   -0.81045  -0.78615  -0.78432  -0.77943  -0.77326
 Alpha  occ. eigenvalues --   -0.76634  -0.74907  -0.73225  -0.72078  -0.71047
 Alpha  occ. eigenvalues --   -0.69964  -0.69456  -0.68268  -0.68029  -0.67882
 Alpha  occ. eigenvalues --   -0.67566  -0.67083  -0.66629  -0.66380  -0.65851
 Alpha  occ. eigenvalues --   -0.62839  -0.61865  -0.60073  -0.59772  -0.57684
 Alpha  occ. eigenvalues --   -0.57459  -0.55698  -0.55164  -0.54777  -0.53439
 Alpha  occ. eigenvalues --   -0.53311  -0.51721  -0.51391  -0.50234  -0.48874
 Alpha  occ. eigenvalues --   -0.48412  -0.47872  -0.47613  -0.46761  -0.46477
 Alpha  occ. eigenvalues --   -0.45551  -0.45359  -0.45032  -0.44524  -0.43819
 Alpha  occ. eigenvalues --   -0.43296  -0.42720  -0.42352  -0.41773  -0.41509
 Alpha  occ. eigenvalues --   -0.41440  -0.41208  -0.41049  -0.40928  -0.40684
 Alpha  occ. eigenvalues --   -0.40432  -0.40283  -0.40177  -0.40083  -0.39856
 Alpha  occ. eigenvalues --   -0.39600  -0.38953  -0.38643  -0.38503  -0.38474
 Alpha  occ. eigenvalues --   -0.38086  -0.37722  -0.37438  -0.36650  -0.36257
 Alpha  occ. eigenvalues --   -0.35972  -0.35706  -0.35606  -0.35190  -0.34802
 Alpha  occ. eigenvalues --   -0.34584  -0.34409  -0.34099  -0.33890  -0.33707
 Alpha  occ. eigenvalues --   -0.33454  -0.33317  -0.33088  -0.32834  -0.32416
 Alpha  occ. eigenvalues --   -0.32307  -0.31831  -0.31380  -0.31317  -0.31157
 Alpha  occ. eigenvalues --   -0.30814  -0.30267  -0.29877  -0.29172  -0.28816
 Alpha  occ. eigenvalues --   -0.28048  -0.27226  -0.25724  -0.24213  -0.22649
 Alpha  occ. eigenvalues --   -0.20907  -0.18305  -0.16160
 Alpha virt. eigenvalues --   -0.07798  -0.05192  -0.01912   0.00551   0.02779
 Alpha virt. eigenvalues --    0.04160   0.06038   0.06487   0.07101   0.07433
 Alpha virt. eigenvalues --    0.08093   0.08431   0.08564   0.09092   0.09265

 Mulliken charges:
               1
     1  C   -0.008861
     2  C   -0.023721
     3  C   -0.169938
     4  C   -0.173480
     5  C   -0.191472
     6  C   -0.185619
     7  C    0.067996
     8  C    0.117748
     9  C   -0.228449
    10  C   -0.193435
    11  C    0.082310
    12  C    0.018204
    13  C   -0.296254
    14  C   -0.306810
    15  C   -0.299751
    16  C   -0.291527
    17  C   -0.144299
    18  C   -0.159897
    19  C   -0.366101
    20  C   -0.346417
    21  C   -0.047409
    22  C   -0.114478
    23  C    0.060534
    24  C    0.142277
    25  C   -0.404520
    26  C   -0.361011
    27  C   -0.045931
    28  C   -0.087100
    29  C   -0.074331
    30  C   -0.091330
    31  C   -0.051642
    32  C   -0.127532
    33  C    0.106044
    34  C    0.174094
    35  C   -0.363814
    36  C   -0.386216
    37  C   -0.124523
    38  C   -0.099367
    39  C   -0.085248
    40  C   -0.118654
    41  H    0.097996
    42  H    0.078354
    43  H    0.074894
    44  H    0.083438
    45  H    0.092599
    46  H    0.108139
    47  H    0.100687
    48  H    0.110934
    49  H    0.115957
    50  H    0.084987
    51  H    0.074846
    52  H    0.103741
    53  H    0.089397
    54  H    0.101132
    55  H    0.122196
    56  H    0.114295
    57  H    0.061963
    58  H    0.099884
    59  H    0.092328
    60  H    0.089627
    61  H    0.108966
    62  H    0.100651
    63  H    0.097294
    64  H    0.101291
    65  H    0.082960
    66  H    0.082153
    67  H    0.124980
    68  H    0.071976
    69  H    0.114347
    70  H    0.119175
    71  H    0.094668
    72  H    0.101606
    73  H    0.058523
    74  H    0.074220
    75  H    0.137599
    76  H    0.084658
    77  H    0.121726
    78  H    0.114824
    79  H    0.092111
    80  H    0.104541
    81  H    0.026010
    82  H    0.054545
    83  H    0.084424
    84  H    0.062667
    85  H    0.043309
    86  H    0.067855
    87  H    0.098251
    88  H    0.100417
    89  H    0.130832
    90  H    0.120160
    91  H    0.107847
    92  H    0.113722
    93  H    0.074433
    94  H    0.074090
    95  H    0.071834
    96  H    0.083872
 Sum of Mulliken charges =  -0.00000

 Dipole moment (field-independent basis, Debye):
    X=             -0.1846    Y=              0.4041    Z=              0.0789  Tot=              0.4512
 Quadrupole moment (field-independent basis, Debye-Ang):
   XX=           -219.4906   YY=           -231.9574   ZZ=           -254.0149
   XY=             -1.1178   XZ=             -1.4120   YZ=             -0.9909

 Normal termination of Gaussian 16 at Tue Jul 30 19:49:25 2019.
