 Gaussian 16, Revision A.03,
 Gaussian 16:  ES64L-G16RevA.03 25-Dec-2016

 ---------------------------------
 # td=(NStates=1) B3LYP/6-31G(d,p)
 ---------------------------------

 --
 TD
 --
 Symbolic Z-matrix:
 Charge =  0 Multiplicity = 1

                         Standard orientation:
 ---------------------------------------------------------------------
 Center     Atomic      Atomic             Coordinates (Angstroms)
 Number     Number       Type             X           Y           Z
 ---------------------------------------------------------------------
      1          6           0      -12.195176   -0.407187   -0.791036
      2          6           0       12.081699    0.081205    0.922778
      3          6           0      -13.423759    0.464072   -0.358778
      4          6           0       12.950093   -1.254547    1.274170
      5          6           0      -13.053371    1.890231   -0.189926
      6          6           0       13.363420   -2.107297    0.171235
      7          6           0      -10.963268   -0.100869    0.212824
      8          6           0       10.926347   -0.384259   -0.124261
      9          6           0      -12.124390    2.111311    0.908888
     10          6           0       12.068623   -2.601898   -0.640091
     11          6           0      -11.019984    1.028119    0.976942
     12          6           0       10.971495   -1.554137   -0.825222
     13          6           0      -11.648936   -0.142768   -2.180016
     14          6           0      -12.691040   -1.970230   -0.610902
     15          6           0       12.932247    1.081073    0.219764
     16          6           0       11.478940    0.582537    2.261939
     17          6           0       -9.777719   -1.017774    0.232903
     18          6           0        9.828268    0.594408   -0.153199
     19          6           0      -10.007066    1.495182    1.969247
     20          6           0        9.955348   -1.830254   -1.913069
     21          6           0       -8.466465   -0.631713    0.243552
     22          6           0        8.527502    0.196675   -0.086931
     23          6           0       -7.274997   -1.438714    0.437232
     24          6           0        7.486047    1.263777   -0.228625
     25          6           0       -7.498197   -2.993982    0.577574
     26          6           0        7.841224    2.731149   -0.620401
     27          6           0       -6.112598   -0.833330    0.278979
     28          6           0        6.192510    0.864839   -0.345880
     29          6           0       -4.838460   -1.458341    0.363064
     30          6           0        4.988413    1.627895   -0.584713
     31          6           0       -3.623206   -0.705661    0.119606
     32          6           0        3.724028    1.167492   -0.272159
     33          6           0       -2.324517   -1.330692    0.286754
     34          6           0        2.494524    1.857044   -0.431445
     35          6           0       -2.168115   -2.840647    0.574750
     36          6           0        2.553987    3.444243   -0.673109
     37          6           0       -1.262219   -0.452952    0.027013
     38          6           0        1.320762    1.197831   -0.417662
     39          6           0       -1.109434    0.942582   -0.115004
     40          6           0       -0.021612    1.699849   -0.468392
     41          1           0      -13.744927   -0.048907    0.457428
     42          1           0      -14.368382    0.363939   -0.972154
     43          1           0       12.417372   -1.994743    1.904243
     44          1           0       13.915698   -1.074861    1.869442
     45          1           0      -14.135496    2.348974   -0.113058
     46          1           0      -12.786920    2.234214   -1.244439
     47          1           0       14.098751   -2.914130    0.602420
     48          1           0       14.048547   -1.707076   -0.624425
     49          1           0      -12.720928    1.913158    1.840256
     50          1           0      -11.704298    3.099089    0.940263
     51          1           0       11.641132   -3.379620    0.124989
     52          1           0       12.290858   -3.054510   -1.666272
     53          1           0      -11.680915    1.049294   -2.322395
     54          1           0      -12.380410   -0.560701   -3.093160
     55          1           0      -10.815271   -0.793720   -2.556165
     56          1           0      -12.703599   -2.373626    0.412469
     57          1           0      -11.981235   -2.682495   -1.048353
     58          1           0      -13.739221   -2.096445   -1.191872
     59          1           0       13.035914    0.786745   -1.025492
     60          1           0       13.781608    1.351434    0.835325
     61          1           0       12.466156    1.916614    0.112797
     62          1           0       10.979519   -0.137667    2.778133
     63          1           0       10.797077    1.396395    2.252017
     64          1           0       12.270777    0.755522    2.941827
     65          1           0      -10.154411   -2.118448    0.212797
     66          1           0        9.971073    1.545846   -0.471372
     67          1           0       -9.339120    0.683415    2.203365
     68          1           0      -10.564799    1.927475    2.812463
     69          1           0       -9.300121    2.100342    1.586750
     70          1           0        9.371776   -1.079415   -2.197787
     71          1           0        9.359119   -2.442532   -1.465022
     72          1           0       10.213531   -2.296855   -2.827142
     73          1           0       -8.353776    0.351555    0.050627
     74          1           0        8.310035   -0.795248   -0.034312
     75          1           0       -8.160340   -3.269166    1.425814
     76          1           0       -6.501247   -3.516063    0.820246
     77          1           0       -7.925787   -3.339474   -0.522121
     78          1           0        8.437565    2.869024   -1.312562
     79          1           0        8.207062    3.307384    0.284319
     80          1           0        7.010683    3.284186   -0.745098
     81          1           0       -6.080870    0.270139    0.020229
     82          1           0        6.099617   -0.239656   -0.288998
     83          1           0       -4.668445   -2.445942    0.423582
     84          1           0        5.035126    2.657517   -0.859173
     85          1           0       -3.704899    0.258162   -0.109373
     86          1           0        3.588671    0.149546   -0.026765
     87          1           0       -2.873090   -3.218126    1.548790
     88          1           0       -1.207914   -2.977454    0.695427
     89          1           0       -2.329073   -3.557423   -0.285975
     90          1           0        3.131660    3.741493   -1.510944
     91          1           0        2.783141    4.295910    0.076831
     92          1           0        1.437097    3.919947   -0.878110
     93          1           0       -0.446937   -0.838525    0.420900
     94          1           0        1.522220    0.316355    0.140980
     95          1           0       -1.934207    1.584026   -0.053294
     96          1           0       -0.400819    2.889555   -0.519242
 ---------------------------------------------------------------------

 SCF Done:  E(RB3LYP) =  -1557.50610123     A.U. after   15 cycles

 Excitation energies and oscillator strengths:

 Excited State   1:      Singlet-A      2.1998 eV  563.61 nm  f=2.8821  <S**2>=0.000
     148 ->149         0.70701
 This state for optimization and/or second-order correction.
 Total Energy, E(TD-HF/TD-DFT) =  -1557.42525960
 Copying the excited state density for this state as the 1-particle RhoCI density.

 The electronic state is 1-A.
 Alpha  occ. eigenvalues --  -10.20980 -10.20775 -10.20741 -10.20642 -10.20600
 Alpha  occ. eigenvalues --  -10.20410 -10.20108 -10.20011 -10.19756 -10.19651
 Alpha  occ. eigenvalues --  -10.19609 -10.19353 -10.19200 -10.19150 -10.19064
 Alpha  occ. eigenvalues --  -10.18787 -10.18726 -10.18688 -10.18576 -10.18557
 Alpha  occ. eigenvalues --  -10.18551 -10.18535 -10.18509 -10.18460 -10.18371
 Alpha  occ. eigenvalues --  -10.18288 -10.18232 -10.18182 -10.18139 -10.18095
 Alpha  occ. eigenvalues --  -10.17948 -10.17815 -10.17583 -10.17381 -10.16946
 Alpha  occ. eigenvalues --  -10.16740 -10.16443 -10.15960 -10.15402 -10.14637
 Alpha  occ. eigenvalues --   -0.84367  -0.83931  -0.83579  -0.82947  -0.82052
 Alpha  occ. eigenvalues --   -0.81291  -0.78796  -0.78301  -0.77791  -0.77329
 Alpha  occ. eigenvalues --   -0.76878  -0.75128  -0.74348  -0.73133  -0.71598
 Alpha  occ. eigenvalues --   -0.70497  -0.69533  -0.69206  -0.68320  -0.68135
 Alpha  occ. eigenvalues --   -0.68023  -0.67408  -0.66823  -0.66486  -0.66135
 Alpha  occ. eigenvalues --   -0.63066  -0.62048  -0.59403  -0.58960  -0.57039
 Alpha  occ. eigenvalues --   -0.56605  -0.55808  -0.54948  -0.54547  -0.54045
 Alpha  occ. eigenvalues --   -0.53575  -0.52576  -0.50723  -0.49855  -0.49206
 Alpha  occ. eigenvalues --   -0.48165  -0.47697  -0.47274  -0.46589  -0.46255
 Alpha  occ. eigenvalues --   -0.45616  -0.45271  -0.44766  -0.44324  -0.44118
 Alpha  occ. eigenvalues --   -0.43608  -0.42849  -0.42634  -0.42134  -0.41999
 Alpha  occ. eigenvalues --   -0.41934  -0.41418  -0.41300  -0.40930  -0.40777
 Alpha  occ. eigenvalues --   -0.40557  -0.40067  -0.39958  -0.39494  -0.39266
 Alpha  occ. eigenvalues --   -0.39192  -0.39106  -0.38782  -0.38351  -0.38163
 Alpha  occ. eigenvalues --   -0.38126  -0.37774  -0.37500  -0.37279  -0.36902
 Alpha  occ. eigenvalues --   -0.36683  -0.36319  -0.36043  -0.36009  -0.35404
 Alpha  occ. eigenvalues --   -0.34914  -0.34711  -0.34382  -0.34282  -0.34245
 Alpha  occ. eigenvalues --   -0.33963  -0.33675  -0.33362  -0.33057  -0.32755
 Alpha  occ. eigenvalues --   -0.32330  -0.31853  -0.31262  -0.30994  -0.30738
 Alpha  occ. eigenvalues --   -0.30314  -0.29285  -0.29092  -0.28623  -0.28125
 Alpha  occ. eigenvalues --   -0.27555  -0.27211  -0.25973  -0.24133  -0.22442
 Alpha  occ. eigenvalues --   -0.21231  -0.18904  -0.16625
 Alpha virt. eigenvalues --   -0.08283  -0.05037  -0.01628   0.00551   0.02763
 Alpha virt. eigenvalues --    0.03964   0.05752   0.05979   0.07210   0.07515
 Alpha virt. eigenvalues --    0.07546   0.07923   0.08623   0.08762   0.09149

 Mulliken charges:
               1
     1  C    0.020266
     2  C    0.016440
     3  C   -0.170227
     4  C   -0.170659
     5  C   -0.186891
     6  C   -0.177592
     7  C    0.043810
     8  C    0.014105
     9  C   -0.202843
    10  C   -0.229046
    11  C    0.047345
    12  C    0.057546
    13  C   -0.278582
    14  C   -0.330188
    15  C   -0.276498
    16  C   -0.318055
    17  C   -0.134579
    18  C   -0.116894
    19  C   -0.365012
    20  C   -0.365353
    21  C   -0.093650
    22  C   -0.079312
    23  C    0.121263
    24  C    0.089012
    25  C   -0.356556
    26  C   -0.361982
    27  C   -0.114774
    28  C   -0.126431
    29  C   -0.083483
    30  C   -0.090504
    31  C   -0.084151
    32  C   -0.099103
    33  C    0.075752
    34  C    0.135965
    35  C   -0.351146
    36  C   -0.382916
    37  C   -0.101405
    38  C   -0.149646
    39  C   -0.083605
    40  C   -0.087342
    41  H    0.107483
    42  H    0.077719
    43  H    0.090908
    44  H    0.072262
    45  H    0.068901
    46  H    0.091370
    47  H    0.074156
    48  H    0.091595
    49  H    0.109753
    50  H    0.109470
    51  H    0.094239
    52  H    0.091145
    53  H    0.090366
    54  H    0.050307
    55  H    0.114685
    56  H    0.106350
    57  H    0.096974
    58  H    0.085176
    59  H    0.071091
    60  H    0.099352
    61  H    0.117229
    62  H    0.114725
    63  H    0.104172
    64  H    0.096401
    65  H    0.071171
    66  H    0.088064
    67  H    0.114623
    68  H    0.099174
    69  H    0.127241
    70  H    0.124216
    71  H    0.130911
    72  H    0.101235
    73  H    0.078664
    74  H    0.080646
    75  H    0.124519
    76  H    0.100461
    77  H    0.109070
    78  H    0.131872
    79  H    0.099628
    80  H    0.113330
    81  H    0.078414
    82  H    0.071173
    83  H    0.077539
    84  H    0.082599
    85  H    0.070324
    86  H    0.070337
    87  H    0.094435
    88  H    0.122130
    89  H    0.123222
    90  H    0.125033
    91  H    0.113605
    92  H    0.076762
    93  H    0.073521
    94  H    0.095519
    95  H    0.074261
    96  H    0.077389
 Sum of Mulliken charges =  -0.00000

 Dipole moment (field-independent basis, Debye):
    X=              0.2563    Y=             -0.0101    Z=              0.4923  Tot=              0.5551
 Quadrupole moment (field-independent basis, Debye-Ang):
   XX=           -241.3162   YY=           -231.6360   ZZ=           -253.9842
   XY=              1.4500   XZ=             -4.5685   YZ=             -1.7330

 Normal termination of Gaussian 16 at Fri Jul 26 19:06:29 2019.
