 Gaussian 16, Revision A.03,
 Gaussian 16:  ES64L-G16RevA.03 25-Dec-2016

 ---------------------------------
 # td=(NStates=1) B3LYP/6-31G(d,p)
 ---------------------------------

 --
 TD
 --
 Symbolic Z-matrix:
 Charge =  0 Multiplicity = 1

                         Standard orientation:
 ---------------------------------------------------------------------
 Center     Atomic      Atomic             Coordinates (Angstroms)
 Number     Number       Type             X           Y           Z
 ---------------------------------------------------------------------
      1          6           0       12.053081    0.526948   -0.838966
      2          6           0      -12.096843    0.000096    0.783726
      3          6           0       13.458753   -0.223129   -0.814475
      4          6           0      -12.912136    1.260161    1.182444
      5          6           0       13.170166   -1.784666   -0.674136
      6          6           0      -13.261277    2.105322    0.022270
      7          6           0       11.033998    0.039075    0.173432
      8          6           0      -11.053761    0.444745   -0.207881
      9          6           0       12.353737   -1.987915    0.700204
     10          6           0      -11.971677    2.667233   -0.523154
     11          6           0       11.163571   -1.114438    0.885884
     12          6           0      -10.976203    1.664033   -0.868210
     13          6           0       11.531305    0.466250   -2.194636
     14          6           0       12.452589    1.948911   -0.510594
     15          6           0      -12.980247   -1.034704    0.009163
     16          6           0      -11.477443   -0.667697    2.049063
     17          6           0        9.822538    0.875374    0.371558
     18          6           0       -9.963646   -0.530505   -0.340165
     19          6           0       10.254165   -1.606826    1.899121
     20          6           0       -9.819584    2.111649   -1.669614
     21          6           0        8.490661    0.565598    0.322990
     22          6           0       -8.552226   -0.394149   -0.335510
     23          6           0        7.386575    1.340332    0.526808
     24          6           0       -7.605514   -1.347048   -0.397567
     25          6           0        7.612931    2.936062    0.664342
     26          6           0       -7.885695   -2.781742   -0.619145
     27          6           0        6.103365    0.791116    0.429755
     28          6           0       -6.270356   -0.882198   -0.188909
     29          6           0        4.833804    1.370314    0.543961
     30          6           0       -5.079434   -1.561209   -0.283624
     31          6           0        3.701338    0.662036    0.292662
     32          6           0       -3.815336   -1.114571   -0.083074
     33          6           0        2.348587    1.166813    0.384789
     34          6           0       -2.555095   -1.912460   -0.291516
     35          6           0        2.281048    2.725540    0.659489
     36          6           0       -2.624914   -3.384411   -0.537966
     37          6           0        1.238953    0.331932    0.221197
     38          6           0       -1.340790   -1.248078   -0.173879
     39          6           0        1.181463   -1.064433   -0.197299
     40          6           0       -0.039166   -1.751835   -0.212776
     41          1           0       14.015649    0.100393   -0.048048
     42          1           0       13.980258   -0.003297   -1.616413
     43          1           0      -12.395821    1.950395    2.122122
     44          1           0      -13.934086    1.060728    1.789007
     45          1           0       14.130774   -2.100191   -0.743143
     46          1           0       12.572134   -2.200394   -1.577376
     47          1           0      -13.912207    3.094562    0.351035
     48          1           0      -13.760507    1.501855   -0.791442
     49          1           0       13.018277   -1.943809    1.500813
     50          1           0       12.082146   -3.103788    0.899873
     51          1           0      -11.669419    3.605193    0.069835
     52          1           0      -12.267747    3.232196   -1.444491
     53          1           0       11.189394   -0.494818   -2.595511
     54          1           0       12.380075    0.775776   -2.767829
     55          1           0       10.562005    1.192307   -2.499486
     56          1           0       12.746548    2.195224    0.523573
     57          1           0       11.548635    2.631420   -0.828166
     58          1           0       13.288981    2.194602   -1.135862
     59          1           0      -13.366562   -0.559882   -0.979777
     60          1           0      -14.160361   -1.538945    0.365092
     61          1           0      -12.447117   -1.859709   -0.331105
     62          1           0      -10.617058   -0.104216    2.730719
     63          1           0      -11.131442   -1.643055    1.874323
     64          1           0      -12.282271   -0.900620    2.707793
     65          1           0       10.068106    1.979245    0.472807
     66          1           0      -10.440842   -1.581565   -0.388814
     67          1           0        9.462941   -0.947774    2.067947
     68          1           0       11.002896   -1.814779    2.813672
     69          1           0        9.830901   -2.662658    1.572962
     70          1           0       -9.128819    1.323052   -2.016662
     71          1           0       -9.341411    2.959006   -1.139746
     72          1           0      -10.056086    2.567491   -2.764838
     73          1           0        8.361904   -0.485329    0.168249
     74          1           0       -8.291250    0.531303    0.107306
     75          1           0        7.969722    2.915414    1.755455
     76          1           0        6.598405    3.450534    0.800394
     77          1           0        8.223572    3.266929   -0.109516
     78          1           0       -8.439753   -2.746929   -1.457259
     79          1           0       -8.474891   -3.254073    0.275146
     80          1           0       -6.864221   -3.119609   -0.755338
     81          1           0        6.024078   -0.341475    0.145827
     82          1           0       -6.393289    0.219100   -0.146792
     83          1           0        4.701071    2.353411    0.812516
     84          1           0       -5.305271   -2.569761   -0.637547
     85          1           0        3.640428   -0.438238    0.097727
     86          1           0       -3.679879    0.037729    0.243780
     87          1           0        2.659178    3.075151    1.623985
     88          1           0        1.123875    3.032165    0.466078
     89          1           0        2.908086    3.137423   -0.192985
     90          1           0       -3.062426   -3.706345   -1.628839
     91          1           0       -3.432631   -4.065211   -0.023925
     92          1           0       -1.600014   -3.846769   -0.376018
     93          1           0        0.297877    0.771619    0.453359
     94          1           0       -1.324240   -0.230353   -0.011880
     95          1           0        2.135616   -1.658982   -0.201447
     96          1           0        0.108381   -2.876795   -0.559715
 ---------------------------------------------------------------------

 SCF Done:  E(RB3LYP) =  -1557.58909693     A.U. after   16 cycles

 Excitation energies and oscillator strengths:

 Excited State   1:      Singlet-A      1.9242 eV  644.35 nm  f=3.0416  <S**2>=0.000
     148 ->149         0.70710
     148 <-149        -0.11904
 This state for optimization and/or second-order correction.
 Total Energy, E(TD-HF/TD-DFT) =  -1557.51838490
 Copying the excited state density for this state as the 1-particle RhoCI density.

 The electronic state is 1-A.
 Alpha  occ. eigenvalues --  -10.21823 -10.21379 -10.20584 -10.20542 -10.20324
 Alpha  occ. eigenvalues --  -10.20123 -10.20103 -10.20060 -10.20046 -10.19892
 Alpha  occ. eigenvalues --  -10.19788 -10.19718 -10.19482 -10.19265 -10.19248
 Alpha  occ. eigenvalues --  -10.19238 -10.19156 -10.19136 -10.19097 -10.19042
 Alpha  occ. eigenvalues --  -10.18806 -10.18744 -10.18628 -10.18582 -10.18533
 Alpha  occ. eigenvalues --  -10.18453 -10.18377 -10.18362 -10.18343 -10.18306
 Alpha  occ. eigenvalues --  -10.18132 -10.18076 -10.18055 -10.18021 -10.17916
 Alpha  occ. eigenvalues --  -10.17835 -10.17506 -10.17465 -10.17403 -10.16209
 Alpha  occ. eigenvalues --   -0.85999  -0.85244  -0.84136  -0.83074  -0.82351
 Alpha  occ. eigenvalues --   -0.81097  -0.79760  -0.79008  -0.78835  -0.77445
 Alpha  occ. eigenvalues --   -0.76534  -0.75573  -0.74179  -0.72228  -0.71508
 Alpha  occ. eigenvalues --   -0.69752  -0.69245  -0.68291  -0.68027  -0.68023
 Alpha  occ. eigenvalues --   -0.67390  -0.67291  -0.66852  -0.66775  -0.65852
 Alpha  occ. eigenvalues --   -0.63196  -0.62286  -0.60213  -0.59033  -0.57311
 Alpha  occ. eigenvalues --   -0.56677  -0.56073  -0.55907  -0.53474  -0.53032
 Alpha  occ. eigenvalues --   -0.52422  -0.51774  -0.50374  -0.50116  -0.49319
 Alpha  occ. eigenvalues --   -0.48538  -0.47513  -0.46745  -0.46518  -0.46095
 Alpha  occ. eigenvalues --   -0.45809  -0.45699  -0.44854  -0.44627  -0.44141
 Alpha  occ. eigenvalues --   -0.43507  -0.42990  -0.42647  -0.42634  -0.42174
 Alpha  occ. eigenvalues --   -0.42079  -0.41963  -0.41808  -0.41359  -0.41187
 Alpha  occ. eigenvalues --   -0.40900  -0.39994  -0.39677  -0.39454  -0.39023
 Alpha  occ. eigenvalues --   -0.38816  -0.38679  -0.38560  -0.38338  -0.37925
 Alpha  occ. eigenvalues --   -0.37428  -0.37301  -0.37233  -0.36995  -0.36753
 Alpha  occ. eigenvalues --   -0.36539  -0.35976  -0.35848  -0.35819  -0.35408
 Alpha  occ. eigenvalues --   -0.35094  -0.34667  -0.34441  -0.34212  -0.33409
 Alpha  occ. eigenvalues --   -0.33317  -0.33100  -0.32989  -0.32819  -0.32698
 Alpha  occ. eigenvalues --   -0.32678  -0.32510  -0.32051  -0.31225  -0.31083
 Alpha  occ. eigenvalues --   -0.30861  -0.30586  -0.29865  -0.29453  -0.29035
 Alpha  occ. eigenvalues --   -0.28076  -0.27279  -0.26351  -0.23841  -0.22788
 Alpha  occ. eigenvalues --   -0.20973  -0.18137  -0.15891
 Alpha virt. eigenvalues --   -0.08880  -0.05876  -0.02588   0.00769   0.02006
 Alpha virt. eigenvalues --    0.04173   0.06090   0.06733   0.07201   0.07394
 Alpha virt. eigenvalues --    0.08008   0.08215   0.08581   0.08823   0.09186

 Mulliken charges:
               1
     1  C   -0.018581
     2  C    0.003296
     3  C   -0.179255
     4  C   -0.141109
     5  C   -0.194700
     6  C   -0.181435
     7  C    0.082507
     8  C    0.069821
     9  C   -0.235804
    10  C   -0.220538
    11  C    0.097492
    12  C    0.110204
    13  C   -0.268450
    14  C   -0.297517
    15  C   -0.293137
    16  C   -0.294719
    17  C   -0.170230
    18  C   -0.155848
    19  C   -0.347271
    20  C   -0.369452
    21  C   -0.073823
    22  C   -0.119468
    23  C    0.082478
    24  C    0.111670
    25  C   -0.360303
    26  C   -0.342820
    27  C   -0.125977
    28  C   -0.111229
    29  C   -0.062269
    30  C   -0.075891
    31  C   -0.088230
    32  C   -0.128642
    33  C    0.084511
    34  C    0.137129
    35  C   -0.368835
    36  C   -0.376697
    37  C   -0.128285
    38  C   -0.088717
    39  C   -0.092434
    40  C   -0.103879
    41  H    0.102624
    42  H    0.093410
    43  H    0.057926
    44  H    0.068206
    45  H    0.097965
    46  H    0.089080
    47  H    0.066318
    48  H    0.104153
    49  H    0.115017
    50  H    0.078016
    51  H    0.097252
    52  H    0.086224
    53  H    0.106142
    54  H    0.095958
    55  H    0.069655
    56  H    0.104578
    57  H    0.078616
    58  H    0.094427
    59  H    0.098573
    60  H    0.055575
    61  H    0.122162
    62  H    0.086094
    63  H    0.105390
    64  H    0.109234
    65  H    0.072719
    66  H    0.063803
    67  H    0.123428
    68  H    0.085962
    69  H    0.097463
    70  H    0.127207
    71  H    0.119502
    72  H    0.076324
    73  H    0.075341
    74  H    0.096372
    75  H    0.123430
    76  H    0.100573
    77  H    0.136618
    78  H    0.133951
    79  H    0.113625
    80  H    0.099314
    81  H    0.067034
    82  H    0.067703
    83  H    0.075163
    84  H    0.077870
    85  H    0.066075
    86  H    0.074598
    87  H    0.129439
    88  H    0.085741
    89  H    0.124791
    90  H    0.097928
    91  H    0.112249
    92  H    0.114411
    93  H    0.079172
    94  H    0.077166
    95  H    0.092832
    96  H    0.066036
 Sum of Mulliken charges =  -0.00000

 Dipole moment (field-independent basis, Debye):
    X=              0.4501    Y=              0.0020    Z=             -0.0566  Tot=              0.4537
 Quadrupole moment (field-independent basis, Debye-Ang):
   XX=           -208.5262   YY=           -237.8443   ZZ=           -255.6135
   XY=              0.7887   XZ=              1.9868   YZ=              3.3177

 Normal termination of Gaussian 16 at Tue Jul 23 08:55:55 2019.
