 Gaussian 16, Revision A.03,
 Gaussian 16:  ES64L-G16RevA.03 25-Dec-2016

 ---------------------------------
 # td=(NStates=1) B3LYP/6-31G(d,p)
 ---------------------------------

 --
 TD
 --
 Symbolic Z-matrix:
 Charge =  0 Multiplicity = 1

                         Standard orientation:
 ---------------------------------------------------------------------
 Center     Atomic      Atomic             Coordinates (Angstroms)
 Number     Number       Type             X           Y           Z
 ---------------------------------------------------------------------
      1          6           0      -12.194245   -0.605967   -0.577153
      2          6           0       12.072558   -0.040763    0.918382
      3          6           0      -13.478129    0.136374   -0.341909
      4          6           0       12.948465   -1.224131    1.440201
      5          6           0      -13.302333    1.733313   -0.366124
      6          6           0       13.397188   -2.167530    0.285355
      7          6           0      -10.989734   -0.012602    0.278137
      8          6           0       10.983195   -0.403439   -0.047429
      9          6           0      -12.422074    2.026289    0.847031
     10          6           0       12.126865   -2.686344   -0.493729
     11          6           0      -11.159543    1.166887    0.962368
     12          6           0       11.075079   -1.624396   -0.811288
     13          6           0      -11.731319   -0.604597   -2.011783
     14          6           0      -12.465544   -2.032287   -0.298780
     15          6           0       13.160513    1.029690    0.350052
     16          6           0       11.462034    0.633365    2.247801
     17          6           0       -9.841632   -0.768558    0.348550
     18          6           0        9.934870    0.506943   -0.265576
     19          6           0      -10.066368    1.784884    1.839569
     20          6           0       10.079945   -1.919888   -1.912347
     21          6           0       -8.485725   -0.403842    0.176279
     22          6           0        8.533396    0.314035   -0.255611
     23          6           0       -7.366038   -1.357094    0.275636
     24          6           0        7.560603    1.445531   -0.284310
     25          6           0       -7.588387   -2.714020    0.655914
     26          6           0        7.990673    2.867671   -0.528452
     27          6           0       -6.151729   -0.706602    0.193141
     28          6           0        6.313520    0.977170   -0.262157
     29          6           0       -4.927870   -1.320398    0.354531
     30          6           0        5.088307    1.771767   -0.440111
     31          6           0       -3.697559   -0.666893    0.064966
     32          6           0        3.839146    1.089360   -0.573272
     33          6           0       -2.432051   -1.219954    0.199598
     34          6           0        2.504907    1.758707   -0.534530
     35          6           0       -2.298703   -2.738986    0.459614
     36          6           0        2.667267    3.279173   -0.808690
     37          6           0       -1.240573   -0.496612   -0.032817
     38          6           0        1.358331    1.104772   -0.379687
     39          6           0       -1.140538    0.903566   -0.404552
     40          6           0       -0.038261    1.547777   -0.480724
     41          1           0      -13.889046    0.089827    0.628315
     42          1           0      -14.128367   -0.244642   -1.093196
     43          1           0       12.236104   -2.152046    1.993587
     44          1           0       13.703266   -0.916017    2.291347
     45          1           0      -14.375618    2.103255   -0.486489
     46          1           0      -12.958137    1.967045   -1.375439
     47          1           0       13.934884   -2.988264    0.843818
     48          1           0       14.075176   -1.741977   -0.257253
     49          1           0      -12.935966    2.090590    1.917458
     50          1           0      -12.269466    3.059986    0.743648
     51          1           0       11.701116   -3.516168    0.247282
     52          1           0       12.572840   -3.232311   -1.250382
     53          1           0      -11.948080    0.523564   -2.444648
     54          1           0      -12.186839   -1.261259   -2.702336
     55          1           0      -10.590427   -0.764694   -2.153514
     56          1           0      -12.881680   -2.234583    0.760327
     57          1           0      -11.650157   -2.671339   -0.322890
     58          1           0      -13.143470   -2.255985   -1.118779
     59          1           0       13.658113    0.440406   -0.638130
     60          1           0       13.732847    1.363259    1.223398
     61          1           0       12.644991    1.852844   -0.467400
     62          1           0       10.607732    0.083517    2.779063
     63          1           0       11.079512    1.780623    2.030579
     64          1           0       12.327376    0.892049    3.015689
     65          1           0      -10.039002   -1.870173    0.407495
     66          1           0       10.034192    1.522074   -0.108533
     67          1           0       -9.417453    1.080939    2.298774
     68          1           0      -10.694834    2.170638    2.581483
     69          1           0       -9.514460    2.523575    1.273769
     70          1           0        9.524483   -0.999364   -2.402944
     71          1           0        9.233267   -2.699093   -1.683850
     72          1           0       10.615369   -2.305694   -2.936693
     73          1           0       -8.249128    0.587969    0.127916
     74          1           0        7.983202   -0.661246   -0.048113
     75          1           0       -8.455376   -2.747677    1.517958
     76          1           0       -6.597246   -3.205231    1.039236
     77          1           0       -8.170363   -3.158084   -0.219203
     78          1           0        8.925530    2.880742   -1.253062
     79          1           0        8.481673    3.314065    0.292255
     80          1           0        6.944561    3.300229   -0.943474
     81          1           0       -6.350631    0.427988    0.024117
     82          1           0        6.136811   -0.124144   -0.314499
     83          1           0       -4.940585   -2.440001    0.680674
     84          1           0        4.986530    2.824743   -0.593181
     85          1           0       -4.126210    0.341143   -0.165985
     86          1           0        3.965814    0.017149   -0.252075
     87          1           0       -2.756108   -2.842688    1.372876
     88          1           0       -1.247108   -3.093929    0.517535
     89          1           0       -2.786161   -3.360878   -0.283908
     90          1           0        3.351146    3.321856   -1.694977
     91          1           0        3.019632    3.952338   -0.027817
     92          1           0        1.599424    3.623465   -1.304269
     93          1           0       -0.417879   -1.094287    0.041391
     94          1           0        1.259722    0.076932    0.062406
     95          1           0       -1.984536    1.588513   -0.393761
     96          1           0       -0.102008    2.606234   -0.492171
 ---------------------------------------------------------------------

 SCF Done:  E(RB3LYP) =  -1557.54032406     A.U. after   15 cycles

 Excitation energies and oscillator strengths:

 Excited State   1:      Singlet-A      2.1391 eV  579.60 nm  f=2.8105  <S**2>=0.000
     148 ->149         0.69711
     148 ->150        -0.10678
 This state for optimization and/or second-order correction.
 Total Energy, E(TD-HF/TD-DFT) =  -1557.46171189
 Copying the excited state density for this state as the 1-particle RhoCI density.

 The electronic state is 1-A.
 Alpha  occ. eigenvalues --  -10.21224 -10.21088 -10.20592 -10.20527 -10.20439
 Alpha  occ. eigenvalues --  -10.20279 -10.20203 -10.20172 -10.19893 -10.19858
 Alpha  occ. eigenvalues --  -10.19810 -10.19762 -10.19717 -10.19700 -10.19654
 Alpha  occ. eigenvalues --  -10.19619 -10.19610 -10.19506 -10.19445 -10.19418
 Alpha  occ. eigenvalues --  -10.19166 -10.19140 -10.19055 -10.19025 -10.19003
 Alpha  occ. eigenvalues --  -10.18687 -10.18583 -10.18438 -10.18373 -10.18355
 Alpha  occ. eigenvalues --  -10.18038 -10.17955 -10.17931 -10.17896 -10.17834
 Alpha  occ. eigenvalues --  -10.17359 -10.17158 -10.16812 -10.16521 -10.16520
 Alpha  occ. eigenvalues --   -0.85351  -0.84043  -0.83842  -0.83075  -0.82536
 Alpha  occ. eigenvalues --   -0.81218  -0.79451  -0.79017  -0.77602  -0.77154
 Alpha  occ. eigenvalues --   -0.76455  -0.75152  -0.74042  -0.72402  -0.71314
 Alpha  occ. eigenvalues --   -0.69753  -0.69053  -0.68461  -0.67973  -0.67526
 Alpha  occ. eigenvalues --   -0.67292  -0.66984  -0.66112  -0.65459  -0.65110
 Alpha  occ. eigenvalues --   -0.63025  -0.61826  -0.59783  -0.59317  -0.57067
 Alpha  occ. eigenvalues --   -0.56431  -0.55324  -0.55048  -0.53815  -0.53236
 Alpha  occ. eigenvalues --   -0.52407  -0.52120  -0.50857  -0.50087  -0.49350
 Alpha  occ. eigenvalues --   -0.48592  -0.47639  -0.47275  -0.46433  -0.46244
 Alpha  occ. eigenvalues --   -0.45450  -0.45152  -0.44407  -0.43984  -0.43734
 Alpha  occ. eigenvalues --   -0.43650  -0.43176  -0.42876  -0.42823  -0.42152
 Alpha  occ. eigenvalues --   -0.41982  -0.41590  -0.41423  -0.41306  -0.40794
 Alpha  occ. eigenvalues --   -0.40193  -0.39957  -0.39770  -0.39462  -0.39265
 Alpha  occ. eigenvalues --   -0.39015  -0.38916  -0.38647  -0.38232  -0.37943
 Alpha  occ. eigenvalues --   -0.37777  -0.37351  -0.37185  -0.36894  -0.36695
 Alpha  occ. eigenvalues --   -0.36250  -0.35773  -0.35571  -0.35266  -0.35059
 Alpha  occ. eigenvalues --   -0.34962  -0.34493  -0.34390  -0.34069  -0.34024
 Alpha  occ. eigenvalues --   -0.33968  -0.33027  -0.32774  -0.32638  -0.32502
 Alpha  occ. eigenvalues --   -0.32127  -0.31529  -0.31280  -0.31047  -0.30791
 Alpha  occ. eigenvalues --   -0.30242  -0.29313  -0.29194  -0.28851  -0.28490
 Alpha  occ. eigenvalues --   -0.28073  -0.27596  -0.26157  -0.24655  -0.22335
 Alpha  occ. eigenvalues --   -0.20893  -0.18191  -0.16373
 Alpha virt. eigenvalues --   -0.08159  -0.05883  -0.02116  -0.00336   0.02100
 Alpha virt. eigenvalues --    0.04023   0.05753   0.06230   0.06720   0.07277
 Alpha virt. eigenvalues --    0.07508   0.07868   0.08325   0.08393   0.08734

 Mulliken charges:
               1
     1  C    0.003874
     2  C    0.007719
     3  C   -0.171196
     4  C   -0.145654
     5  C   -0.211217
     6  C   -0.193450
     7  C    0.105547
     8  C    0.093866
     9  C   -0.229239
    10  C   -0.217222
    11  C    0.028812
    12  C    0.079495
    13  C   -0.298785
    14  C   -0.282998
    15  C   -0.280317
    16  C   -0.291421
    17  C   -0.168267
    18  C   -0.150257
    19  C   -0.353766
    20  C   -0.358907
    21  C   -0.093204
    22  C   -0.091358
    23  C    0.159789
    24  C    0.142440
    25  C   -0.377317
    26  C   -0.371926
    27  C   -0.118981
    28  C   -0.140093
    29  C   -0.107945
    30  C   -0.084200
    31  C   -0.097171
    32  C   -0.132393
    33  C    0.064906
    34  C    0.110427
    35  C   -0.369275
    36  C   -0.382299
    37  C   -0.118042
    38  C   -0.108639
    39  C   -0.065160
    40  C   -0.085774
    41  H    0.105693
    42  H    0.077761
    43  H    0.042183
    44  H    0.078732
    45  H    0.085711
    46  H    0.103970
    47  H    0.084135
    48  H    0.110641
    49  H    0.088122
    50  H    0.117107
    51  H    0.091579
    52  H    0.111387
    53  H    0.065933
    54  H    0.103473
    55  H    0.105744
    56  H    0.081050
    57  H    0.101465
    58  H    0.095230
    59  H    0.083507
    60  H    0.117103
    61  H    0.076995
    62  H    0.110482
    63  H    0.066144
    64  H    0.076519
    65  H    0.065949
    66  H    0.073230
    67  H    0.122392
    68  H    0.106380
    69  H    0.120791
    70  H    0.112130
    71  H    0.104294
    72  H    0.075759
    73  H    0.073994
    74  H    0.078524
    75  H    0.106973
    76  H    0.105218
    77  H    0.126482
    78  H    0.112205
    79  H    0.139642
    80  H    0.105282
    81  H    0.076647
    82  H    0.088544
    83  H    0.068932
    84  H    0.084195
    85  H    0.085454
    86  H    0.072905
    87  H    0.132153
    88  H    0.103436
    89  H    0.126492
    90  H    0.122513
    91  H    0.134673
    92  H    0.087229
    93  H    0.073986
    94  H    0.076213
    95  H    0.087314
    96  H    0.068999
 Sum of Mulliken charges =  -0.00000

 Dipole moment (field-independent basis, Debye):
    X=             -0.7233    Y=              0.2324    Z=              0.5614  Tot=              0.9446
 Quadrupole moment (field-independent basis, Debye-Ang):
   XX=           -223.2711   YY=           -236.6147   ZZ=           -255.8316
   XY=             -0.4738   XZ=             -0.0274   YZ=             -0.4430

 Normal termination of Gaussian 16 at Sat Jul 27 11:34:17 2019.
