 Gaussian 16, Revision A.03,
 Gaussian 16:  ES64L-G16RevA.03 25-Dec-2016

 ---------------------------------
 # td=(NStates=1) B3LYP/6-31G(d,p)
 ---------------------------------

 --
 TD
 --
 Symbolic Z-matrix:
 Charge =  0 Multiplicity = 1

                         Standard orientation:
 ---------------------------------------------------------------------
 Center     Atomic      Atomic             Coordinates (Angstroms)
 Number     Number       Type             X           Y           Z
 ---------------------------------------------------------------------
      1          6           0       12.126066    0.514781   -0.617470
      2          6           0      -12.108338    0.004964    1.077832
      3          6           0       13.452621   -0.440543   -0.632055
      4          6           0      -12.929337    1.194226    1.536021
      5          6           0       13.190345   -1.934346   -0.383955
      6          6           0      -13.336364    2.024481    0.345375
      7          6           0       11.060047   -0.029518    0.357560
      8          6           0      -10.954825    0.340639    0.049860
      9          6           0       12.281956   -2.099996    0.806117
     10          6           0      -12.109818    2.539621   -0.334291
     11          6           0       11.210178   -1.095620    1.128750
     12          6           0      -11.080152    1.474466   -0.753138
     13          6           0       11.648195    0.375023   -2.106901
     14          6           0       12.559931    1.864022   -0.260221
     15          6           0      -13.072046   -1.109171    0.398073
     16          6           0      -11.306527   -0.703004    2.259319
     17          6           0        9.854296    0.905822    0.536891
     18          6           0       -9.928588   -0.616654   -0.281025
     19          6           0       10.248138   -1.496483    2.339034
     20          6           0      -10.100849    1.974543   -1.869820
     21          6           0        8.598194    0.513528    0.256007
     22          6           0       -8.635224   -0.324811   -0.342871
     23          6           0        7.318692    1.416619    0.400518
     24          6           0       -7.551448   -1.324927   -0.527032
     25          6           0        7.495776    2.929644    0.686247
     26          6           0       -7.913956   -2.726122   -0.861428
     27          6           0        6.157140    0.810410    0.204839
     28          6           0       -6.277665   -0.876944   -0.371608
     29          6           0        4.835626    1.380976    0.174218
     30          6           0       -5.027459   -1.726062   -0.462231
     31          6           0        3.638717    0.684384   -0.063069
     32          6           0       -3.857663   -1.098433   -0.265495
     33          6           0        2.404088    1.302259   -0.055445
     34          6           0       -2.554523   -1.810004   -0.492828
     35          6           0        2.285093    2.884673    0.082027
     36          6           0       -2.563496   -3.287774   -0.738493
     37          6           0        1.267767    0.637672   -0.254088
     38          6           0       -1.423324   -1.068012   -0.376618
     39          6           0        1.134111   -0.854496   -0.289530
     40          6           0       -0.009330   -1.579514   -0.374966
     41          1           0       14.200219   -0.061668    0.199373
     42          1           0       14.191014   -0.413768   -1.490547
     43          1           0      -12.358196    1.779482    2.109701
     44          1           0      -13.806960    0.803554    2.205467
     45          1           0       14.021669   -2.576645   -0.346758
     46          1           0       12.512260   -2.435094   -1.152575
     47          1           0      -13.864867    2.836010    0.713490
     48          1           0      -13.849053    1.657551   -0.383256
     49          1           0       12.914622   -2.259210    1.782077
     50          1           0       11.798140   -3.130561    0.775440
     51          1           0      -11.581178    3.524463    0.139454
     52          1           0      -12.580316    3.149793   -1.143597
     53          1           0       11.773208   -0.775921   -2.432077
     54          1           0       12.176078    1.161960   -2.721561
     55          1           0       10.631093    0.681490   -2.309747
     56          1           0       12.762086    2.129407    0.852875
     57          1           0       12.021541    2.576918   -0.904618
     58          1           0       13.685710    1.974265   -0.625906
     59          1           0      -13.387505   -0.440000   -0.470186
     60          1           0      -13.844001   -1.042188    1.215260
     61          1           0      -12.606144   -2.175482    0.112371
     62          1           0      -10.671250    0.121154    2.701728
     63          1           0      -10.720983   -1.519453    2.048611
     64          1           0      -12.092755   -1.129102    2.905882
     65          1           0       10.068705    2.130668    0.585046
     66          1           0      -10.245327   -1.576232   -0.384355
     67          1           0        9.365036   -0.867773    2.486631
     68          1           0       11.061735   -1.394142    3.369961
     69          1           0        9.947324   -2.469540    2.091047
     70          1           0       -9.557820    1.124007   -2.192899
     71          1           0       -9.724811    2.865152   -1.382351
     72          1           0      -10.526015    2.301977   -2.724299
     73          1           0        8.518589   -0.474023    0.183328
     74          1           0       -8.426133    0.718768    0.009231
     75          1           0        8.178218    3.069529    1.482478
     76          1           0        6.592427    3.569068    0.761820
     77          1           0        7.931463    3.463049   -0.238311
     78          1           0       -8.765649   -2.656907   -1.810538
     79          1           0       -8.399072   -3.396628   -0.168094
     80          1           0       -6.919133   -3.180290   -1.096660
     81          1           0        6.262833   -0.301910   -0.259876
     82          1           0       -5.944297    0.100242    0.117116
     83          1           0        5.008367    2.327614    0.405994
     84          1           0       -5.108919   -2.692719   -0.827923
     85          1           0        3.664318   -0.334786   -0.162289
     86          1           0       -3.841108    0.075862   -0.046339
     87          1           0        2.534255    3.106402    1.021122
     88          1           0        1.149985    3.112290   -0.039668
     89          1           0        2.790565    3.618148   -0.640012
     90          1           0       -2.977146   -3.520897   -1.696172
     91          1           0       -3.288088   -3.805598    0.077784
     92          1           0       -1.511575   -3.707428   -0.632212
     93          1           0        0.371148    1.139004   -0.377344
     94          1           0       -1.502910    0.045729   -0.329775
     95          1           0        2.029534   -1.532360   -0.452598
     96          1           0       -0.217188   -2.715134   -0.455409
 ---------------------------------------------------------------------

 SCF Done:  E(RB3LYP) =  -1557.56219104     A.U. after   14 cycles

 Excitation energies and oscillator strengths:

 Excited State   1:      Singlet-A      2.5834 eV  479.93 nm  f=2.5331  <S**2>=0.000
     148 ->149         0.70117
 This state for optimization and/or second-order correction.
 Total Energy, E(TD-HF/TD-DFT) =  -1557.46725408
 Copying the excited state density for this state as the 1-particle RhoCI density.

 The electronic state is 1-A.
 Alpha  occ. eigenvalues --  -10.20828 -10.20743 -10.20227 -10.20115 -10.20096
 Alpha  occ. eigenvalues --  -10.19984 -10.19961 -10.19949 -10.19851 -10.19773
 Alpha  occ. eigenvalues --  -10.19717 -10.19690 -10.19465 -10.19403 -10.19317
 Alpha  occ. eigenvalues --  -10.19186 -10.19085 -10.19030 -10.18979 -10.18885
 Alpha  occ. eigenvalues --  -10.18859 -10.18722 -10.18691 -10.18619 -10.18595
 Alpha  occ. eigenvalues --  -10.18523 -10.18467 -10.18465 -10.18404 -10.18321
 Alpha  occ. eigenvalues --  -10.18285 -10.18248 -10.18071 -10.18036 -10.17920
 Alpha  occ. eigenvalues --  -10.17535 -10.16781 -10.16399 -10.16049 -10.15754
 Alpha  occ. eigenvalues --   -0.84610  -0.84378  -0.83589  -0.82889  -0.81735
 Alpha  occ. eigenvalues --   -0.81279  -0.78724  -0.78203  -0.77704  -0.77072
 Alpha  occ. eigenvalues --   -0.76793  -0.75012  -0.73955  -0.72453  -0.71973
 Alpha  occ. eigenvalues --   -0.69382  -0.68908  -0.68136  -0.67739  -0.67452
 Alpha  occ. eigenvalues --   -0.67290  -0.67137  -0.66738  -0.66165  -0.65945
 Alpha  occ. eigenvalues --   -0.63106  -0.61901  -0.59734  -0.59269  -0.56672
 Alpha  occ. eigenvalues --   -0.56064  -0.55088  -0.54536  -0.54173  -0.53548
 Alpha  occ. eigenvalues --   -0.52531  -0.52022  -0.50443  -0.50132  -0.48658
 Alpha  occ. eigenvalues --   -0.48035  -0.47461  -0.46435  -0.46001  -0.45982
 Alpha  occ. eigenvalues --   -0.45564  -0.44933  -0.44720  -0.44444  -0.44004
 Alpha  occ. eigenvalues --   -0.43497  -0.42903  -0.42825  -0.42617  -0.42058
 Alpha  occ. eigenvalues --   -0.41773  -0.41639  -0.41505  -0.41173  -0.40842
 Alpha  occ. eigenvalues --   -0.40810  -0.40291  -0.39988  -0.39807  -0.39722
 Alpha  occ. eigenvalues --   -0.39025  -0.38758  -0.38514  -0.38380  -0.37676
 Alpha  occ. eigenvalues --   -0.37373  -0.37174  -0.37025  -0.36815  -0.36594
 Alpha  occ. eigenvalues --   -0.36394  -0.36304  -0.36049  -0.35555  -0.35401
 Alpha  occ. eigenvalues --   -0.35068  -0.34826  -0.34488  -0.34315  -0.34110
 Alpha  occ. eigenvalues --   -0.33524  -0.33250  -0.33070  -0.33011  -0.32436
 Alpha  occ. eigenvalues --   -0.31855  -0.31664  -0.30949  -0.30891  -0.30797
 Alpha  occ. eigenvalues --   -0.30092  -0.29448  -0.29101  -0.28737  -0.28260
 Alpha  occ. eigenvalues --   -0.28035  -0.27306  -0.26315  -0.24078  -0.22463
 Alpha  occ. eigenvalues --   -0.21242  -0.19120  -0.17313
 Alpha virt. eigenvalues --   -0.07079  -0.04448  -0.00989   0.01089   0.02477
 Alpha virt. eigenvalues --    0.04167   0.05573   0.06751   0.07183   0.07456
 Alpha virt. eigenvalues --    0.07551   0.07983   0.08345   0.08736   0.08764

 Mulliken charges:
               1
     1  C    0.040616
     2  C   -0.032838
     3  C   -0.188621
     4  C   -0.159391
     5  C   -0.178751
     6  C   -0.177519
     7  C    0.039659
     8  C    0.056340
     9  C   -0.216303
    10  C   -0.227222
    11  C    0.071143
    12  C    0.029377
    13  C   -0.302640
    14  C   -0.318095
    15  C   -0.290500
    16  C   -0.298483
    17  C   -0.142659
    18  C   -0.116068
    19  C   -0.328522
    20  C   -0.348624
    21  C   -0.063988
    22  C   -0.084221
    23  C    0.099327
    24  C    0.107751
    25  C   -0.385634
    26  C   -0.357148
    27  C   -0.124347
    28  C   -0.127226
    29  C   -0.056519
    30  C   -0.077057
    31  C   -0.098047
    32  C   -0.109473
    33  C    0.134799
    34  C    0.110546
    35  C   -0.367946
    36  C   -0.375209
    37  C   -0.135001
    38  C   -0.112208
    39  C   -0.102109
    40  C   -0.091874
    41  H    0.068346
    42  H    0.092667
    43  H    0.109641
    44  H    0.069547
    45  H    0.104009
    46  H    0.087564
    47  H    0.093247
    48  H    0.117068
    49  H    0.074463
    50  H    0.085779
    51  H    0.066571
    52  H    0.083546
    53  H    0.094167
    54  H    0.090265
    55  H    0.106318
    56  H    0.109756
    57  H    0.105832
    58  H    0.086262
    59  H    0.103437
    60  H    0.099243
    61  H    0.094417
    62  H    0.093137
    63  H    0.111650
    64  H    0.080058
    65  H    0.065085
    66  H    0.071230
    67  H    0.125719
    68  H    0.071267
    69  H    0.122315
    70  H    0.121370
    71  H    0.115104
    72  H    0.112543
    73  H    0.079849
    74  H    0.082899
    75  H    0.133371
    76  H    0.116534
    77  H    0.115061
    78  H    0.081103
    79  H    0.133101
    80  H    0.102340
    81  H    0.056849
    82  H    0.081120
    83  H    0.058472
    84  H    0.084724
    85  H    0.079460
    86  H    0.079580
    87  H    0.138891
    88  H    0.089780
    89  H    0.109365
    90  H    0.137988
    91  H    0.102286
    92  H    0.110519
    93  H    0.081328
    94  H    0.068388
    95  H    0.086575
    96  H    0.063472
 Sum of Mulliken charges =  -0.00000

 Dipole moment (field-independent basis, Debye):
    X=              0.3604    Y=              0.2980    Z=             -0.2441  Tot=              0.5275
 Quadrupole moment (field-independent basis, Debye-Ang):
   XX=           -224.2239   YY=           -230.7257   ZZ=           -257.4533
   XY=             -0.0553   XZ=             -1.2241   YZ=              2.9543

 Normal termination of Gaussian 16 at Tue Jul 23 08:38:19 2019.
