 Gaussian 16, Revision A.03,
 Gaussian 16:  ES64L-G16RevA.03 25-Dec-2016

 ---------------------------------
 # td=(NStates=1) B3LYP/6-31G(d,p)
 ---------------------------------

 --
 TD
 --
 Symbolic Z-matrix:
 Charge =  0 Multiplicity = 1

                         Standard orientation:
 ---------------------------------------------------------------------
 Center     Atomic      Atomic             Coordinates (Angstroms)
 Number     Number       Type             X           Y           Z
 ---------------------------------------------------------------------
      1          6           0      -12.196801    0.558331    0.868762
      2          6           0       12.248525   -0.045820   -0.805772
      3          6           0      -13.439744   -0.256552    0.868258
      4          6           0       13.158426    1.001332   -1.219816
      5          6           0      -13.184423   -1.789720    0.723843
      6          6           0       13.596134    1.965896   -0.116426
      7          6           0      -11.120365   -0.015884   -0.147370
      8          6           0       11.072419    0.394939    0.135235
      9          6           0      -12.436703   -2.199497   -0.574466
     10          6           0       12.352897    2.603105    0.501200
     11          6           0      -11.226359   -1.201374   -0.715760
     12          6           0       11.114097    1.581474    0.793364
     13          6           0      -11.583204    0.614425    2.236243
     14          6           0      -12.706240    1.972999    0.275639
     15          6           0       13.061193   -1.155379   -0.007271
     16          6           0       11.689356   -0.788863   -2.040371
     17          6           0      -10.040680    0.918947   -0.316233
     18          6           0        9.974874   -0.586391    0.440314
     19          6           0      -10.156887   -1.761864   -1.788033
     20          6           0       10.156147    2.135895    1.745966
     21          6           0       -8.585293    0.523013   -0.248815
     22          6           0        8.617012   -0.360363    0.314724
     23          6           0       -7.498548    1.340247   -0.435359
     24          6           0        7.488327   -1.305078    0.419859
     25          6           0       -7.658324    2.745815   -0.867905
     26          6           0        7.819288   -2.687833    0.875946
     27          6           0       -6.285377    0.687981   -0.320874
     28          6           0        6.255913   -0.751362    0.444059
     29          6           0       -4.994820    1.295925   -0.435230
     30          6           0        4.971788   -1.490364    0.349549
     31          6           0       -3.760190    0.593976   -0.405898
     32          6           0        3.806771   -0.909673    0.133543
     33          6           0       -2.537107    1.216999   -0.412644
     34          6           0        2.534835   -1.644255    0.165888
     35          6           0       -2.387627    2.677134   -0.759934
     36          6           0        2.600159   -3.110750    0.378143
     37          6           0       -1.297672    0.538644   -0.268315
     38          6           0        1.356948   -1.010617    0.085956
     39          6           0       -1.180150   -0.829507   -0.042640
     40          6           0        0.024943   -1.598138    0.045696
     41          1           0      -14.182814   -0.209093    0.061118
     42          1           0      -14.074271    0.003320    1.865666
     43          1           0       12.675188    1.814012   -1.894792
     44          1           0       14.056830    0.437638   -1.823019
     45          1           0      -14.078017   -2.451741    0.783081
     46          1           0      -12.539049   -1.934875    1.621635
     47          1           0       14.229875    2.753083   -0.488498
     48          1           0       14.356521    1.468532    0.606995
     49          1           0      -13.099395   -2.033094   -1.444646
     50          1           0      -11.969851   -3.338714   -0.553734
     51          1           0       11.777404    3.452039   -0.187867
     52          1           0       12.593685    2.727799    1.572760
     53          1           0      -11.720860   -0.459573    2.600181
     54          1           0      -12.171060    1.165553    2.815920
     55          1           0      -10.721837    1.174975    2.310866
     56          1           0      -12.687428    2.059277   -0.838428
     57          1           0      -12.126050    2.986467    0.385545
     58          1           0      -13.671000    2.184416    0.699049
     59          1           0       13.365727   -0.847033    1.097398
     60          1           0       13.984046   -1.449013   -0.486566
     61          1           0       12.482909   -2.071195    0.285211
     62          1           0       11.072417    0.004981   -2.531892
     63          1           0       11.153690   -1.808873   -1.921810
     64          1           0       12.457349   -1.101568   -2.668839
     65          1           0      -10.220361    1.961209   -0.559978
     66          1           0       10.373209   -1.556012    0.439528
     67          1           0       -9.189782   -1.070701   -2.066799
     68          1           0      -10.627357   -2.330285   -2.758029
     69          1           0       -9.666515   -2.971838   -1.448458
     70          1           0        9.369667    1.592229    2.046232
     71          1           0        9.679741    3.057699    1.459017
     72          1           0       10.847387    2.595221    2.461212
     73          1           0       -8.540572   -0.461368    0.041151
     74          1           0        8.305313    0.630312    0.191189
     75          1           0       -7.955142    2.656143   -2.023578
     76          1           0       -6.617482    3.238037   -0.690275
     77          1           0       -8.494309    3.173693   -0.258150
     78          1           0        8.468171   -2.679460    1.815216
     79          1           0        8.493165   -3.367037    0.193197
     80          1           0        7.059182   -3.457766    1.151683
     81          1           0       -6.371225   -0.335838   -0.117702
     82          1           0        6.185631    0.390440    0.302593
     83          1           0       -4.852264    2.249663   -0.847463
     84          1           0        5.132287   -2.551020    0.531782
     85          1           0       -3.861476   -0.505621   -0.213517
     86          1           0        3.497197    0.155995   -0.091009
     87          1           0       -2.696920    3.077197   -1.663569
     88          1           0       -1.329584    2.907034   -0.683984
     89          1           0       -2.883315    3.219317    0.161500
     90          1           0        3.139062   -3.242145    1.424789
     91          1           0        3.029240   -3.480197   -0.396987
     92          1           0        1.636803   -3.564119    0.634822
     93          1           0       -0.224099    1.052066   -0.398466
     94          1           0        1.407774   -0.044500    0.025444
     95          1           0       -1.944663   -1.456588   -0.054500
     96          1           0       -0.053991   -2.615859    0.289428
 ---------------------------------------------------------------------

 SCF Done:  E(RB3LYP) =  -1557.55814807     A.U. after   16 cycles

 Excitation energies and oscillator strengths:

 Excited State   1:      Singlet-A      2.0064 eV  617.93 nm  f=3.1676  <S**2>=0.000
     147 ->149         0.11710
     148 ->149         0.70418
     148 <-149        -0.14994
 This state for optimization and/or second-order correction.
 Total Energy, E(TD-HF/TD-DFT) =  -1557.48441256
 Copying the excited state density for this state as the 1-particle RhoCI density.

 The electronic state is 1-A.
 Alpha  occ. eigenvalues --  -10.22079 -10.20687 -10.20569 -10.20177 -10.20150
 Alpha  occ. eigenvalues --  -10.20122 -10.20107 -10.20069 -10.19960 -10.19747
 Alpha  occ. eigenvalues --  -10.19593 -10.19366 -10.19338 -10.19198 -10.19188
 Alpha  occ. eigenvalues --  -10.19043 -10.18924 -10.18910 -10.18905 -10.18840
 Alpha  occ. eigenvalues --  -10.18792 -10.18718 -10.18622 -10.18621 -10.18574
 Alpha  occ. eigenvalues --  -10.18562 -10.18420 -10.18291 -10.18271 -10.18240
 Alpha  occ. eigenvalues --  -10.18153 -10.18088 -10.18064 -10.17924 -10.17739
 Alpha  occ. eigenvalues --  -10.17028 -10.17020 -10.16752 -10.16351 -10.16024
 Alpha  occ. eigenvalues --   -0.85061  -0.84487  -0.83875  -0.83527  -0.82468
 Alpha  occ. eigenvalues --   -0.81707  -0.78720  -0.78314  -0.77804  -0.76888
 Alpha  occ. eigenvalues --   -0.76528  -0.75243  -0.74034  -0.72320  -0.70589
 Alpha  occ. eigenvalues --   -0.70402  -0.69301  -0.68742  -0.68531  -0.68109
 Alpha  occ. eigenvalues --   -0.67087  -0.66987  -0.66361  -0.66039  -0.65275
 Alpha  occ. eigenvalues --   -0.62959  -0.61953  -0.59667  -0.58769  -0.57609
 Alpha  occ. eigenvalues --   -0.56933  -0.55576  -0.55110  -0.54057  -0.52936
 Alpha  occ. eigenvalues --   -0.52682  -0.52589  -0.51000  -0.49712  -0.49195
 Alpha  occ. eigenvalues --   -0.48730  -0.48165  -0.47314  -0.46728  -0.46043
 Alpha  occ. eigenvalues --   -0.45572  -0.45561  -0.44900  -0.44700  -0.44208
 Alpha  occ. eigenvalues --   -0.44006  -0.43503  -0.42974  -0.42819  -0.42131
 Alpha  occ. eigenvalues --   -0.41952  -0.41811  -0.41678  -0.41309  -0.40772
 Alpha  occ. eigenvalues --   -0.40239  -0.39712  -0.39599  -0.39356  -0.39103
 Alpha  occ. eigenvalues --   -0.38882  -0.38840  -0.38514  -0.38234  -0.38199
 Alpha  occ. eigenvalues --   -0.37789  -0.37546  -0.37051  -0.36771  -0.36448
 Alpha  occ. eigenvalues --   -0.35999  -0.35739  -0.35324  -0.35189  -0.35134
 Alpha  occ. eigenvalues --   -0.34879  -0.34539  -0.34365  -0.34299  -0.34286
 Alpha  occ. eigenvalues --   -0.33727  -0.33567  -0.33096  -0.32681  -0.32188
 Alpha  occ. eigenvalues --   -0.31905  -0.31819  -0.31695  -0.31606  -0.31115
 Alpha  occ. eigenvalues --   -0.30841  -0.29301  -0.29190  -0.28646  -0.28283
 Alpha  occ. eigenvalues --   -0.28072  -0.27493  -0.25880  -0.24446  -0.22946
 Alpha  occ. eigenvalues --   -0.20760  -0.18846  -0.15694
 Alpha virt. eigenvalues --   -0.08841  -0.05019  -0.01992   0.01115   0.03025
 Alpha virt. eigenvalues --    0.04092   0.05674   0.06605   0.06766   0.07309
 Alpha virt. eigenvalues --    0.07828   0.08120   0.08354   0.08713   0.08933

 Mulliken charges:
               1
     1  C    0.019705
     2  C    0.015507
     3  C   -0.184499
     4  C   -0.158858
     5  C   -0.205738
     6  C   -0.188135
     7  C    0.069499
     8  C    0.056616
     9  C   -0.207217
    10  C   -0.217760
    11  C    0.074347
    12  C    0.035645
    13  C   -0.284562
    14  C   -0.325155
    15  C   -0.307637
    16  C   -0.287269
    17  C   -0.157574
    18  C   -0.135005
    19  C   -0.333066
    20  C   -0.341492
    21  C   -0.118393
    22  C   -0.099654
    23  C    0.139465
    24  C    0.154526
    25  C   -0.362482
    26  C   -0.390278
    27  C   -0.108399
    28  C   -0.137707
    29  C   -0.109796
    30  C   -0.105549
    31  C   -0.107043
    32  C   -0.079141
    33  C    0.109273
    34  C    0.103991
    35  C   -0.376600
    36  C   -0.357008
    37  C   -0.126525
    38  C   -0.088263
    39  C   -0.050471
    40  C   -0.125307
    41  H    0.102685
    42  H    0.069705
    43  H    0.080038
    44  H    0.065882
    45  H    0.087966
    46  H    0.094118
    47  H    0.101766
    48  H    0.087345
    49  H    0.115416
    50  H    0.089268
    51  H    0.094401
    52  H    0.109769
    53  H    0.096105
    54  H    0.109427
    55  H    0.116482
    56  H    0.108516
    57  H    0.071905
    58  H    0.106930
    59  H    0.080545
    60  H    0.099643
    61  H    0.096951
    62  H    0.099450
    63  H    0.088822
    64  H    0.101492
    65  H    0.087419
    66  H    0.075013
    67  H    0.112119
    68  H    0.091761
    69  H    0.039766
    70  H    0.122245
    71  H    0.111285
    72  H    0.098410
    73  H    0.092163
    74  H    0.076155
    75  H    0.118727
    76  H    0.106118
    77  H    0.118368
    78  H    0.122734
    79  H    0.099978
    80  H    0.109671
    81  H    0.079844
    82  H    0.073306
    83  H    0.087858
    84  H    0.093242
    85  H    0.078095
    86  H    0.077160
    87  H    0.130902
    88  H    0.110355
    89  H    0.101265
    90  H    0.100216
    91  H    0.134176
    92  H    0.103738
    93  H    0.080048
    94  H    0.044005
    95  H    0.069951
    96  H    0.077289
 Sum of Mulliken charges =  -0.00000

 Dipole moment (field-independent basis, Debye):
    X=             -0.4337    Y=              0.2897    Z=              0.0266  Tot=              0.5222
 Quadrupole moment (field-independent basis, Debye-Ang):
   XX=           -216.5353   YY=           -234.7765   ZZ=           -255.2504
   XY=             -1.5362   XZ=              1.3075   YZ=             -2.1361

 Normal termination of Gaussian 16 at Sun Jul 28 18:08:43 2019.
