 Gaussian 16, Revision A.03,
 Gaussian 16:  ES64L-G16RevA.03 25-Dec-2016

 ---------------------------------
 # td=(NStates=1) B3LYP/6-31G(d,p)
 ---------------------------------

 --
 TD
 --
 Symbolic Z-matrix:
 Charge =  0 Multiplicity = 1

                         Standard orientation:
 ---------------------------------------------------------------------
 Center     Atomic      Atomic             Coordinates (Angstroms)
 Number     Number       Type             X           Y           Z
 ---------------------------------------------------------------------
      1          6           0       12.215568    0.479239   -0.574877
      2          6           0      -12.266189   -0.099687    0.752694
      3          6           0       13.383242   -0.386710   -0.501829
      4          6           0      -13.061030    1.085832    1.182076
      5          6           0       12.990656   -1.868384   -0.773519
      6          6           0      -13.367461    1.964423   -0.000799
      7          6           0       11.030864   -0.084598    0.309948
      8          6           0      -10.987844    0.336860   -0.054388
      9          6           0       12.218299   -2.376332    0.432975
     10          6           0      -12.117033    2.583196   -0.712779
     11          6           0       11.204438   -1.370573    0.679093
     12          6           0      -11.001900    1.544149   -0.705700
     13          6           0       11.676117    0.740080   -2.028075
     14          6           0       12.510985    1.953047   -0.143986
     15          6           0      -13.100659   -1.019555   -0.075903
     16          6           0      -11.776127   -0.801938    2.050615
     17          6           0        9.946571    0.828245    0.464442
     18          6           0       -9.886717   -0.657127   -0.165101
     19          6           0       10.086348   -1.904764    1.688171
     20          6           0       -9.686391    2.083639   -1.539847
     21          6           0        8.516248    0.484973    0.376189
     22          6           0       -8.610121   -0.343728   -0.069652
     23          6           0        7.458499    1.312350    0.510439
     24          6           0       -7.558449   -1.350610   -0.221527
     25          6           0        7.674457    2.815211    0.935617
     26          6           0       -7.895636   -2.771622   -0.603347
     27          6           0        6.175012    0.871182    0.291750
     28          6           0       -6.269956   -0.960432   -0.160817
     29          6           0        4.884822    1.515343    0.337455
     30          6           0       -4.999455   -1.612481   -0.246602
     31          6           0        3.685661    0.825420    0.103883
     32          6           0       -3.827440   -1.015262   -0.165853
     33          6           0        2.381653    1.365339    0.098839
     34          6           0       -2.468219   -1.646074   -0.392584
     35          6           0        2.271626    2.923386    0.362128
     36          6           0       -2.473949   -3.171525   -0.643546
     37          6           0        1.172268    0.633812   -0.027479
     38          6           0       -1.324963   -0.942335   -0.278379
     39          6           0        1.142161   -0.753974   -0.214854
     40          6           0        0.002499   -1.447815   -0.356171
     41          1           0       13.824424   -0.361258    0.550328
     42          1           0       14.151580   -0.171116   -1.323877
     43          1           0      -12.353393    1.645667    1.862576
     44          1           0      -13.891736    0.737937    1.708351
     45          1           0       13.894475   -2.485695   -0.671526
     46          1           0       12.521999   -2.076474   -1.872150
     47          1           0      -14.087606    2.737300    0.385122
     48          1           0      -14.152172    1.556132   -0.772313
     49          1           0       12.817701   -2.172505    1.307958
     50          1           0       11.821638   -3.416671    0.205881
     51          1           0      -11.679354    3.505982   -0.257928
     52          1           0      -12.278168    2.896076   -1.804890
     53          1           0       11.390898   -0.275609   -2.494809
     54          1           0       12.371689    1.146073   -2.581388
     55          1           0       10.753036    1.329271   -2.148979
     56          1           0       12.921662    1.837613    0.958917
     57          1           0       11.978215    2.702740   -0.263800
     58          1           0       13.313372    2.213053   -0.609073
     59          1           0      -13.550066   -0.380416   -0.962128
     60          1           0      -13.958034   -1.396245    0.692199
     61          1           0      -12.605621   -2.037820   -0.611948
     62          1           0      -10.956871   -0.272780    2.541935
     63          1           0      -11.107316   -1.797642    1.840219
     64          1           0      -12.527109   -0.817528    2.910107
     65          1           0       10.003299    1.721953    0.576254
     66          1           0      -10.320206   -1.709891   -0.200042
     67          1           0        9.662904   -1.029261    2.170176
     68          1           0       10.721641   -2.469353    2.240471
     69          1           0        9.363506   -2.602778    1.113933
     70          1           0       -9.296566    1.211155   -1.768222
     71          1           0       -9.077170    2.807833   -0.822593
     72          1           0       -9.947237    2.723980   -2.389173
     73          1           0        8.347069   -0.665040    0.296292
     74          1           0       -8.440234    0.575713    0.403548
     75          1           0        8.329416    2.845041    1.845390
     76          1           0        6.827750    3.537751    1.297968
     77          1           0        8.166219    3.210030    0.122528
     78          1           0       -8.309968   -2.969215   -1.434668
     79          1           0       -8.506564   -3.250289    0.293334
     80          1           0       -6.992484   -3.400728   -0.550342
     81          1           0        6.250469   -0.137297    0.043559
     82          1           0       -6.044362    0.206943    0.111764
     83          1           0        4.986709    2.619573    0.512167
     84          1           0       -5.006436   -2.729543   -0.478774
     85          1           0        3.946964   -0.141021    0.073073
     86          1           0       -3.565421    0.057081    0.264424
     87          1           0        2.949791    3.167625    1.461801
     88          1           0        1.302306    3.032628    0.403971
     89          1           0        2.679663    3.312916   -0.554689
     90          1           0       -3.130531   -3.606342   -1.344948
     91          1           0       -2.592171   -3.451929    0.501774
     92          1           0       -1.610356   -3.745467   -1.057760
     93          1           0        0.148688    1.237873   -0.337639
     94          1           0       -1.435811    0.221085   -0.277344
     95          1           0        2.180607   -1.284202   -0.157935
     96          1           0        0.104559   -2.504092   -0.459292
 ---------------------------------------------------------------------

 SCF Done:  E(RB3LYP) =  -1557.47364096     A.U. after   17 cycles

 Excitation energies and oscillator strengths:

 Excited State   1:      Singlet-A      2.0955 eV  591.67 nm  f=3.0652  <S**2>=0.000
     148 ->149         0.70124
     148 <-149        -0.12202
 This state for optimization and/or second-order correction.
 Total Energy, E(TD-HF/TD-DFT) =  -1557.39663324
 Copying the excited state density for this state as the 1-particle RhoCI density.

 The electronic state is 1-A.
 Alpha  occ. eigenvalues --  -10.20599 -10.20274 -10.19932 -10.19883 -10.19866
 Alpha  occ. eigenvalues --  -10.19822 -10.19726 -10.19618 -10.19566 -10.19551
 Alpha  occ. eigenvalues --  -10.19420 -10.19220 -10.19214 -10.19146 -10.19130
 Alpha  occ. eigenvalues --  -10.19104 -10.19080 -10.19023 -10.18928 -10.18922
 Alpha  occ. eigenvalues --  -10.18914 -10.18826 -10.18682 -10.18625 -10.18624
 Alpha  occ. eigenvalues --  -10.18473 -10.18358 -10.18329 -10.18114 -10.18087
 Alpha  occ. eigenvalues --  -10.17959 -10.17857 -10.17758 -10.17672 -10.17620
 Alpha  occ. eigenvalues --  -10.17485 -10.17461 -10.16487 -10.15970 -10.14575
 Alpha  occ. eigenvalues --   -0.85774  -0.85094  -0.83423  -0.83008  -0.82442
 Alpha  occ. eigenvalues --   -0.81271  -0.79358  -0.79180  -0.77846  -0.77262
 Alpha  occ. eigenvalues --   -0.76766  -0.75200  -0.74019  -0.72078  -0.71710
 Alpha  occ. eigenvalues --   -0.69661  -0.69263  -0.68717  -0.68663  -0.67953
 Alpha  occ. eigenvalues --   -0.67513  -0.67147  -0.66874  -0.66650  -0.65953
 Alpha  occ. eigenvalues --   -0.63704  -0.61727  -0.59963  -0.59433  -0.57686
 Alpha  occ. eigenvalues --   -0.56499  -0.55114  -0.54691  -0.53854  -0.53029
 Alpha  occ. eigenvalues --   -0.52196  -0.51875  -0.50890  -0.49717  -0.49408
 Alpha  occ. eigenvalues --   -0.47934  -0.47660  -0.47496  -0.47123  -0.45823
 Alpha  occ. eigenvalues --   -0.45326  -0.45203  -0.44469  -0.44346  -0.44090
 Alpha  occ. eigenvalues --   -0.43522  -0.43341  -0.42988  -0.42610  -0.42352
 Alpha  occ. eigenvalues --   -0.41945  -0.41675  -0.41635  -0.41433  -0.41148
 Alpha  occ. eigenvalues --   -0.40888  -0.40424  -0.40362  -0.39736  -0.39587
 Alpha  occ. eigenvalues --   -0.39304  -0.38891  -0.38622  -0.38526  -0.38290
 Alpha  occ. eigenvalues --   -0.37859  -0.37443  -0.37245  -0.36249  -0.36214
 Alpha  occ. eigenvalues --   -0.35987  -0.35740  -0.35602  -0.35374  -0.35119
 Alpha  occ. eigenvalues --   -0.34739  -0.34658  -0.34611  -0.34228  -0.33634
 Alpha  occ. eigenvalues --   -0.33491  -0.33395  -0.32852  -0.32614  -0.32499
 Alpha  occ. eigenvalues --   -0.32312  -0.31995  -0.31526  -0.31382  -0.30895
 Alpha  occ. eigenvalues --   -0.30720  -0.29853  -0.29335  -0.29091  -0.28472
 Alpha  occ. eigenvalues --   -0.27233  -0.26488  -0.25608  -0.24296  -0.23127
 Alpha  occ. eigenvalues --   -0.20875  -0.18730  -0.16049
 Alpha virt. eigenvalues --   -0.08487  -0.05207  -0.01866   0.00772   0.03443
 Alpha virt. eigenvalues --    0.05001   0.06479   0.06594   0.07076   0.07362
 Alpha virt. eigenvalues --    0.07727   0.07973   0.08504   0.08791   0.09231

 Mulliken charges:
               1
     1  C    0.003276
     2  C    0.012139
     3  C   -0.198367
     4  C   -0.156893
     5  C   -0.180709
     6  C   -0.201620
     7  C    0.130606
     8  C    0.061445
     9  C   -0.220037
    10  C   -0.205838
    11  C   -0.001003
    12  C    0.014520
    13  C   -0.297444
    14  C   -0.281754
    15  C   -0.259444
    16  C   -0.311884
    17  C   -0.093650
    18  C   -0.130738
    19  C   -0.348251
    20  C   -0.344705
    21  C   -0.147438
    22  C   -0.092458
    23  C    0.141580
    24  C    0.102557
    25  C   -0.382770
    26  C   -0.364425
    27  C   -0.131165
    28  C   -0.115024
    29  C   -0.083863
    30  C   -0.083130
    31  C   -0.070756
    32  C   -0.101196
    33  C    0.041149
    34  C    0.102861
    35  C   -0.324046
    36  C   -0.368641
    37  C   -0.112789
    38  C   -0.116436
    39  C   -0.072127
    40  C   -0.090869
    41  H    0.089765
    42  H    0.085235
    43  H    0.097213
    44  H    0.095770
    45  H    0.085155
    46  H    0.089637
    47  H    0.080213
    48  H    0.090321
    49  H    0.128915
    50  H    0.108948
    51  H    0.109282
    52  H    0.101643
    53  H    0.075055
    54  H    0.105990
    55  H    0.103951
    56  H    0.061823
    57  H    0.103142
    58  H    0.101686
    59  H    0.093645
    60  H    0.072179
    61  H    0.074378
    62  H    0.108252
    63  H    0.076544
    64  H    0.090081
    65  H    0.042625
    66  H    0.088717
    67  H    0.121867
    68  H    0.100684
    69  H    0.094663
    70  H    0.139846
    71  H    0.092127
    72  H    0.096326
    73  H    0.082080
    74  H    0.102409
    75  H    0.114034
    76  H    0.102375
    77  H    0.135121
    78  H    0.137175
    79  H    0.094956
    80  H    0.104295
    81  H    0.061313
    82  H    0.052613
    83  H    0.076498
    84  H    0.082358
    85  H    0.073451
    86  H    0.075180
    87  H    0.084274
    88  H    0.114865
    89  H    0.129524
    90  H    0.122457
    91  H    0.119529
    92  H    0.102451
    93  H    0.073870
    94  H    0.067508
    95  H    0.086055
    96  H    0.079269
 Sum of Mulliken charges =  -0.00000

 Dipole moment (field-independent basis, Debye):
    X=              0.5659    Y=             -0.2599    Z=             -0.2426  Tot=              0.6683
 Quadrupole moment (field-independent basis, Debye-Ang):
   XX=           -211.8772   YY=           -233.4638   ZZ=           -254.1313
   XY=             -7.5359   XZ=             -2.0274   YZ=              2.7254

 Normal termination of Gaussian 16 at Thu Aug  1 05:21:33 2019.
