 Gaussian 16, Revision A.03,
 Gaussian 16:  ES64L-G16RevA.03 25-Dec-2016

 ---------------------------------
 # td=(NStates=1) B3LYP/6-31G(d,p)
 ---------------------------------

 --
 TD
 --
 Symbolic Z-matrix:
 Charge =  0 Multiplicity = 1

                         Standard orientation:
 ---------------------------------------------------------------------
 Center     Atomic      Atomic             Coordinates (Angstroms)
 Number     Number       Type             X           Y           Z
 ---------------------------------------------------------------------
      1          6           0       12.104669    0.464868   -0.758204
      2          6           0      -12.084748   -0.082907    0.862893
      3          6           0       13.485264   -0.295559   -0.544167
      4          6           0      -12.895190    1.139030    1.338179
      5          6           0       13.192716   -1.793179   -0.398738
      6          6           0      -13.393059    2.023141    0.190011
      7          6           0       10.956963   -0.016384    0.255897
      8          6           0      -11.023997    0.371322   -0.056500
      9          6           0       12.269623   -2.207798    0.763536
     10          6           0      -12.123952    2.674975   -0.398659
     11          6           0       11.145459   -1.196165    0.936335
     12          6           0      -11.070505    1.542721   -0.716297
     13          6           0       11.615956    0.347522   -2.244983
     14          6           0       12.487942    1.918191   -0.380315
     15          6           0      -13.030511   -1.076491    0.207098
     16          6           0      -11.404876   -0.748330    2.085358
     17          6           0        9.819710    0.864505    0.370338
     18          6           0       -9.894816   -0.527322   -0.368455
     19          6           0       10.086980   -1.654734    1.860158
     20          6           0      -10.052957    2.098308   -1.658976
     21          6           0        8.506978    0.526506    0.427834
     22          6           0       -8.535598   -0.326795   -0.338617
     23          6           0        7.398025    1.463816    0.423999
     24          6           0       -7.517146   -1.359610   -0.445586
     25          6           0        7.575602    2.856516    0.813789
     26          6           0       -8.016474   -2.745845   -0.544536
     27          6           0        6.140144    0.880383    0.253197
     28          6           0       -6.116701   -1.021607   -0.450494
     29          6           0        4.831315    1.472650    0.262188
     30          6           0       -4.981917   -1.766241   -0.522405
     31          6           0        3.656963    0.832675   -0.049883
     32          6           0       -3.812868   -1.140363   -0.434843
     33          6           0        2.320568    1.378230    0.121633
     34          6           0       -2.397175   -1.783014   -0.389817
     35          6           0        2.226446    2.906981    0.479249
     36          6           0       -2.386829   -3.315090   -0.604865
     37          6           0        1.186773    0.623747    0.010009
     38          6           0       -1.299346   -1.040506   -0.290600
     39          6           0        1.164149   -0.866087   -0.025917
     40          6           0        0.072276   -1.588402   -0.289849
     41          1           0       13.892930   -0.054736    0.411080
     42          1           0       14.045281   -0.269395   -1.427037
     43          1           0      -12.307266    1.938777    2.096413
     44          1           0      -13.721634    0.763250    2.022837
     45          1           0       14.129196   -2.348397   -0.215481
     46          1           0       12.781155   -2.372584   -1.430002
     47          1           0      -13.997567    2.753910    0.651599
     48          1           0      -13.834152    1.573048   -0.568553
     49          1           0       12.707298   -2.319448    1.937817
     50          1           0       11.918632   -3.229494    0.325090
     51          1           0      -11.494068    3.367121    0.164774
     52          1           0      -12.499069    3.170486   -1.225153
     53          1           0       11.459862   -0.765286   -2.357614
     54          1           0       12.469002    0.645006   -2.874417
     55          1           0       10.758267    0.999369   -2.460562
     56          1           0       12.783145    1.907135    0.661210
     57          1           0       11.835857    2.695102   -0.722974
     58          1           0       13.314329    2.236213   -1.077786
     59          1           0      -13.720632   -0.629237   -0.635472
     60          1           0      -13.697407   -1.485352    0.893936
     61          1           0      -12.552650   -1.964777   -0.238916
     62          1           0      -10.644352   -0.176416    2.775146
     63          1           0      -10.923777   -1.690118    1.916963
     64          1           0      -12.394537   -0.961093    2.645506
     65          1           0       10.038363    1.968590    0.490671
     66          1           0      -10.248070   -1.673430   -0.096734
     67          1           0        9.447442   -0.904230    2.202422
     68          1           0       10.379629   -2.004169    3.038936
     69          1           0        9.439575   -2.593460    1.486043
     70          1           0       -9.393566    1.165690   -1.765561
     71          1           0       -9.344174    2.813577   -1.515238
     72          1           0      -10.283842    2.290340   -2.876883
     73          1           0        8.211665   -0.607914    0.405603
     74          1           0       -8.300168    0.834580   -0.645195
     75          1           0        7.824790    3.131618    2.034813
     76          1           0        6.557390    3.408229    0.829336
     77          1           0        8.193037    3.633051    0.230701
     78          1           0       -8.688938   -2.909692   -1.542679
     79          1           0       -8.607740   -2.959147    0.264116
     80          1           0       -7.117269   -3.348492   -0.546223
     81          1           0        6.302229   -0.282648    0.018040
     82          1           0       -6.011425    0.213596   -0.330084
     83          1           0        4.820808    2.611613    0.537547
     84          1           0       -5.165369   -2.846581   -0.620682
     85          1           0        3.855619   -0.232219   -0.267886
     86          1           0       -3.603211   -0.170933   -0.361114
     87          1           0        2.821211    3.205841    1.392468
     88          1           0        1.220064    3.212513    0.784059
     89          1           0        2.737071    3.353831   -0.673821
     90          1           0       -2.794232   -3.511969   -1.605872
     91          1           0       -3.187218   -3.857526    0.252427
     92          1           0       -1.415087   -3.790050   -0.435992
     93          1           0        0.117164    1.038249   -0.189942
     94          1           0       -1.473190    0.248350   -0.369396
     95          1           0        2.060367   -1.500042    0.247810
     96          1           0        0.064100   -2.722195   -0.134050
 ---------------------------------------------------------------------

 SCF Done:  E(RB3LYP) =  -1557.51738485     A.U. after   15 cycles

 Excitation energies and oscillator strengths:

 Excited State   1:      Singlet-A      2.2782 eV  544.22 nm  f=2.5096  <S**2>=0.000
     148 ->149         0.70723
 This state for optimization and/or second-order correction.
 Total Energy, E(TD-HF/TD-DFT) =  -1557.43366284
 Copying the excited state density for this state as the 1-particle RhoCI density.

 The electronic state is 1-A.
 Alpha  occ. eigenvalues --  -10.21282 -10.21020 -10.20901 -10.20735 -10.20651
 Alpha  occ. eigenvalues --  -10.20429 -10.20377 -10.20345 -10.20341 -10.20327
 Alpha  occ. eigenvalues --  -10.20242 -10.20201 -10.20164 -10.20055 -10.20031
 Alpha  occ. eigenvalues --  -10.19682 -10.19654 -10.19595 -10.19580 -10.19518
 Alpha  occ. eigenvalues --  -10.19360 -10.19288 -10.19176 -10.19149 -10.19088
 Alpha  occ. eigenvalues --  -10.19063 -10.18900 -10.18833 -10.18787 -10.18442
 Alpha  occ. eigenvalues --  -10.18408 -10.18228 -10.18222 -10.17964 -10.17713
 Alpha  occ. eigenvalues --  -10.17541 -10.17512 -10.16903 -10.16871 -10.16276
 Alpha  occ. eigenvalues --   -0.85630  -0.84231  -0.83483  -0.82901  -0.82030
 Alpha  occ. eigenvalues --   -0.81029  -0.79278  -0.78386  -0.78075  -0.77368
 Alpha  occ. eigenvalues --   -0.76826  -0.75860  -0.74137  -0.71804  -0.71533
 Alpha  occ. eigenvalues --   -0.68539  -0.68461  -0.67968  -0.67796  -0.67717
 Alpha  occ. eigenvalues --   -0.67640  -0.66895  -0.66615  -0.66390  -0.66042
 Alpha  occ. eigenvalues --   -0.62666  -0.61816  -0.59747  -0.58328  -0.57093
 Alpha  occ. eigenvalues --   -0.56269  -0.55357  -0.54748  -0.54080  -0.52377
 Alpha  occ. eigenvalues --   -0.51880  -0.51556  -0.49772  -0.49240  -0.48653
 Alpha  occ. eigenvalues --   -0.48003  -0.47511  -0.47124  -0.46810  -0.46098
 Alpha  occ. eigenvalues --   -0.45491  -0.44792  -0.44391  -0.44084  -0.43947
 Alpha  occ. eigenvalues --   -0.43295  -0.43199  -0.42815  -0.42373  -0.42216
 Alpha  occ. eigenvalues --   -0.41924  -0.41563  -0.41353  -0.40799  -0.40623
 Alpha  occ. eigenvalues --   -0.40144  -0.40134  -0.39939  -0.39587  -0.39399
 Alpha  occ. eigenvalues --   -0.39347  -0.38814  -0.38571  -0.38333  -0.38148
 Alpha  occ. eigenvalues --   -0.37369  -0.36890  -0.36794  -0.36457  -0.36062
 Alpha  occ. eigenvalues --   -0.35822  -0.35716  -0.35467  -0.35196  -0.34801
 Alpha  occ. eigenvalues --   -0.34457  -0.34370  -0.34329  -0.33995  -0.33614
 Alpha  occ. eigenvalues --   -0.33343  -0.32956  -0.32631  -0.32335  -0.32012
 Alpha  occ. eigenvalues --   -0.31885  -0.31697  -0.31543  -0.31364  -0.30785
 Alpha  occ. eigenvalues --   -0.30339  -0.30009  -0.29887  -0.28629  -0.28361
 Alpha  occ. eigenvalues --   -0.27952  -0.26713  -0.26342  -0.24368  -0.23111
 Alpha  occ. eigenvalues --   -0.21391  -0.18640  -0.17064
 Alpha virt. eigenvalues --   -0.08034  -0.05989  -0.02001   0.00326   0.02016
 Alpha virt. eigenvalues --    0.03713   0.05067   0.05823   0.06228   0.06439
 Alpha virt. eigenvalues --    0.06871   0.07071   0.07316   0.07893   0.08158

 Mulliken charges:
               1
     1  C   -0.013719
     2  C   -0.021431
     3  C   -0.154646
     4  C   -0.161389
     5  C   -0.204781
     6  C   -0.181634
     7  C    0.065519
     8  C    0.152663
     9  C   -0.193792
    10  C   -0.209140
    11  C    0.082374
    12  C    0.024269
    13  C   -0.304057
    14  C   -0.303049
    15  C   -0.300784
    16  C   -0.291791
    17  C   -0.140416
    18  C   -0.157803
    19  C   -0.353333
    20  C   -0.375649
    21  C   -0.099885
    22  C   -0.087259
    23  C    0.159655
    24  C    0.083654
    25  C   -0.380464
    26  C   -0.356537
    27  C   -0.128548
    28  C   -0.098891
    29  C   -0.082896
    30  C   -0.064133
    31  C   -0.101685
    32  C   -0.077098
    33  C    0.089780
    34  C    0.097517
    35  C   -0.335656
    36  C   -0.350571
    37  C   -0.122219
    38  C   -0.108807
    39  C   -0.071899
    40  C   -0.112929
    41  H    0.105314
    42  H    0.104156
    43  H    0.064504
    44  H    0.071176
    45  H    0.090096
    46  H    0.061402
    47  H    0.092229
    48  H    0.110230
    49  H    0.077448
    50  H    0.103848
    51  H    0.107618
    52  H    0.098989
    53  H    0.103725
    54  H    0.095207
    55  H    0.111942
    56  H    0.107170
    57  H    0.095463
    58  H    0.083047
    59  H    0.093405
    60  H    0.110997
    61  H    0.106413
    62  H    0.101254
    63  H    0.104303
    64  H    0.079625
    65  H    0.093581
    66  H    0.046489
    67  H    0.130907
    68  H    0.050186
    69  H    0.090676
    70  H    0.103250
    71  H    0.131017
    72  H    0.068708
    73  H    0.085781
    74  H    0.071516
    75  H    0.089765
    76  H    0.100537
    77  H    0.118742
    78  H    0.103781
    79  H    0.135231
    80  H    0.095987
    81  H    0.068151
    82  H    0.056819
    83  H    0.080702
    84  H    0.094347
    85  H    0.084826
    86  H    0.069876
    87  H    0.122003
    88  H    0.113770
    89  H    0.082704
    90  H    0.134102
    91  H    0.072883
    92  H    0.109956
    93  H    0.080676
    94  H    0.055125
    95  H    0.087292
    96  H    0.082513
 Sum of Mulliken charges =  -0.00000

 Dipole moment (field-independent basis, Debye):
    X=              0.2455    Y=              0.0250    Z=              0.2052  Tot=              0.3209
 Quadrupole moment (field-independent basis, Debye-Ang):
   XX=           -225.4019   YY=           -236.3135   ZZ=           -257.3065
   XY=              5.9156   XZ=             -3.4840   YZ=              2.2449

 Normal termination of Gaussian 16 at Sun Jul 28 13:14:30 2019.
