 Gaussian 16, Revision A.03,
 Gaussian 16:  ES64L-G16RevA.03 25-Dec-2016

 ---------------------------------
 # td=(NStates=1) B3LYP/6-31G(d,p)
 ---------------------------------

 --
 TD
 --
 Symbolic Z-matrix:
 Charge =  0 Multiplicity = 1

                         Standard orientation:
 ---------------------------------------------------------------------
 Center     Atomic      Atomic             Coordinates (Angstroms)
 Number     Number       Type             X           Y           Z
 ---------------------------------------------------------------------
      1          6           0      -12.155281   -0.527487   -0.710969
      2          6           0       12.159103    0.037358    0.975656
      3          6           0      -13.454383    0.380733   -0.649278
      4          6           0       13.064853   -1.147036    1.267545
      5          6           0      -13.107509    1.813138   -0.703290
      6          6           0       13.461804   -2.019534    0.023820
      7          6           0      -11.170056    0.061199    0.238233
      8          6           0       11.020783   -0.338819   -0.105420
      9          6           0      -12.285243    2.272366    0.501348
     10          6           0       12.333263   -2.487098   -0.818134
     11          6           0      -11.272997    1.299316    0.890387
     12          6           0       11.261883   -1.462979   -0.861888
     13          6           0      -11.677587   -0.530888   -2.265896
     14          6           0      -12.572712   -1.956862   -0.420274
     15          6           0       12.998025    1.214390    0.443315
     16          6           0       11.532444    0.466608    2.233565
     17          6           0      -10.004799   -0.785193    0.469832
     18          6           0        9.890268    0.587092   -0.263334
     19          6           0      -10.204094    1.759613    1.777279
     20          6           0       10.244434   -1.855633   -1.908684
     21          6           0       -8.619410   -0.420067    0.475788
     22          6           0        8.568193    0.310404   -0.423145
     23          6           0       -7.537641   -1.348670    0.536973
     24          6           0        7.516919    1.344870   -0.483959
     25          6           0       -7.653117   -2.796824    0.685022
     26          6           0        7.957007    2.804707   -0.606600
     27          6           0       -6.313951   -0.722736    0.495091
     28          6           0        6.265055    0.799384   -0.393827
     29          6           0       -4.992237   -1.364408    0.492339
     30          6           0        5.124026    1.579649   -0.405505
     31          6           0       -3.781801   -0.753447    0.215705
     32          6           0        3.904506    1.027479   -0.311985
     33          6           0       -2.400046   -1.346804    0.480958
     34          6           0        2.599809    1.675660   -0.294862
     35          6           0       -2.438051   -2.837456    0.670413
     36          6           0        2.563108    3.177549   -0.613390
     37          6           0       -1.251691   -0.703358    0.163409
     38          6           0        1.407162    1.021647   -0.138092
     39          6           0       -1.194676    0.699804   -0.286647
     40          6           0        0.053866    1.425708   -0.388236
     41          1           0      -14.046986    0.136972    0.345389
     42          1           0      -14.108992   -0.086321   -1.458124
     43          1           0       12.547410   -1.774623    1.944102
     44          1           0       13.832780   -1.084193    1.835374
     45          1           0      -13.886220    2.198596   -0.829894
     46          1           0      -12.572979    1.999644   -1.766373
     47          1           0       14.202344   -2.806874    0.116921
     48          1           0       14.056683   -1.427452   -0.671232
     49          1           0      -13.092710    2.195837    1.227859
     50          1           0      -11.608363    3.175996    0.412307
     51          1           0       11.853684   -3.312617   -0.328669
     52          1           0       12.694870   -2.711739   -1.809186
     53          1           0      -11.532895    0.414712   -2.644760
     54          1           0      -12.426307   -1.027387   -2.871059
     55          1           0      -10.725399   -0.976375   -2.276775
     56          1           0      -13.175222   -2.114289    0.517658
     57          1           0      -11.690580   -2.582766   -0.522479
     58          1           0      -13.242708   -2.368983   -1.172944
     59          1           0       13.267443    0.923048   -0.530742
     60          1           0       13.733815    1.341585    1.340588
     61          1           0       12.307009    2.311011    0.539555
     62          1           0       10.775241   -0.204122    2.686539
     63          1           0       10.863555    1.445213    2.206382
     64          1           0       12.205204    0.924421    2.980114
     65          1           0      -10.070018   -2.016148    0.754126
     66          1           0       10.253443    1.702317    0.069619
     67          1           0       -9.793855    0.952850    2.364501
     68          1           0      -10.649747    2.297813    2.626532
     69          1           0       -9.478695    2.461857    1.474599
     70          1           0        9.537828   -1.261471   -2.487351
     71          1           0        9.508599   -2.678853   -1.647055
     72          1           0       10.812520   -2.352432   -2.585559
     73          1           0       -8.452837    0.644493    0.334884
     74          1           0        8.122712   -0.682791   -0.422988
     75          1           0       -7.820737   -2.905899    1.902653
     76          1           0       -6.714560   -3.451802    0.348119
     77          1           0       -8.528938   -3.216484    0.093838
     78          1           0        8.705340    2.909989   -1.333202
     79          1           0        8.494578    3.042941    0.337869
     80          1           0        7.050471    3.257190   -0.956959
     81          1           0       -6.042488    0.410246    0.570001
     82          1           0        6.103778   -0.269587   -0.000829
     83          1           0       -4.830171   -2.427131    0.829013
     84          1           0        5.245187    2.724337   -0.280007
     85          1           0       -3.881936    0.289887    0.115340
     86          1           0        3.865045   -0.032234   -0.367748
     87          1           0       -3.214037   -3.100882    1.493556
     88          1           0       -1.442771   -3.238832    1.134594
     89          1           0       -2.750677   -3.409221   -0.262774
     90          1           0        2.924623    3.397773   -1.790724
     91          1           0        3.279370    3.794295   -0.184306
     92          1           0        1.584233    3.758168   -0.596597
     93          1           0       -0.278249   -1.077210    0.137925
     94          1           0        1.451325   -0.119908   -0.124778
     95          1           0       -2.189876    1.368937   -0.203592
     96          1           0       -0.065542    2.518257   -0.512829
 ---------------------------------------------------------------------

 SCF Done:  E(RB3LYP) =  -1557.54791401     A.U. after   15 cycles

 Excitation energies and oscillator strengths:

 Excited State   1:      Singlet-A      2.1623 eV  573.39 nm  f=2.7992  <S**2>=0.000
     148 ->149         0.70328
 This state for optimization and/or second-order correction.
 Total Energy, E(TD-HF/TD-DFT) =  -1557.46845038
 Copying the excited state density for this state as the 1-particle RhoCI density.

 The electronic state is 1-A.
 Alpha  occ. eigenvalues --  -10.21017 -10.20773 -10.20606 -10.20265 -10.20154
 Alpha  occ. eigenvalues --  -10.19959 -10.19872 -10.19788 -10.19782 -10.19684
 Alpha  occ. eigenvalues --  -10.19468 -10.19456 -10.19408 -10.19260 -10.19232
 Alpha  occ. eigenvalues --  -10.19185 -10.19029 -10.18991 -10.18910 -10.18880
 Alpha  occ. eigenvalues --  -10.18860 -10.18781 -10.18750 -10.18698 -10.18503
 Alpha  occ. eigenvalues --  -10.18493 -10.18480 -10.18471 -10.18450 -10.18356
 Alpha  occ. eigenvalues --  -10.18297 -10.17856 -10.17605 -10.17582 -10.16728
 Alpha  occ. eigenvalues --  -10.16672 -10.16507 -10.16408 -10.16116 -10.15928
 Alpha  occ. eigenvalues --   -0.85371  -0.85126  -0.83658  -0.82764  -0.81786
 Alpha  occ. eigenvalues --   -0.80995  -0.79847  -0.78999  -0.78338  -0.77813
 Alpha  occ. eigenvalues --   -0.76665  -0.75442  -0.73671  -0.72289  -0.71767
 Alpha  occ. eigenvalues --   -0.69704  -0.68900  -0.68793  -0.68693  -0.67912
 Alpha  occ. eigenvalues --   -0.67684  -0.67653  -0.67092  -0.66602  -0.65607
 Alpha  occ. eigenvalues --   -0.62544  -0.62100  -0.60294  -0.58949  -0.57003
 Alpha  occ. eigenvalues --   -0.56670  -0.55855  -0.54862  -0.53577  -0.52893
 Alpha  occ. eigenvalues --   -0.52004  -0.51654  -0.49786  -0.49338  -0.49166
 Alpha  occ. eigenvalues --   -0.48354  -0.47967  -0.47519  -0.46897  -0.46643
 Alpha  occ. eigenvalues --   -0.46170  -0.45720  -0.44922  -0.44559  -0.44464
 Alpha  occ. eigenvalues --   -0.43807  -0.43287  -0.42765  -0.42549  -0.42211
 Alpha  occ. eigenvalues --   -0.42120  -0.41640  -0.41396  -0.41320  -0.40999
 Alpha  occ. eigenvalues --   -0.40655  -0.40442  -0.39959  -0.39251  -0.39113
 Alpha  occ. eigenvalues --   -0.39013  -0.38807  -0.38542  -0.38381  -0.37944
 Alpha  occ. eigenvalues --   -0.37590  -0.37207  -0.37139  -0.36991  -0.36665
 Alpha  occ. eigenvalues --   -0.36522  -0.36103  -0.36049  -0.35757  -0.35258
 Alpha  occ. eigenvalues --   -0.34934  -0.34259  -0.34162  -0.33953  -0.33434
 Alpha  occ. eigenvalues --   -0.33331  -0.33171  -0.32887  -0.32641  -0.32291
 Alpha  occ. eigenvalues --   -0.32066  -0.31881  -0.31649  -0.31294  -0.30710
 Alpha  occ. eigenvalues --   -0.30038  -0.29831  -0.29755  -0.29220  -0.28486
 Alpha  occ. eigenvalues --   -0.27870  -0.27615  -0.25848  -0.23774  -0.22487
 Alpha  occ. eigenvalues --   -0.20518  -0.18394  -0.16389
 Alpha virt. eigenvalues --   -0.08034  -0.05392  -0.02429   0.00517   0.02238
 Alpha virt. eigenvalues --    0.03842   0.05503   0.05581   0.06583   0.07331
 Alpha virt. eigenvalues --    0.07411   0.07696   0.08367   0.08576   0.09000

 Mulliken charges:
               1
     1  C   -0.014284
     2  C   -0.005435
     3  C   -0.190550
     4  C   -0.152141
     5  C   -0.127548
     6  C   -0.217176
     7  C    0.102669
     8  C    0.063325
     9  C   -0.218195
    10  C   -0.207775
    11  C    0.071223
    12  C    0.041483
    13  C   -0.308397
    14  C   -0.297144
    15  C   -0.257107
    16  C   -0.306425
    17  C   -0.175202
    18  C   -0.141255
    19  C   -0.394230
    20  C   -0.361940
    21  C   -0.076352
    22  C   -0.076703
    23  C    0.139786
    24  C    0.094573
    25  C   -0.368185
    26  C   -0.363444
    27  C   -0.132250
    28  C   -0.132526
    29  C   -0.084323
    30  C   -0.060397
    31  C   -0.098171
    32  C   -0.129099
    33  C    0.077839
    34  C    0.141001
    35  C   -0.366586
    36  C   -0.374137
    37  C   -0.081760
    38  C   -0.127984
    39  C   -0.099028
    40  C   -0.106177
    41  H    0.063002
    42  H    0.078524
    43  H    0.095301
    44  H    0.093737
    45  H    0.084845
    46  H    0.064847
    47  H    0.084904
    48  H    0.093485
    49  H    0.114467
    50  H    0.105743
    51  H    0.121477
    52  H    0.108536
    53  H    0.106746
    54  H    0.099852
    55  H    0.111049
    56  H    0.092673
    57  H    0.098853
    58  H    0.093666
    59  H    0.116542
    60  H    0.092348
    61  H    0.053028
    62  H    0.106286
    63  H    0.069931
    64  H    0.093643
    65  H    0.059530
    66  H    0.066309
    67  H    0.131674
    68  H    0.093480
    69  H    0.123808
    70  H    0.117813
    71  H    0.093094
    72  H    0.098182
    73  H    0.087196
    74  H    0.084622
    75  H    0.111134
    76  H    0.112908
    77  H    0.116977
    78  H    0.135358
    79  H    0.131120
    80  H    0.113723
    81  H    0.078480
    82  H    0.090142
    83  H    0.063861
    84  H    0.081362
    85  H    0.065094
    86  H    0.075005
    87  H    0.102992
    88  H    0.094537
    89  H    0.127934
    90  H    0.081006
    91  H    0.124822
    92  H    0.110163
    93  H    0.082832
    94  H    0.064466
    95  H    0.081664
    96  H    0.075259
 Sum of Mulliken charges =  -0.00000

 Dipole moment (field-independent basis, Debye):
    X=              0.8758    Y=             -0.1020    Z=              0.5126  Tot=              1.0199
 Quadrupole moment (field-independent basis, Debye-Ang):
   XX=           -205.1675   YY=           -234.7412   ZZ=           -254.1389
   XY=             -9.1693   XZ=              1.4947   YZ=              0.6284

 Normal termination of Gaussian 16 at Sun Jul 28 07:25:20 2019.
