 Gaussian 16, Revision A.03,
 Gaussian 16:  ES64L-G16RevA.03 25-Dec-2016

 ---------------------------------
 # td=(NStates=1) B3LYP/6-31G(d,p)
 ---------------------------------

 --
 TD
 --
 Symbolic Z-matrix:
 Charge =  0 Multiplicity = 1

                         Standard orientation:
 ---------------------------------------------------------------------
 Center     Atomic      Atomic             Coordinates (Angstroms)
 Number     Number       Type             X           Y           Z
 ---------------------------------------------------------------------
      1          6           0      -12.131693   -0.684153   -0.533898
      2          6           0       12.209855    0.046403    0.857583
      3          6           0      -13.461366    0.262919   -0.463648
      4          6           0       13.063661   -1.114016    1.315799
      5          6           0      -13.224131    1.852870   -0.608819
      6          6           0       13.492399   -2.000428    0.156265
      7          6           0      -11.086319    0.032545    0.212440
      8          6           0       11.049278   -0.367791   -0.093447
      9          6           0      -12.333615    2.175534    0.618896
     10          6           0       12.250130   -2.600435   -0.515211
     11          6           0      -11.090476    1.282471    0.747389
     12          6           0       11.089625   -1.570861   -0.642382
     13          6           0      -11.783495   -0.673066   -2.094161
     14          6           0      -12.619809   -2.099205    0.004826
     15          6           0       12.958486    1.142688    0.257641
     16          6           0       11.519900    0.493373    2.240116
     17          6           0       -9.936649   -0.828898    0.512336
     18          6           0        9.984574    0.663857   -0.282700
     19          6           0      -10.140942    1.799073    1.839133
     20          6           0       10.052405   -1.959217   -1.767770
     21          6           0       -8.636896   -0.431656    0.318366
     22          6           0        8.606683    0.273237   -0.248563
     23          6           0       -7.543698   -1.284592    0.405751
     24          6           0        7.537989    1.275246   -0.370479
     25          6           0       -7.683450   -2.737510    0.682727
     26          6           0        7.990833    2.727835   -0.492895
     27          6           0       -6.234189   -0.688618    0.222618
     28          6           0        6.357017    0.810406   -0.400899
     29          6           0       -4.922921   -1.396892    0.252154
     30          6           0        5.022798    1.491665   -0.534054
     31          6           0       -3.687576   -0.706760    0.138403
     32          6           0        3.807223    1.069627   -0.414723
     33          6           0       -2.416783   -1.225876    0.160901
     34          6           0        2.488616    1.780042   -0.495957
     35          6           0       -2.202623   -2.770880    0.450591
     36          6           0        2.557648    3.240360   -0.612943
     37          6           0       -1.274158   -0.450909    0.001420
     38          6           0        1.390246    1.065757   -0.287201
     39          6           0       -1.127170    0.962520   -0.279504
     40          6           0        0.038420    1.613301   -0.433185
     41          1           0      -14.039427    0.144780    0.480928
     42          1           0      -13.934448    0.008787   -1.381300
     43          1           0       12.454901   -1.863913    1.924724
     44          1           0       13.956890   -0.939217    1.880229
     45          1           0      -14.163087    2.424807   -0.678619
     46          1           0      -12.541045    2.027680   -1.588292
     47          1           0       14.219063   -2.919136    0.405784
     48          1           0       14.101596   -1.390640   -0.508290
     49          1           0      -12.978392    2.122543    1.653896
     50          1           0      -11.892109    3.264123    0.523629
     51          1           0       11.753975   -3.707637    0.000490
     52          1           0       12.651516   -2.748297   -1.673754
     53          1           0      -11.600851    0.287885   -2.759170
     54          1           0      -12.696689   -1.179609   -2.715232
     55          1           0      -10.892098   -1.248264   -2.185235
     56          1           0      -13.045344   -1.802121    1.025520
     57          1           0      -12.024139   -3.087332   -0.087534
     58          1           0      -13.548553   -2.379834   -0.506332
     59          1           0       13.734817    0.726646   -0.622041
     60          1           0       13.569826    1.510401    1.008009
     61          1           0       12.390620    1.970699   -0.170148
     62          1           0       11.055470   -0.367639    2.553104
     63          1           0       10.859380    1.305880    2.202814
     64          1           0       12.397966    0.730834    3.002701
     65          1           0      -10.025559   -1.903107    0.632894
     66          1           0        9.933138    1.883322    0.122728
     67          1           0       -9.435508    0.868271    2.236736
     68          1           0      -10.816632    2.381752    2.610498
     69          1           0       -9.440517    2.607950    1.411003
     70          1           0        9.910494   -0.853161   -2.507834
     71          1           0        9.183209   -2.403390   -1.223966
     72          1           0       10.425605   -2.842596   -2.601457
     73          1           0       -8.440123    0.564234    0.012359
     74          1           0        8.320880   -0.776624   -0.033944
     75          1           0       -8.178399   -2.948496    1.732250
     76          1           0       -6.635502   -3.110617    0.370714
     77          1           0       -8.492168   -3.200613   -0.176305
     78          1           0        8.383997    2.849758   -1.457550
     79          1           0        8.647765    3.093174    0.255077
     80          1           0        7.131245    3.615930   -0.334422
     81          1           0       -6.262175    0.176080    0.134594
     82          1           0        6.179938   -0.425567   -0.299026
     83          1           0       -5.121425   -2.449413    0.782899
     84          1           0        5.276803    2.553177   -0.754346
     85          1           0       -3.739598    0.223278   -0.173108
     86          1           0        3.598470   -0.059658   -0.343616
     87          1           0       -2.756914   -2.903099    1.378319
     88          1           0       -1.208317   -3.184600    0.258883
     89          1           0       -2.861339   -3.276934   -0.271937
     90          1           0        3.017665    3.420941   -1.547521
     91          1           0        3.199297    3.704773    0.313637
     92          1           0        1.554395    3.819251   -0.436979
     93          1           0       -0.341525   -1.035624   -0.001090
     94          1           0        1.576992    0.037777   -0.068509
     95          1           0       -1.919634    1.310968   -0.218772
     96          1           0       -0.033324    2.551650   -0.525588
 ---------------------------------------------------------------------

 SCF Done:  E(RB3LYP) =  -1557.40239311     A.U. after   16 cycles

 Excitation energies and oscillator strengths:

 Excited State   1:      Singlet-A      2.2635 eV  547.77 nm  f=2.8677  <S**2>=0.000
     148 ->149         0.69057
     148 ->150         0.12688
     148 <-149        -0.10456
 This state for optimization and/or second-order correction.
 Total Energy, E(TD-HF/TD-DFT) =  -1557.31921275
 Copying the excited state density for this state as the 1-particle RhoCI density.

 The electronic state is 1-A.
 Alpha  occ. eigenvalues --  -10.21534 -10.21521 -10.20956 -10.20935 -10.20921
 Alpha  occ. eigenvalues --  -10.20621 -10.20169 -10.20123 -10.20023 -10.19995
 Alpha  occ. eigenvalues --  -10.19873 -10.19781 -10.19769 -10.19734 -10.19734
 Alpha  occ. eigenvalues --  -10.19734 -10.19642 -10.19563 -10.19447 -10.19381
 Alpha  occ. eigenvalues --  -10.19287 -10.19143 -10.18934 -10.18876 -10.18562
 Alpha  occ. eigenvalues --  -10.18440 -10.18418 -10.18409 -10.18318 -10.18201
 Alpha  occ. eigenvalues --  -10.18183 -10.18019 -10.17962 -10.17739 -10.17570
 Alpha  occ. eigenvalues --  -10.17495 -10.17485 -10.17259 -10.16693 -10.16610
 Alpha  occ. eigenvalues --   -0.84977  -0.84715  -0.84184  -0.83410  -0.82762
 Alpha  occ. eigenvalues --   -0.81948  -0.79229  -0.77585  -0.77233  -0.76790
 Alpha  occ. eigenvalues --   -0.76401  -0.75363  -0.73741  -0.71080  -0.70838
 Alpha  occ. eigenvalues --   -0.70396  -0.69848  -0.68577  -0.68352  -0.68048
 Alpha  occ. eigenvalues --   -0.67561  -0.66998  -0.66033  -0.65108  -0.64926
 Alpha  occ. eigenvalues --   -0.63118  -0.61713  -0.59689  -0.58445  -0.57107
 Alpha  occ. eigenvalues --   -0.56951  -0.55757  -0.55221  -0.54158  -0.53134
 Alpha  occ. eigenvalues --   -0.51974  -0.51507  -0.50971  -0.49959  -0.48974
 Alpha  occ. eigenvalues --   -0.48408  -0.47750  -0.47323  -0.46769  -0.45919
 Alpha  occ. eigenvalues --   -0.45294  -0.44427  -0.44299  -0.44035  -0.43880
 Alpha  occ. eigenvalues --   -0.43447  -0.43124  -0.42801  -0.42604  -0.42166
 Alpha  occ. eigenvalues --   -0.41978  -0.41673  -0.41225  -0.41048  -0.40908
 Alpha  occ. eigenvalues --   -0.40525  -0.40191  -0.39985  -0.39138  -0.38984
 Alpha  occ. eigenvalues --   -0.38625  -0.38298  -0.38181  -0.38107  -0.37904
 Alpha  occ. eigenvalues --   -0.37391  -0.37272  -0.36922  -0.36863  -0.36517
 Alpha  occ. eigenvalues --   -0.36180  -0.35838  -0.35487  -0.35333  -0.34949
 Alpha  occ. eigenvalues --   -0.34855  -0.34629  -0.33868  -0.33789  -0.33741
 Alpha  occ. eigenvalues --   -0.33456  -0.33228  -0.32855  -0.32330  -0.32168
 Alpha  occ. eigenvalues --   -0.31691  -0.31649  -0.31460  -0.31073  -0.31011
 Alpha  occ. eigenvalues --   -0.30197  -0.29962  -0.29527  -0.29258  -0.28540
 Alpha  occ. eigenvalues --   -0.27965  -0.27289  -0.26009  -0.24807  -0.23238
 Alpha  occ. eigenvalues --   -0.21111  -0.19157  -0.16608
 Alpha virt. eigenvalues --   -0.08227  -0.05319  -0.02367   0.00353   0.02771
 Alpha virt. eigenvalues --    0.04256   0.05624   0.06347   0.06483   0.06644
 Alpha virt. eigenvalues --    0.07259   0.07550   0.07832   0.08051   0.08225

 Mulliken charges:
               1
     1  C   -0.020439
     2  C   -0.005044
     3  C   -0.177769
     4  C   -0.177085
     5  C   -0.190865
     6  C   -0.186222
     7  C    0.120799
     8  C    0.108809
     9  C   -0.204393
    10  C   -0.184505
    11  C    0.064482
    12  C    0.024451
    13  C   -0.298477
    14  C   -0.314894
    15  C   -0.280788
    16  C   -0.290357
    17  C   -0.166046
    18  C   -0.156039
    19  C   -0.345506
    20  C   -0.319892
    21  C   -0.074896
    22  C   -0.085435
    23  C    0.113014
    24  C    0.155148
    25  C   -0.366643
    26  C   -0.386371
    27  C   -0.043812
    28  C   -0.128991
    29  C   -0.118868
    30  C   -0.094365
    31  C   -0.107688
    32  C   -0.107588
    33  C    0.103250
    34  C    0.151299
    35  C   -0.371050
    36  C   -0.367290
    37  C   -0.139641
    38  C   -0.118364
    39  C    0.009318
    40  C   -0.072031
    41  H    0.086296
    42  H    0.091204
    43  H    0.087711
    44  H    0.095381
    45  H    0.098700
    46  H    0.081004
    47  H    0.069655
    48  H    0.102792
    49  H    0.080650
    50  H    0.077518
    51  H    0.063360
    52  H    0.084472
    53  H    0.098160
    54  H    0.074370
    55  H    0.111874
    56  H    0.108025
    57  H    0.102178
    58  H    0.112472
    59  H    0.063423
    60  H    0.105108
    61  H    0.109481
    62  H    0.115168
    63  H    0.096604
    64  H    0.069649
    65  H    0.080302
    66  H    0.072489
    67  H    0.106723
    68  H    0.099079
    69  H    0.104258
    70  H    0.085566
    71  H    0.116770
    72  H    0.067161
    73  H    0.081595
    74  H    0.092233
    75  H    0.121445
    76  H    0.109617
    77  H    0.081373
    78  H    0.151122
    79  H    0.136533
    80  H    0.081054
    81  H    0.019025
    82  H    0.050600
    83  H    0.082308
    84  H    0.069180
    85  H    0.080858
    86  H    0.065508
    87  H    0.127594
    88  H    0.112459
    89  H    0.117186
    90  H    0.133059
    91  H    0.102573
    92  H    0.102007
    93  H    0.063263
    94  H    0.079550
    95  H    0.016655
    96  H    0.056382
 Sum of Mulliken charges =  -0.00000

 Dipole moment (field-independent basis, Debye):
    X=             -1.0733    Y=              0.9006    Z=              0.3522  Tot=              1.4447
 Quadrupole moment (field-independent basis, Debye-Ang):
   XX=           -228.5687   YY=           -236.7472   ZZ=           -257.4246
   XY=              8.6706   XZ=              3.8707   YZ=             -2.6131

 Normal termination of Gaussian 16 at Sat Jul 27 19:00:48 2019.
