 Gaussian 16, Revision A.03,
 Gaussian 16:  ES64L-G16RevA.03 25-Dec-2016

 ---------------------------------
 # td=(NStates=1) B3LYP/6-31G(d,p)
 ---------------------------------

 --
 TD
 --
 Symbolic Z-matrix:
 Charge =  0 Multiplicity = 1

                         Standard orientation:
 ---------------------------------------------------------------------
 Center     Atomic      Atomic             Coordinates (Angstroms)
 Number     Number       Type             X           Y           Z
 ---------------------------------------------------------------------
      1          6           0      -12.156502    0.525491    0.761422
      2          6           0       12.172668   -0.048735   -0.782705
      3          6           0      -13.528006   -0.290447    0.636402
      4          6           0       13.019230    1.210930   -1.222838
      5          6           0      -13.146675   -1.778782    0.693194
      6          6           0       13.299693    2.070508   -0.037283
      7          6           0      -11.043306   -0.034324   -0.145391
      8          6           0       10.994749    0.406806    0.143898
      9          6           0      -12.409991   -2.077631   -0.675159
     10          6           0       11.927368    2.789083    0.366032
     11          6           0      -11.263912   -1.187516   -0.897815
     12          6           0       10.931220    1.581938    0.761575
     13          6           0      -11.653184    0.474718    2.302433
     14          6           0      -12.506605    1.952560    0.368139
     15          6           0       13.038625   -1.043401   -0.137117
     16          6           0       11.560873   -0.642554   -2.052646
     17          6           0       -9.820541    0.844722   -0.332139
     18          6           0        9.966778   -0.581047    0.321711
     19          6           0      -10.220403   -1.592712   -1.901813
     20          6           0        9.950462    1.987808    1.843019
     21          6           0       -8.514625    0.401119   -0.308614
     22          6           0        8.613295   -0.384290    0.287974
     23          6           0       -7.394410    1.270703   -0.477048
     24          6           0        7.567996   -1.403539    0.413795
     25          6           0       -7.505270    2.773358   -0.548384
     26          6           0        7.848839   -2.883302    0.749851
     27          6           0       -6.163167    0.728621   -0.402279
     28          6           0        6.297638   -0.977255    0.342915
     29          6           0       -4.835974    1.395607   -0.483691
     30          6           0        5.016376   -1.601382    0.301801
     31          6           0       -3.586371    0.723294   -0.431462
     32          6           0        3.727585   -0.970334    0.238646
     33          6           0       -2.329897    1.364478   -0.295173
     34          6           0        2.546369   -1.770292    0.364327
     35          6           0       -2.206762    2.861041   -0.619367
     36          6           0        2.641020   -3.239557    0.471692
     37          6           0       -1.227198    0.570737   -0.062140
     38          6           0        1.333673   -1.124304    0.117597
     39          6           0       -1.101450   -0.806853    0.078381
     40          6           0        0.041716   -1.611618    0.182916
     41          1           0      -14.137153    0.191689   -0.233463
     42          1           0      -14.050819   -0.053622    1.424002
     43          1           0       12.407183    1.611512   -2.104823
     44          1           0       14.015178    0.635372   -1.540059
     45          1           0      -14.015476   -2.413696    0.823469
     46          1           0      -12.615373   -2.182219    1.611771
     47          1           0       14.055782    2.830446   -0.296910
     48          1           0       13.890806    1.563457    0.724969
     49          1           0      -12.999770   -2.017612   -1.487881
     50          1           0      -12.077110   -3.221614   -0.738498
     51          1           0       11.424103    3.563577   -0.516723
     52          1           0       12.063041    3.433654    1.239377
     53          1           0      -11.493670   -0.582205    2.562271
     54          1           0      -12.361916    0.974151    2.846412
     55          1           0      -10.674221    0.991488    2.521132
     56          1           0      -13.068168    1.786023   -0.787816
     57          1           0      -11.601490    2.589633    0.387350
     58          1           0      -13.210341    2.546423    1.021726
     59          1           0       13.680374   -0.672146    0.650160
     60          1           0       13.795195   -1.649549   -0.813344
     61          1           0       12.467656   -1.664582    0.341931
     62          1           0       11.128554    0.111127   -2.693845
     63          1           0       11.005469   -1.551380   -1.716219
     64          1           0       12.293371   -1.124700   -2.674093
     65          1           0      -10.090342    1.869228   -0.303178
     66          1           0       10.370973   -1.670563    0.503377
     67          1           0       -9.720474   -0.850830   -2.662027
     68          1           0      -10.673191   -2.003413   -2.781463
     69          1           0       -9.648363   -2.552989   -1.460535
     70          1           0        9.369726    0.864986    2.403835
     71          1           0        9.386986    2.718260    1.331713
     72          1           0       10.460307    2.598271    2.683704
     73          1           0       -8.281797   -0.639248   -0.284915
     74          1           0        8.171352    0.579079    0.184227
     75          1           0       -8.579963    3.150612   -1.225886
     76          1           0       -6.346839    3.109013   -0.975279
     77          1           0       -7.952405    3.322440    0.412467
     78          1           0        8.486356   -3.129879    1.596980
     79          1           0        8.332468   -3.350383    0.043844
     80          1           0        7.067324   -3.657397    1.072078
     81          1           0       -6.052627   -0.368624   -0.176141
     82          1           0        6.088562    0.083413    0.048483
     83          1           0       -4.760410    2.404957   -0.754788
     84          1           0        5.106707   -2.661829    0.484474
     85          1           0       -3.460627   -0.373722   -0.330304
     86          1           0        3.766790    0.075799    0.281082
     87          1           0       -2.352239    3.095683   -1.677416
     88          1           0       -1.281430    3.215529   -0.157975
     89          1           0       -3.062213    3.246927    0.065556
     90          1           0        2.831051   -3.543829    1.495564
     91          1           0        3.264628   -3.779271   -0.274115
     92          1           0        1.666977   -3.853350    0.321198
     93          1           0       -0.352930    1.130358   -0.142287
     94          1           0        1.280244    0.054157   -0.123923
     95          1           0       -2.011122   -1.403717   -0.059564
     96          1           0       -0.236245   -2.676771    0.302368
 ---------------------------------------------------------------------

 SCF Done:  E(RB3LYP) =  -1557.54841011     A.U. after   16 cycles

 Excitation energies and oscillator strengths:

 Excited State   1:      Singlet-A      1.9691 eV  629.64 nm  f=3.2634  <S**2>=0.000
     148 ->149         0.71053
     148 <-149        -0.13700
 This state for optimization and/or second-order correction.
 Total Energy, E(TD-HF/TD-DFT) =  -1557.47604654
 Copying the excited state density for this state as the 1-particle RhoCI density.

 The electronic state is 1-A.
 Alpha  occ. eigenvalues --  -10.22283 -10.20826 -10.20304 -10.20247 -10.20045
 Alpha  occ. eigenvalues --  -10.19924 -10.19647 -10.19454 -10.19422 -10.19401
 Alpha  occ. eigenvalues --  -10.19333 -10.19209 -10.19114 -10.19106 -10.19086
 Alpha  occ. eigenvalues --  -10.19053 -10.19001 -10.18990 -10.18901 -10.18900
 Alpha  occ. eigenvalues --  -10.18867 -10.18803 -10.18766 -10.18664 -10.18623
 Alpha  occ. eigenvalues --  -10.18595 -10.18488 -10.18473 -10.18460 -10.18377
 Alpha  occ. eigenvalues --  -10.18346 -10.18094 -10.18076 -10.17768 -10.17748
 Alpha  occ. eigenvalues --  -10.17611 -10.17534 -10.16827 -10.16254 -10.16173
 Alpha  occ. eigenvalues --   -0.84915  -0.84122  -0.83613  -0.82763  -0.82055
 Alpha  occ. eigenvalues --   -0.81453  -0.78638  -0.78112  -0.77940  -0.76860
 Alpha  occ. eigenvalues --   -0.76415  -0.74483  -0.73637  -0.71999  -0.71136
 Alpha  occ. eigenvalues --   -0.70332  -0.69439  -0.68939  -0.67837  -0.67639
 Alpha  occ. eigenvalues --   -0.67488  -0.66604  -0.66309  -0.65766  -0.65324
 Alpha  occ. eigenvalues --   -0.63090  -0.62137  -0.60370  -0.59353  -0.57348
 Alpha  occ. eigenvalues --   -0.56921  -0.55746  -0.55454  -0.53597  -0.53389
 Alpha  occ. eigenvalues --   -0.52669  -0.51790  -0.49971  -0.49253  -0.48396
 Alpha  occ. eigenvalues --   -0.47910  -0.47179  -0.47015  -0.46562  -0.46047
 Alpha  occ. eigenvalues --   -0.44999  -0.44545  -0.44445  -0.43968  -0.43399
 Alpha  occ. eigenvalues --   -0.43246  -0.43086  -0.42664  -0.42639  -0.42572
 Alpha  occ. eigenvalues --   -0.42226  -0.42064  -0.41452  -0.41327  -0.40942
 Alpha  occ. eigenvalues --   -0.40424  -0.40281  -0.39668  -0.38991  -0.38875
 Alpha  occ. eigenvalues --   -0.38677  -0.38493  -0.38213  -0.38057  -0.37784
 Alpha  occ. eigenvalues --   -0.37397  -0.36996  -0.36812  -0.36474  -0.36288
 Alpha  occ. eigenvalues --   -0.35733  -0.35617  -0.35581  -0.35237  -0.35025
 Alpha  occ. eigenvalues --   -0.34913  -0.34776  -0.34535  -0.34288  -0.33916
 Alpha  occ. eigenvalues --   -0.33498  -0.33108  -0.32850  -0.32082  -0.31971
 Alpha  occ. eigenvalues --   -0.31949  -0.31885  -0.31732  -0.31662  -0.31056
 Alpha  occ. eigenvalues --   -0.30295  -0.29636  -0.29532  -0.28910  -0.28238
 Alpha  occ. eigenvalues --   -0.27662  -0.27132  -0.26223  -0.24141  -0.22428
 Alpha  occ. eigenvalues --   -0.20740  -0.18660  -0.15748
 Alpha virt. eigenvalues --   -0.08799  -0.05013  -0.01800   0.00630   0.02464
 Alpha virt. eigenvalues --    0.04380   0.05983   0.06299   0.06826   0.07178
 Alpha virt. eigenvalues --    0.07494   0.07842   0.08000   0.08209   0.08919

 Mulliken charges:
               1
     1  C   -0.018083
     2  C   -0.005878
     3  C   -0.155099
     4  C   -0.156000
     5  C   -0.203192
     6  C   -0.180555
     7  C    0.074895
     8  C    0.111834
     9  C   -0.213934
    10  C   -0.210448
    11  C    0.074516
    12  C    0.035549
    13  C   -0.309807
    14  C   -0.288404
    15  C   -0.297215
    16  C   -0.295535
    17  C   -0.130326
    18  C   -0.158968
    19  C   -0.361641
    20  C   -0.335369
    21  C   -0.079986
    22  C   -0.084578
    23  C    0.166616
    24  C    0.141288
    25  C   -0.342545
    26  C   -0.395777
    27  C   -0.130115
    28  C   -0.140000
    29  C   -0.116686
    30  C   -0.089388
    31  C   -0.088165
    32  C   -0.109900
    33  C    0.079298
    34  C    0.124127
    35  C   -0.366721
    36  C   -0.386128
    37  C   -0.097436
    38  C   -0.107012
    39  C   -0.092223
    40  C   -0.085926
    41  H    0.082370
    42  H    0.099234
    43  H    0.083966
    44  H    0.066163
    45  H    0.085759
    46  H    0.102433
    47  H    0.084116
    48  H    0.107134
    49  H    0.125233
    50  H    0.071300
    51  H    0.074710
    52  H    0.095882
    53  H    0.103844
    54  H    0.105572
    55  H    0.097412
    56  H    0.061158
    57  H    0.097012
    58  H    0.094797
    59  H    0.098460
    60  H    0.083938
    61  H    0.109245
    62  H    0.102091
    63  H    0.094195
    64  H    0.093212
    65  H    0.073539
    66  H    0.074358
    67  H    0.113485
    68  H    0.099783
    69  H    0.097114
    70  H    0.078232
    71  H    0.127679
    72  H    0.095959
    73  H    0.086062
    74  H    0.088507
    75  H    0.062862
    76  H    0.090495
    77  H    0.117708
    78  H    0.113151
    79  H    0.135497
    80  H    0.103646
    81  H    0.075567
    82  H    0.058478
    83  H    0.080523
    84  H    0.072687
    85  H    0.072694
    86  H    0.086799
    87  H    0.135424
    88  H    0.111966
    89  H    0.111299
    90  H    0.129677
    91  H    0.128135
    92  H    0.095657
    93  H    0.063680
    94  H    0.069949
    95  H    0.076064
    96  H    0.079002
 Sum of Mulliken charges =  -0.00000

 Dipole moment (field-independent basis, Debye):
    X=             -0.3701    Y=             -0.6613    Z=              0.3369  Tot=              0.8294
 Quadrupole moment (field-independent basis, Debye-Ang):
   XX=           -211.0567   YY=           -232.8931   ZZ=           -254.6982
   XY=              2.0037   XZ=              1.9805   YZ=             -0.9752

 Normal termination of Gaussian 16 at Sat Jul 27 09:45:06 2019.
