 Gaussian 16, Revision A.03,
 Gaussian 16:  ES64L-G16RevA.03 25-Dec-2016

 ---------------------------------
 # td=(NStates=1) B3LYP/6-31G(d,p)
 ---------------------------------

 --
 TD
 --
 Symbolic Z-matrix:
 Charge =  0 Multiplicity = 1

                         Standard orientation:
 ---------------------------------------------------------------------
 Center     Atomic      Atomic             Coordinates (Angstroms)
 Number     Number       Type             X           Y           Z
 ---------------------------------------------------------------------
      1          6           0      -12.019276   -0.713973   -0.557801
      2          6           0       12.018229   -0.016740    1.100089
      3          6           0      -13.385625    0.203846   -0.571093
      4          6           0       12.884652   -1.299642    1.446322
      5          6           0      -13.197867    1.682682   -0.520940
      6          6           0       13.258344   -2.144055    0.277158
      7          6           0      -10.999696   -0.059236    0.392058
      8          6           0       10.949356   -0.487954    0.020668
      9          6           0      -12.317310    2.175350    0.710585
     10          6           0       11.954841   -2.742200   -0.441575
     11          6           0      -11.164459    1.150644    0.922200
     12          6           0       10.996692   -1.560485   -0.723117
     13          6           0      -11.484981   -0.649297   -2.059170
     14          6           0      -12.396305   -2.153332   -0.065025
     15          6           0       12.943141    1.036112    0.531163
     16          6           0       11.242903    0.515977    2.347093
     17          6           0       -9.752167   -0.889640    0.570475
     18          6           0        9.819955    0.512592   -0.264934
     19          6           0      -10.255958    1.738924    2.062129
     20          6           0       10.147226   -1.872754   -2.004312
     21          6           0       -8.488412   -0.417081    0.403793
     22          6           0        8.518366    0.345139   -0.341863
     23          6           0       -7.350973   -1.313140    0.470408
     24          6           0        7.482135    1.299576   -0.424784
     25          6           0       -7.486707   -2.776066    0.730830
     26          6           0        7.979074    2.701163   -0.676792
     27          6           0       -6.102917   -0.581701    0.156977
     28          6           0        6.215436    0.940371   -0.306519
     29          6           0       -4.880684   -1.290251    0.073271
     30          6           0        5.055985    1.672610   -0.291472
     31          6           0       -3.606150   -0.605770   -0.069138
     32          6           0        3.752120    1.175914   -0.412892
     33          6           0       -2.406479   -1.191215    0.116619
     34          6           0        2.468433    1.932368   -0.600628
     35          6           0       -2.134010   -2.687270    0.201193
     36          6           0        2.594142    3.377065   -0.719631
     37          6           0       -1.194240   -0.437198   -0.165424
     38          6           0        1.311179    1.246403   -0.508720
     39          6           0       -1.167558    0.965505   -0.517984
     40          6           0       -0.062478    1.684617   -0.594379
     41          1           0      -13.950159   -0.069046    0.265579
     42          1           0      -14.036730   -0.179672   -1.210207
     43          1           0       12.542720   -2.128464    2.250944
     44          1           0       13.816611   -0.909518    1.898339
     45          1           0      -14.164199    2.073419   -0.539892
     46          1           0      -12.687068    1.827684   -1.310981
     47          1           0       13.829233   -2.960978    0.629164
     48          1           0       13.830715   -1.620880   -0.469140
     49          1           0      -12.824716    1.955146    1.745436
     50          1           0      -11.821052    3.122379    0.421167
     51          1           0       11.535304   -3.629806   -0.030264
     52          1           0       12.564901   -3.210477   -1.298251
     53          1           0      -11.034547    0.440876   -2.386230
     54          1           0      -12.316269   -1.012955   -2.680937
     55          1           0      -10.661048   -1.540038   -2.094158
     56          1           0      -12.698239   -1.963854    1.041227
     57          1           0      -11.654990   -2.975029   -0.082339
     58          1           0      -13.145738   -2.791064   -0.671499
     59          1           0       13.567490    0.692412   -0.311337
     60          1           0       13.557748    1.599982    1.232650
     61          1           0       12.311973    1.851387    0.225819
     62          1           0       10.455929   -0.093457    2.647346
     63          1           0       10.848103    1.530890    2.399353
     64          1           0       12.051164    0.707862    3.189717
     65          1           0      -10.016676   -1.861685    0.770530
     66          1           0       10.331816    1.456691   -0.425756
     67          1           0       -9.455042    1.111839    2.336257
     68          1           0      -10.813155    1.791034    3.200728
     69          1           0       -9.857993    2.827289    1.821867
     70          1           0        9.455830   -0.977952   -2.271877
     71          1           0        9.410414   -2.734461   -1.765819
     72          1           0       10.729181   -2.087895   -2.913739
     73          1           0       -8.396358    0.574050    0.000440
     74          1           0        8.298225   -0.749257   -0.255104
     75          1           0       -8.296289   -2.862903    1.552236
     76          1           0       -6.426821   -3.195128    0.981062
     77          1           0       -7.960525   -3.506983   -0.083846
     78          1           0        8.419807    2.731174   -1.493483
     79          1           0        8.676732    3.047249    0.090069
     80          1           0        7.109887    3.532971   -0.608382
     81          1           0       -6.274605    0.392892   -0.098590
     82          1           0        6.118868   -0.145679   -0.090721
     83          1           0       -4.754087   -2.353372    0.288744
     84          1           0        5.290958    2.849455   -0.338292
     85          1           0       -3.850664    0.564115   -0.028420
     86          1           0        3.537795    0.008049   -0.395383
     87          1           0       -2.593845   -3.043620    1.352294
     88          1           0       -1.049177   -2.740037    0.137116
     89          1           0       -2.819953   -3.118136   -0.694601
     90          1           0        2.844075    3.439044   -1.761854
     91          1           0        3.423390    3.842164   -0.062399
     92          1           0        1.524224    3.855437   -0.467624
     93          1           0       -0.118965   -0.973487   -0.129488
     94          1           0        1.361187    0.279029   -0.525267
     95          1           0       -1.998010    1.591474   -0.639989
     96          1           0       -0.195119    2.932680   -0.511235
 ---------------------------------------------------------------------

 SCF Done:  E(RB3LYP) =  -1557.52458523     A.U. after   16 cycles

 Excitation energies and oscillator strengths:

 Excited State   1:      Singlet-A      2.0203 eV  613.69 nm  f=2.9307  <S**2>=0.000
     148 ->149         0.70522
     148 ->150        -0.11193
     148 <-149        -0.14224
 This state for optimization and/or second-order correction.
 Total Energy, E(TD-HF/TD-DFT) =  -1557.45034006
 Copying the excited state density for this state as the 1-particle RhoCI density.

 The electronic state is 1-A.
 Alpha  occ. eigenvalues --  -10.21296 -10.21266 -10.20964 -10.20862 -10.20817
 Alpha  occ. eigenvalues --  -10.20651 -10.20611 -10.20041 -10.19934 -10.19908
 Alpha  occ. eigenvalues --  -10.19657 -10.19639 -10.19620 -10.19508 -10.19402
 Alpha  occ. eigenvalues --  -10.19327 -10.19267 -10.19152 -10.19107 -10.19025
 Alpha  occ. eigenvalues --  -10.18979 -10.18915 -10.18509 -10.18493 -10.18402
 Alpha  occ. eigenvalues --  -10.18253 -10.18243 -10.18137 -10.18079 -10.17983
 Alpha  occ. eigenvalues --  -10.17836 -10.17799 -10.17786 -10.17451 -10.17425
 Alpha  occ. eigenvalues --  -10.17303 -10.17108 -10.17015 -10.15878 -10.15637
 Alpha  occ. eigenvalues --   -0.84539  -0.84036  -0.83660  -0.83182  -0.82384
 Alpha  occ. eigenvalues --   -0.81339  -0.78999  -0.77908  -0.77372  -0.77066
 Alpha  occ. eigenvalues --   -0.76693  -0.75255  -0.74486  -0.71908  -0.71306
 Alpha  occ. eigenvalues --   -0.70043  -0.69109  -0.68480  -0.68119  -0.67321
 Alpha  occ. eigenvalues --   -0.67211  -0.66554  -0.66385  -0.66138  -0.65562
 Alpha  occ. eigenvalues --   -0.62822  -0.62051  -0.59964  -0.59038  -0.57328
 Alpha  occ. eigenvalues --   -0.56934  -0.55600  -0.55496  -0.53108  -0.52964
 Alpha  occ. eigenvalues --   -0.52205  -0.51702  -0.50433  -0.49455  -0.48497
 Alpha  occ. eigenvalues --   -0.48151  -0.47524  -0.46824  -0.46228  -0.45777
 Alpha  occ. eigenvalues --   -0.45345  -0.44931  -0.44668  -0.44437  -0.44095
 Alpha  occ. eigenvalues --   -0.43491  -0.43073  -0.42877  -0.42685  -0.42432
 Alpha  occ. eigenvalues --   -0.42365  -0.41710  -0.40995  -0.40603  -0.40517
 Alpha  occ. eigenvalues --   -0.40175  -0.40057  -0.39748  -0.39564  -0.39079
 Alpha  occ. eigenvalues --   -0.38767  -0.38573  -0.38502  -0.38069  -0.37817
 Alpha  occ. eigenvalues --   -0.37721  -0.37296  -0.37096  -0.36709  -0.36472
 Alpha  occ. eigenvalues --   -0.36380  -0.36065  -0.35801  -0.35509  -0.35287
 Alpha  occ. eigenvalues --   -0.34807  -0.34641  -0.34252  -0.33893  -0.33722
 Alpha  occ. eigenvalues --   -0.33431  -0.33404  -0.32914  -0.32831  -0.32310
 Alpha  occ. eigenvalues --   -0.31935  -0.31875  -0.31571  -0.31092  -0.30796
 Alpha  occ. eigenvalues --   -0.30534  -0.30305  -0.29511  -0.29043  -0.28222
 Alpha  occ. eigenvalues --   -0.27152  -0.26867  -0.26198  -0.24155  -0.23014
 Alpha  occ. eigenvalues --   -0.21744  -0.18889  -0.15725
 Alpha virt. eigenvalues --   -0.08662  -0.05321  -0.01180   0.01171   0.02748
 Alpha virt. eigenvalues --    0.03987   0.05939   0.06160   0.06610   0.06889
 Alpha virt. eigenvalues --    0.07195   0.07669   0.08192   0.08425   0.08523

 Mulliken charges:
               1
     1  C   -0.008488
     2  C    0.020680
     3  C   -0.180602
     4  C   -0.159742
     5  C   -0.177959
     6  C   -0.196083
     7  C    0.065359
     8  C    0.043995
     9  C   -0.205796
    10  C   -0.228613
    11  C    0.015009
    12  C    0.061554
    13  C   -0.280936
    14  C   -0.323094
    15  C   -0.311727
    16  C   -0.309237
    17  C   -0.128275
    18  C   -0.139493
    19  C   -0.335122
    20  C   -0.354211
    21  C   -0.079955
    22  C   -0.089916
    23  C    0.112352
    24  C    0.135735
    25  C   -0.366095
    26  C   -0.361093
    27  C   -0.106199
    28  C   -0.105584
    29  C   -0.102628
    30  C   -0.096357
    31  C   -0.105927
    32  C   -0.120435
    33  C    0.106933
    34  C    0.123947
    35  C   -0.338526
    36  C   -0.363563
    37  C   -0.146163
    38  C   -0.079673
    39  C   -0.042639
    40  C   -0.113408
    41  H    0.081903
    42  H    0.088242
    43  H    0.069514
    44  H    0.080223
    45  H    0.093988
    46  H    0.108232
    47  H    0.091812
    48  H    0.099403
    49  H    0.109423
    50  H    0.109827
    51  H    0.110472
    52  H    0.081743
    53  H    0.090762
    54  H    0.104718
    55  H    0.079770
    56  H    0.105393
    57  H    0.100766
    58  H    0.090471
    59  H    0.108119
    60  H    0.105442
    61  H    0.104244
    62  H    0.121121
    63  H    0.101842
    64  H    0.073472
    65  H    0.078711
    66  H    0.073343
    67  H    0.124529
    68  H    0.064857
    69  H    0.088343
    70  H    0.100538
    71  H    0.098506
    72  H    0.113682
    73  H    0.091299
    74  H    0.076967
    75  H    0.114892
    76  H    0.107347
    77  H    0.112340
    78  H    0.138798
    79  H    0.118667
    80  H    0.076873
    81  H    0.083754
    82  H    0.070885
    83  H    0.081992
    84  H    0.065934
    85  H    0.077531
    86  H    0.069316
    87  H    0.078944
    88  H    0.122068
    89  H    0.115792
    90  H    0.139757
    91  H    0.114008
    92  H    0.093455
    93  H    0.079883
    94  H    0.053018
    95  H    0.086396
    96  H    0.048646
 Sum of Mulliken charges =  -0.00000

 Dipole moment (field-independent basis, Debye):
    X=             -0.4507    Y=             -0.1693    Z=             -0.3595  Tot=              0.6008
 Quadrupole moment (field-independent basis, Debye-Ang):
   XX=           -210.1776   YY=           -235.6210   ZZ=           -257.2487
   XY=              8.4895   XZ=              1.5230   YZ=             -1.3800

 Normal termination of Gaussian 16 at Sat Jul 27 21:42:32 2019.
