 Gaussian 16, Revision A.03,
 Gaussian 16:  ES64L-G16RevA.03 25-Dec-2016

 ---------------------------------
 # td=(NStates=1) B3LYP/6-31G(d,p)
 ---------------------------------

 --
 TD
 --
 Symbolic Z-matrix:
 Charge =  0 Multiplicity = 1

                         Standard orientation:
 ---------------------------------------------------------------------
 Center     Atomic      Atomic             Coordinates (Angstroms)
 Number     Number       Type             X           Y           Z
 ---------------------------------------------------------------------
      1          6           0      -12.189042   -0.620977   -0.696625
      2          6           0       12.023211    0.024349    0.811824
      3          6           0      -13.455472    0.093689   -0.633713
      4          6           0       13.037959   -1.127628    1.204595
      5          6           0      -13.186870    1.635522   -0.650209
      6          6           0       13.424816   -2.079830   -0.008249
      7          6           0      -11.079293   -0.034147    0.143954
      8          6           0       10.971351   -0.495409   -0.168076
      9          6           0      -12.291377    2.085457    0.458505
     10          6           0       12.147212   -2.634348   -0.619628
     11          6           0      -11.019458    1.173579    0.741387
     12          6           0       11.020700   -1.581955   -0.910199
     13          6           0      -11.607119   -0.557732   -2.223948
     14          6           0      -12.489089   -2.187633   -0.290462
     15          6           0       12.985523    1.051737    0.185179
     16          6           0       11.444317    0.500925    2.111577
     17          6           0       -9.790463   -0.896578    0.312522
     18          6           0        9.965243    0.537507   -0.332379
     19          6           0      -10.222677    1.786626    1.872587
     20          6           0        9.976983   -2.113498   -1.808921
     21          6           0       -8.516592   -0.411690    0.233596
     22          6           0        8.595187    0.385052   -0.232966
     23          6           0       -7.442208   -1.294046    0.376131
     24          6           0        7.505858    1.287544   -0.415367
     25          6           0       -7.661934   -2.719640    0.844119
     26          6           0        7.868960    2.673148   -0.436395
     27          6           0       -6.177248   -0.736860    0.306008
     28          6           0        6.140130    0.872891   -0.294921
     29          6           0       -4.880118   -1.297933    0.547149
     30          6           0        4.995078    1.626579   -0.359152
     31          6           0       -3.693249   -0.547219    0.313243
     32          6           0        3.749737    1.151372   -0.378455
     33          6           0       -2.360267   -1.140045    0.340005
     34          6           0        2.449891    1.877228   -0.411332
     35          6           0       -2.218837   -2.522467    0.859301
     36          6           0        2.545980    3.359418   -0.565370
     37          6           0       -1.267509   -0.394088    0.087316
     38          6           0        1.370732    1.153682   -0.148438
     39          6           0       -1.069358    0.935804   -0.085857
     40          6           0        0.103353    1.668767   -0.228433
     41          1           0      -13.910842   -0.231911    0.206506
     42          1           0      -13.920895   -0.187174   -1.533229
     43          1           0       12.241286   -1.944646    2.018504
     44          1           0       13.903015   -0.803578    1.935137
     45          1           0      -14.331734    2.157985   -0.571424
     46          1           0      -12.881516    2.089018   -1.621288
     47          1           0       13.980750   -3.173426    0.369626
     48          1           0       13.931691   -1.510124   -0.766884
     49          1           0      -13.047084    1.996795    1.341409
     50          1           0      -11.927288    2.958402    0.350671
     51          1           0       11.594907   -3.519260   -0.027344
     52          1           0       12.480387   -3.252540   -1.632626
     53          1           0      -11.487247    0.407233   -2.503487
     54          1           0      -12.184820   -1.081155   -2.946543
     55          1           0      -10.612266   -1.106135   -2.362117
     56          1           0      -12.681603   -2.091662    0.828834
     57          1           0      -11.463228   -2.687694   -0.621260
     58          1           0      -13.292908   -2.495620   -0.932077
     59          1           0       13.560009    0.652207   -0.686998
     60          1           0       13.925938    1.248127    0.555922
     61          1           0       12.433022    2.097053   -0.026562
     62          1           0       10.960116   -0.282046    2.625729
     63          1           0       10.634114    1.325215    2.063933
     64          1           0       12.109369    0.747014    2.847835
     65          1           0       -9.884759   -1.973318    0.484752
     66          1           0       10.290286    1.550658   -0.478984
     67          1           0       -9.493951    1.004628    2.263808
     68          1           0      -10.750129    2.088074    2.688086
     69          1           0       -9.602506    2.512266    1.465331
     70          1           0        9.254326   -1.332760   -2.280194
     71          1           0        9.373700   -2.903077   -1.287831
     72          1           0       10.465405   -2.432091   -2.636787
     73          1           0       -8.398167    0.546044   -0.072250
     74          1           0        8.334013   -0.730337   -0.104064
     75          1           0       -8.248377   -2.704081    1.942625
     76          1           0       -6.909392   -3.514390    0.687939
     77          1           0       -8.405871   -3.283891    0.207751
     78          1           0        8.655651    3.075525   -1.276723
     79          1           0        8.634758    3.047494    0.436495
     80          1           0        7.179680    3.423473   -0.732754
     81          1           0       -5.737516    0.464810   -0.014498
     82          1           0        6.044819   -0.240940   -0.230154
     83          1           0       -4.667596   -2.216777    1.106460
     84          1           0        5.245469    2.755513   -0.387625
     85          1           0       -3.662992    0.361632   -0.272071
     86          1           0        3.494075    0.023347   -0.172296
     87          1           0       -2.652879   -2.717685    1.868765
     88          1           0       -1.036457   -2.871202    0.839062
     89          1           0       -2.659664   -3.275354    0.053051
     90          1           0        2.994700    3.722033   -1.648281
     91          1           0        3.207335    3.921867    0.031813
     92          1           0        1.543723    3.936936   -0.211763
     93          1           0       -0.250161   -0.906797    0.092558
     94          1           0        1.549802   -0.047452    0.099557
     95          1           0       -2.012450    1.749632   -0.092898
     96          1           0       -0.132304    2.731216   -0.380554
 ---------------------------------------------------------------------

 SCF Done:  E(RB3LYP) =  -1557.48284821     A.U. after   16 cycles

 Excitation energies and oscillator strengths:

 Excited State   1:      Singlet-A      2.0582 eV  602.39 nm  f=3.2744  <S**2>=0.000
     148 ->149         0.71246
     148 <-149        -0.12112
 This state for optimization and/or second-order correction.
 Total Energy, E(TD-HF/TD-DFT) =  -1557.40720998
 Copying the excited state density for this state as the 1-particle RhoCI density.

 The electronic state is 1-A.
 Alpha  occ. eigenvalues --  -10.21485 -10.20708 -10.20652 -10.20563 -10.20550
 Alpha  occ. eigenvalues --  -10.20527 -10.20387 -10.20327 -10.20291 -10.20125
 Alpha  occ. eigenvalues --  -10.20101 -10.19890 -10.19802 -10.19680 -10.19613
 Alpha  occ. eigenvalues --  -10.19548 -10.19538 -10.19434 -10.19185 -10.19165
 Alpha  occ. eigenvalues --  -10.19099 -10.18950 -10.18919 -10.18912 -10.18908
 Alpha  occ. eigenvalues --  -10.18766 -10.18691 -10.18498 -10.18370 -10.18233
 Alpha  occ. eigenvalues --  -10.18149 -10.18104 -10.17932 -10.17449 -10.17160
 Alpha  occ. eigenvalues --  -10.17079 -10.16796 -10.16283 -10.16207 -10.16031
 Alpha  occ. eigenvalues --   -0.85146  -0.84775  -0.84331  -0.83235  -0.82562
 Alpha  occ. eigenvalues --   -0.81942  -0.79071  -0.78703  -0.78232  -0.77236
 Alpha  occ. eigenvalues --   -0.76231  -0.75344  -0.74250  -0.72145  -0.71424
 Alpha  occ. eigenvalues --   -0.70249  -0.69337  -0.69032  -0.68280  -0.68080
 Alpha  occ. eigenvalues --   -0.67951  -0.67414  -0.66946  -0.66193  -0.64751
 Alpha  occ. eigenvalues --   -0.62934  -0.61873  -0.59228  -0.58386  -0.57852
 Alpha  occ. eigenvalues --   -0.56833  -0.56380  -0.55223  -0.53590  -0.52748
 Alpha  occ. eigenvalues --   -0.52439  -0.51935  -0.50302  -0.49534  -0.49066
 Alpha  occ. eigenvalues --   -0.48677  -0.47855  -0.46583  -0.46391  -0.45579
 Alpha  occ. eigenvalues --   -0.44994  -0.44941  -0.44496  -0.44102  -0.43851
 Alpha  occ. eigenvalues --   -0.43512  -0.43484  -0.43119  -0.42534  -0.42366
 Alpha  occ. eigenvalues --   -0.42335  -0.41926  -0.41713  -0.41217  -0.40786
 Alpha  occ. eigenvalues --   -0.40410  -0.40098  -0.39725  -0.39593  -0.39440
 Alpha  occ. eigenvalues --   -0.38758  -0.38658  -0.38613  -0.38233  -0.37965
 Alpha  occ. eigenvalues --   -0.37678  -0.37489  -0.36853  -0.36401  -0.36029
 Alpha  occ. eigenvalues --   -0.35884  -0.35800  -0.35385  -0.35327  -0.34964
 Alpha  occ. eigenvalues --   -0.34787  -0.34519  -0.34197  -0.33539  -0.33528
 Alpha  occ. eigenvalues --   -0.33381  -0.32969  -0.32885  -0.32628  -0.32467
 Alpha  occ. eigenvalues --   -0.32407  -0.31617  -0.31247  -0.30813  -0.30720
 Alpha  occ. eigenvalues --   -0.30483  -0.30166  -0.29182  -0.28886  -0.27655
 Alpha  occ. eigenvalues --   -0.27598  -0.27045  -0.26471  -0.23967  -0.23164
 Alpha  occ. eigenvalues --   -0.21339  -0.18799  -0.16123
 Alpha virt. eigenvalues --   -0.08668  -0.05338  -0.01889   0.01273   0.02171
 Alpha virt. eigenvalues --    0.04151   0.04963   0.05406   0.06038   0.06609
 Alpha virt. eigenvalues --    0.06654   0.07520   0.07716   0.08071   0.08140

 Mulliken charges:
               1
     1  C   -0.031460
     2  C    0.000377
     3  C   -0.137251
     4  C   -0.155447
     5  C   -0.205031
     6  C   -0.165325
     7  C    0.085732
     8  C    0.098407
     9  C   -0.179018
    10  C   -0.193973
    11  C    0.012806
    12  C    0.057604
    13  C   -0.319836
    14  C   -0.307166
    15  C   -0.289521
    16  C   -0.296410
    17  C   -0.150753
    18  C   -0.132732
    19  C   -0.356245
    20  C   -0.355807
    21  C   -0.049909
    22  C   -0.112245
    23  C    0.104641
    24  C    0.159139
    25  C   -0.376436
    26  C   -0.394874
    27  C   -0.113816
    28  C   -0.110957
    29  C   -0.071983
    30  C   -0.068214
    31  C   -0.127291
    32  C   -0.125315
    33  C    0.133434
    34  C    0.173656
    35  C   -0.376329
    36  C   -0.374859
    37  C   -0.118439
    38  C   -0.118568
    39  C   -0.072950
    40  C   -0.099629
    41  H    0.096869
    42  H    0.098014
    43  H    0.006028
    44  H    0.087529
    45  H    0.043375
    46  H    0.094287
    47  H    0.069514
    48  H    0.113631
    49  H    0.085940
    50  H    0.100714
    51  H    0.091954
    52  H    0.062241
    53  H    0.116091
    54  H    0.093608
    55  H    0.092130
    56  H    0.105770
    57  H    0.094790
    58  H    0.111912
    59  H    0.086168
    60  H    0.110814
    61  H    0.080062
    62  H    0.109600
    63  H    0.089209
    64  H    0.106966
    65  H    0.075011
    66  H    0.079387
    67  H    0.107509
    68  H    0.126250
    69  H    0.125259
    70  H    0.106716
    71  H    0.116440
    72  H    0.119817
    73  H    0.081997
    74  H    0.063589
    75  H    0.106286
    76  H    0.115262
    77  H    0.114642
    78  H    0.083540
    79  H    0.106519
    80  H    0.114241
    81  H    0.057533
    82  H    0.072444
    83  H    0.083298
    84  H    0.075968
    85  H    0.086559
    86  H    0.065663
    87  H    0.131360
    88  H    0.081143
    89  H    0.105650
    90  H    0.098995
    91  H    0.137718
    92  H    0.088965
    93  H    0.067293
    94  H    0.080906
    95  H    0.048519
    96  H    0.090302
 Sum of Mulliken charges =  -0.00000

 Dipole moment (field-independent basis, Debye):
    X=             -0.3219    Y=              0.0325    Z=              0.0251  Tot=              0.3245
 Quadrupole moment (field-independent basis, Debye-Ang):
   XX=           -220.7893   YY=           -234.6891   ZZ=           -254.9234
   XY=              6.7921   XZ=             -4.0946   YZ=             -0.8836

 Normal termination of Gaussian 16 at Sat Jul 27 08:43:56 2019.
