 Gaussian 16, Revision A.03,
 Gaussian 16:  ES64L-G16RevA.03 25-Dec-2016

 ---------------------------------
 # td=(NStates=1) B3LYP/6-31G(d,p)
 ---------------------------------

 --
 TD
 --
 Symbolic Z-matrix:
 Charge =  0 Multiplicity = 1

                         Standard orientation:
 ---------------------------------------------------------------------
 Center     Atomic      Atomic             Coordinates (Angstroms)
 Number     Number       Type             X           Y           Z
 ---------------------------------------------------------------------
      1          6           0      -12.219073   -0.538838   -0.651887
      2          6           0       12.097811    0.041270    1.095338
      3          6           0      -13.477982    0.227095   -0.478799
      4          6           0       12.960028   -1.133174    1.516162
      5          6           0      -13.326287    1.740796   -0.505605
      6          6           0       13.459099   -1.823223    0.143852
      7          6           0      -11.027316    0.017170    0.372392
      8          6           0       11.060784   -0.426414   -0.041896
      9          6           0      -12.300258    2.247648    0.570724
     10          6           0       12.337616   -2.450694   -0.666362
     11          6           0      -11.177743    1.271566    0.884537
     12          6           0       11.166691   -1.436219   -0.789823
     13          6           0      -11.685422   -0.579207   -2.096310
     14          6           0      -12.462746   -2.038231   -0.218344
     15          6           0       12.839164    1.245142    0.537736
     16          6           0       11.180319    0.335131    2.364013
     17          6           0       -9.852174   -0.792733    0.482990
     18          6           0        9.832223    0.635943   -0.129333
     19          6           0      -10.177844    1.719792    1.942709
     20          6           0       10.314555   -1.760526   -1.942043
     21          6           0       -8.518200   -0.478625    0.181824
     22          6           0        8.590502    0.303096   -0.349704
     23          6           0       -7.324605   -1.313859    0.355933
     24          6           0        7.489970    1.217078   -0.526980
     25          6           0       -7.610417   -2.698613    0.710874
     26          6           0        7.872821    2.655504   -0.637664
     27          6           0       -6.174089   -0.717202    0.231618
     28          6           0        6.199320    0.680840   -0.478423
     29          6           0       -4.875504   -1.331062    0.356543
     30          6           0        5.015706    1.546145   -0.547341
     31          6           0       -3.655308   -0.705834    0.162323
     32          6           0        3.840095    1.014671   -0.460574
     33          6           0       -2.408082   -1.326796    0.128662
     34          6           0        2.460049    1.749516   -0.489523
     35          6           0       -2.239182   -2.848553    0.369698
     36          6           0        2.535836    3.234342   -0.683807
     37          6           0       -1.154597   -0.543356    0.048851
     38          6           0        1.335430    0.978997   -0.355581
     39          6           0       -1.107737    0.806763   -0.132443
     40          6           0        0.006742    1.559770   -0.396455
     41          1           0      -14.027829    0.168579    0.529013
     42          1           0      -14.146221   -0.319439   -1.250726
     43          1           0       12.363001   -1.859171    2.049537
     44          1           0       13.837023   -0.748272    2.184338
     45          1           0      -14.301938    2.198840   -0.531023
     46          1           0      -12.708358    1.872232   -1.553610
     47          1           0       14.209345   -2.748347    0.185626
     48          1           0       14.208465   -1.190959   -0.405839
     49          1           0      -12.816952    2.417714    1.645443
     50          1           0      -12.112792    3.258707    0.397632
     51          1           0       12.074992   -3.487319   -0.133753
     52          1           0       12.574303   -2.796435   -1.676257
     53          1           0      -11.316285    0.433587   -2.310884
     54          1           0      -12.531806   -1.041669   -2.643242
     55          1           0      -10.747370   -0.953851   -2.107443
     56          1           0      -12.748362   -2.196813    0.865718
     57          1           0      -11.745105   -2.699037   -0.471927
     58          1           0      -13.376562   -2.262321   -0.703186
     59          1           0       13.310008    0.933471   -0.459252
     60          1           0       13.780101    1.403942    1.052067
     61          1           0       12.278687    2.350534    0.449953
     62          1           0       10.621652   -0.712240    2.698112
     63          1           0       10.615926    1.151491    2.066190
     64          1           0       11.761099    0.419220    3.433245
     65          1           0      -10.021301   -1.836287    0.803987
     66          1           0       10.004044    1.615135   -0.232974
     67          1           0       -9.363647    0.977082    2.187639
     68          1           0      -10.916581    1.899595    2.768604
     69          1           0       -9.428444    2.724853    1.611326
     70          1           0        9.717459   -0.946706   -2.394196
     71          1           0        9.590970   -2.707899   -1.876655
     72          1           0       10.955634   -2.067016   -2.966227
     73          1           0       -8.606722    0.626263    0.052441
     74          1           0        8.313083   -0.668620   -0.089948
     75          1           0       -8.185910   -2.801636    1.597765
     76          1           0       -6.876262   -3.328555    0.775224
     77          1           0       -8.163036   -3.237566   -0.256158
     78          1           0        8.418528    2.867962   -1.618209
     79          1           0        8.512411    3.018802    0.086289
     80          1           0        7.061132    3.370946   -0.655466
     81          1           0       -6.047597    0.370073   -0.157682
     82          1           0        6.087221   -0.350390   -0.295021
     83          1           0       -4.914672   -2.319567    0.610760
     84          1           0        5.247613    2.469313   -0.771452
     85          1           0       -3.709863    0.474058   -0.272137
     86          1           0        3.774253   -0.002404   -0.308165
     87          1           0       -2.715957   -2.880126    1.387280
     88          1           0       -1.180556   -3.160448    0.378013
     89          1           0       -2.829082   -3.306813   -0.269213
     90          1           0        3.270401    3.556736   -1.581993
     91          1           0        3.092966    3.583451    0.258675
     92          1           0        1.612523    3.839322   -0.697109
     93          1           0       -0.256211   -1.088999   -0.022048
     94          1           0        1.528958    0.057577    0.078218
     95          1           0       -2.058577    1.281376   -0.074507
     96          1           0        0.111033    2.667360   -0.634067
 ---------------------------------------------------------------------

 SCF Done:  E(RB3LYP) =  -1557.54551518     A.U. after   16 cycles

 Excitation energies and oscillator strengths:

 Excited State   1:      Singlet-A      2.2627 eV  547.94 nm  f=2.9450  <S**2>=0.000
     148 ->149         0.70224
     148 <-149        -0.11863
 This state for optimization and/or second-order correction.
 Total Energy, E(TD-HF/TD-DFT) =  -1557.46236172
 Copying the excited state density for this state as the 1-particle RhoCI density.

 The electronic state is 1-A.
 Alpha  occ. eigenvalues --  -10.20681 -10.20597 -10.20474 -10.20244 -10.20236
 Alpha  occ. eigenvalues --  -10.19868 -10.19797 -10.19724 -10.19638 -10.19398
 Alpha  occ. eigenvalues --  -10.19352 -10.19344 -10.19283 -10.19172 -10.19154
 Alpha  occ. eigenvalues --  -10.19108 -10.19102 -10.19055 -10.18951 -10.18869
 Alpha  occ. eigenvalues --  -10.18831 -10.18711 -10.18612 -10.18547 -10.18503
 Alpha  occ. eigenvalues --  -10.18434 -10.18346 -10.18290 -10.18242 -10.18165
 Alpha  occ. eigenvalues --  -10.18061 -10.18059 -10.17945 -10.17866 -10.17797
 Alpha  occ. eigenvalues --  -10.17203 -10.17115 -10.16663 -10.16468 -10.15876
 Alpha  occ. eigenvalues --   -0.84611  -0.84428  -0.83712  -0.83384  -0.82647
 Alpha  occ. eigenvalues --   -0.81429  -0.79361  -0.78502  -0.78224  -0.77277
 Alpha  occ. eigenvalues --   -0.76577  -0.74950  -0.74279  -0.72094  -0.72008
 Alpha  occ. eigenvalues --   -0.70395  -0.69733  -0.69039  -0.68651  -0.67692
 Alpha  occ. eigenvalues --   -0.67414  -0.66848  -0.66524  -0.66019  -0.65834
 Alpha  occ. eigenvalues --   -0.62976  -0.61366  -0.59794  -0.58598  -0.57171
 Alpha  occ. eigenvalues --   -0.56588  -0.55910  -0.54942  -0.53882  -0.53319
 Alpha  occ. eigenvalues --   -0.52883  -0.52450  -0.51297  -0.49959  -0.49048
 Alpha  occ. eigenvalues --   -0.48281  -0.48119  -0.47517  -0.46716  -0.46212
 Alpha  occ. eigenvalues --   -0.45680  -0.45187  -0.44919  -0.44592  -0.43708
 Alpha  occ. eigenvalues --   -0.43293  -0.43201  -0.42880  -0.42625  -0.42527
 Alpha  occ. eigenvalues --   -0.42264  -0.42220  -0.41645  -0.41159  -0.40999
 Alpha  occ. eigenvalues --   -0.40467  -0.40223  -0.40130  -0.39990  -0.39561
 Alpha  occ. eigenvalues --   -0.39209  -0.38747  -0.38609  -0.38473  -0.38239
 Alpha  occ. eigenvalues --   -0.37765  -0.37240  -0.37100  -0.36937  -0.36393
 Alpha  occ. eigenvalues --   -0.36194  -0.36110  -0.35954  -0.35648  -0.35372
 Alpha  occ. eigenvalues --   -0.34864  -0.34602  -0.34364  -0.34204  -0.33910
 Alpha  occ. eigenvalues --   -0.33738  -0.33381  -0.33026  -0.32692  -0.32414
 Alpha  occ. eigenvalues --   -0.32268  -0.32208  -0.31880  -0.31310  -0.31224
 Alpha  occ. eigenvalues --   -0.30308  -0.29346  -0.29002  -0.28675  -0.27872
 Alpha  occ. eigenvalues --   -0.27506  -0.26795  -0.25703  -0.24316  -0.23293
 Alpha  occ. eigenvalues --   -0.21109  -0.19585  -0.16303
 Alpha virt. eigenvalues --   -0.08092  -0.04336  -0.01649   0.00999   0.03288
 Alpha virt. eigenvalues --    0.04132   0.06040   0.06885   0.07214   0.07323
 Alpha virt. eigenvalues --    0.07509   0.08264   0.08514   0.08725   0.08908

 Mulliken charges:
               1
     1  C   -0.010256
     2  C    0.015620
     3  C   -0.148455
     4  C   -0.169590
     5  C   -0.189704
     6  C   -0.197964
     7  C    0.054295
     8  C    0.061199
     9  C   -0.209576
    10  C   -0.203829
    11  C    0.061700
    12  C    0.102529
    13  C   -0.282970
    14  C   -0.304023
    15  C   -0.300991
    16  C   -0.278188
    17  C   -0.161070
    18  C   -0.145038
    19  C   -0.336247
    20  C   -0.364369
    21  C   -0.102281
    22  C   -0.071630
    23  C    0.129524
    24  C    0.118480
    25  C   -0.360163
    26  C   -0.398805
    27  C   -0.109643
    28  C   -0.137937
    29  C   -0.093114
    30  C   -0.024323
    31  C   -0.101474
    32  C   -0.111808
    33  C    0.057942
    34  C    0.101539
    35  C   -0.355489
    36  C   -0.378056
    37  C   -0.103193
    38  C   -0.102307
    39  C   -0.062579
    40  C   -0.107492
    41  H    0.083621
    42  H    0.069915
    43  H    0.104835
    44  H    0.083515
    45  H    0.100023
    46  H    0.070943
    47  H    0.057145
    48  H    0.094356
    49  H    0.066771
    50  H    0.125615
    51  H    0.085792
    52  H    0.103355
    53  H    0.098347
    54  H    0.098462
    55  H    0.118898
    56  H    0.091446
    57  H    0.110217
    58  H    0.088501
    59  H    0.106470
    60  H    0.104088
    61  H    0.083403
    62  H    0.080009
    63  H    0.112360
    64  H    0.071288
    65  H    0.074849
    66  H    0.074417
    67  H    0.122373
    68  H    0.104526
    69  H    0.060490
    70  H    0.121207
    71  H    0.094207
    72  H    0.063170
    73  H    0.080728
    74  H    0.075011
    75  H    0.132956
    76  H    0.116202
    77  H    0.092615
    78  H    0.114770
    79  H    0.134124
    80  H    0.107373
    81  H    0.075381
    82  H    0.077856
    83  H    0.069985
    84  H    0.060259
    85  H    0.067776
    86  H    0.069332
    87  H    0.122119
    88  H    0.111294
    89  H    0.133312
    90  H    0.104978
    91  H    0.122405
    92  H    0.115750
    93  H    0.073898
    94  H    0.083781
    95  H    0.073322
    96  H    0.079896
 Sum of Mulliken charges =  -0.00000

 Dipole moment (field-independent basis, Debye):
    X=              0.3727    Y=             -0.0761    Z=              0.2094  Tot=              0.4342
 Quadrupole moment (field-independent basis, Debye-Ang):
   XX=           -233.5040   YY=           -233.0780   ZZ=           -256.6911
   XY=              7.8554   XZ=             -1.7303   YZ=             -2.7603

 Normal termination of Gaussian 16 at Thu Aug  1 18:35:45 2019.
