 Gaussian 16, Revision A.03,
 Gaussian 16:  ES64L-G16RevA.03 25-Dec-2016

 ---------------------------------
 # td=(NStates=1) B3LYP/6-31G(d,p)
 ---------------------------------

 --
 TD
 --
 Symbolic Z-matrix:
 Charge =  0 Multiplicity = 1

                         Standard orientation:
 ---------------------------------------------------------------------
 Center     Atomic      Atomic             Coordinates (Angstroms)
 Number     Number       Type             X           Y           Z
 ---------------------------------------------------------------------
      1          6           0       12.099586    0.455602   -0.691224
      2          6           0      -12.097201   -0.000481    0.842319
      3          6           0       13.337932   -0.340484   -0.722797
      4          6           0      -12.987715    1.225520    1.306123
      5          6           0       12.946923   -1.874774   -0.754073
      6          6           0      -13.359496    1.932888    0.034007
      7          6           0       10.997205   -0.039494    0.247087
      8          6           0      -10.906452    0.450537   -0.131695
      9          6           0       12.195599   -2.213655    0.595424
     10          6           0      -12.189370    2.555584   -0.649100
     11          6           0       11.103951   -1.232423    0.838766
     12          6           0      -11.022898    1.541356   -0.816106
     13          6           0       11.524564    0.466357   -2.127390
     14          6           0       12.617503    1.924874   -0.384821
     15          6           0      -12.881127   -1.174093    0.290559
     16          6           0      -11.399958   -0.532879    2.156127
     17          6           0        9.919153    0.885546    0.477414
     18          6           0       -9.833366   -0.576246   -0.211601
     19          6           0       10.263364   -1.753867    1.971069
     20          6           0      -10.075055    2.136321   -1.807675
     21          6           0        8.600519    0.568639    0.383561
     22          6           0       -8.491865   -0.348368   -0.179817
     23          6           0        7.387070    1.457641    0.533674
     24          6           0       -7.530373   -1.363478   -0.385642
     25          6           0        7.568638    2.933172    0.643979
     26          6           0       -7.794433   -2.769970   -0.741204
     27          6           0        6.139784    0.846870    0.441786
     28          6           0       -6.278209   -0.902428   -0.236171
     29          6           0        4.818163    1.436258    0.467305
     30          6           0       -5.022232   -1.646169   -0.399012
     31          6           0        3.690365    0.838786    0.174205
     32          6           0       -3.782952   -1.063053   -0.227879
     33          6           0        2.312961    1.282237    0.288168
     34          6           0       -2.443374   -1.827443   -0.282591
     35          6           0        2.063791    2.876694    0.549585
     36          6           0       -2.487513   -3.338734   -0.570901
     37          6           0        1.165128    0.557398    0.087817
     38          6           0       -1.299091   -1.151459   -0.217513
     39          6           0        1.202270   -0.868257   -0.166094
     40          6           0        0.020300   -1.620698   -0.338610
     41          1           0       13.885986   -0.306472    0.197034
     42          1           0       13.713405   -0.136368   -1.624433
     43          1           0      -12.236738    1.698653    1.897914
     44          1           0      -13.889296    0.655784    1.822343
     45          1           0       13.894960   -2.457625   -0.673647
     46          1           0       12.293971   -1.936404   -1.647118
     47          1           0      -14.035829    2.839847    0.110205
     48          1           0      -13.851926    1.223536   -0.618122
     49          1           0       13.085574   -2.093962    1.368815
     50          1           0       11.909445   -3.166539    0.559498
     51          1           0      -11.709285    3.311195   -0.051346
     52          1           0      -12.501721    2.621526   -1.726991
     53          1           0       10.899429   -0.509855   -2.303100
     54          1           0       12.509948    0.945205   -2.779496
     55          1           0       10.709561    1.209133   -2.258564
     56          1           0       13.216808    2.113146    0.624746
     57          1           0       11.712799    2.540139   -0.638573
     58          1           0       13.448848    2.306589   -1.116279
     59          1           0      -13.605178   -1.075460   -0.578066
     60          1           0      -13.631681   -1.398052    1.017254
     61          1           0      -12.277418   -2.038943    0.004676
     62          1           0      -10.858586    0.299727    2.767571
     63          1           0      -10.672691   -1.453093    1.733599
     64          1           0      -12.084631   -1.104828    2.644034
     65          1           0       10.037208    1.918160    0.520112
     66          1           0      -10.248968   -1.604036   -0.065524
     67          1           0        9.486815   -0.980255    2.391312
     68          1           0       10.836858   -2.208892    2.667997
     69          1           0        9.491327   -2.481041    1.685731
     70          1           0       -9.307306    1.437972   -2.194608
     71          1           0       -9.321182    2.833573   -1.493670
     72          1           0      -10.609309    2.332044   -2.702163
     73          1           0        8.143000   -0.441154    0.275659
     74          1           0       -8.028036    0.595046   -0.185397
     75          1           0        7.765859    3.198339    1.726876
     76          1           0        6.534160    3.662984    0.730431
     77          1           0        8.444672    3.341048    0.186542
     78          1           0       -8.375622   -2.794419   -1.507014
     79          1           0       -8.310880   -3.337121   -0.152733
     80          1           0       -6.966188   -3.469500   -0.981180
     81          1           0        6.289861   -0.297163   -0.021969
     82          1           0       -6.261008    0.117813    0.265362
     83          1           0        4.786144    2.485825    0.476697
     84          1           0       -5.004641   -2.771191   -0.390361
     85          1           0        3.760001   -0.296696    0.087058
     86          1           0       -3.687415   -0.057665   -0.210641
     87          1           0        2.607362    3.147915    1.495603
     88          1           0        1.013031    3.188951    0.278957
     89          1           0        2.495996    3.460471   -0.308923
     90          1           0       -3.097778   -3.380042   -1.446405
     91          1           0       -2.932339   -3.785356    0.196305
     92          1           0       -1.533749   -3.511492   -0.845665
     93          1           0        0.225932    1.229702   -0.051042
     94          1           0       -1.364185   -0.142994    0.096269
     95          1           0        2.191524   -1.198775   -0.394682
     96          1           0        0.460552   -2.681910   -0.583247
 ---------------------------------------------------------------------

 SCF Done:  E(RB3LYP) =  -1557.53823191     A.U. after   15 cycles

 Excitation energies and oscillator strengths:

 Excited State   1:      Singlet-A      2.3682 eV  523.54 nm  f=2.7689  <S**2>=0.000
     148 ->149         0.70520
 This state for optimization and/or second-order correction.
 Total Energy, E(TD-HF/TD-DFT) =  -1557.45120172
 Copying the excited state density for this state as the 1-particle RhoCI density.

 The electronic state is 1-A.
 Alpha  occ. eigenvalues --  -10.20961 -10.20371 -10.20267 -10.20184 -10.19860
 Alpha  occ. eigenvalues --  -10.19854 -10.19849 -10.19685 -10.19388 -10.19379
 Alpha  occ. eigenvalues --  -10.19378 -10.19322 -10.19248 -10.19132 -10.18927
 Alpha  occ. eigenvalues --  -10.18889 -10.18860 -10.18780 -10.18589 -10.18502
 Alpha  occ. eigenvalues --  -10.18498 -10.18475 -10.18462 -10.18340 -10.18300
 Alpha  occ. eigenvalues --  -10.18029 -10.17886 -10.17831 -10.17829 -10.17813
 Alpha  occ. eigenvalues --  -10.17612 -10.17506 -10.17491 -10.17480 -10.17405
 Alpha  occ. eigenvalues --  -10.16934 -10.16558 -10.15916 -10.15620 -10.15590
 Alpha  occ. eigenvalues --   -0.85687  -0.85015  -0.83639  -0.83024  -0.82364
 Alpha  occ. eigenvalues --   -0.81017  -0.79103  -0.78586  -0.78429  -0.77526
 Alpha  occ. eigenvalues --   -0.76724  -0.75451  -0.73839  -0.73291  -0.72039
 Alpha  occ. eigenvalues --   -0.70770  -0.70216  -0.68611  -0.68120  -0.67864
 Alpha  occ. eigenvalues --   -0.67831  -0.66868  -0.66551  -0.66379  -0.66231
 Alpha  occ. eigenvalues --   -0.62747  -0.61922  -0.59365  -0.58795  -0.57236
 Alpha  occ. eigenvalues --   -0.56897  -0.55547  -0.55061  -0.53765  -0.53509
 Alpha  occ. eigenvalues --   -0.52602  -0.51973  -0.50525  -0.50224  -0.49792
 Alpha  occ. eigenvalues --   -0.49040  -0.48739  -0.47633  -0.46738  -0.46347
 Alpha  occ. eigenvalues --   -0.45866  -0.45398  -0.44941  -0.44618  -0.44366
 Alpha  occ. eigenvalues --   -0.44118  -0.43662  -0.43069  -0.42964  -0.42605
 Alpha  occ. eigenvalues --   -0.42501  -0.42427  -0.41756  -0.41632  -0.41391
 Alpha  occ. eigenvalues --   -0.40646  -0.40502  -0.40106  -0.39833  -0.39716
 Alpha  occ. eigenvalues --   -0.39275  -0.38883  -0.38307  -0.38112  -0.37864
 Alpha  occ. eigenvalues --   -0.37529  -0.37138  -0.37063  -0.36942  -0.36464
 Alpha  occ. eigenvalues --   -0.36309  -0.36088  -0.35818  -0.35394  -0.35056
 Alpha  occ. eigenvalues --   -0.34943  -0.34777  -0.34660  -0.34313  -0.33719
 Alpha  occ. eigenvalues --   -0.33252  -0.33131  -0.32966  -0.32687  -0.32177
 Alpha  occ. eigenvalues --   -0.32055  -0.31858  -0.31722  -0.31639  -0.31061
 Alpha  occ. eigenvalues --   -0.29915  -0.29842  -0.29295  -0.28463  -0.28002
 Alpha  occ. eigenvalues --   -0.27397  -0.26542  -0.26289  -0.24549  -0.23396
 Alpha  occ. eigenvalues --   -0.21111  -0.19102  -0.16817
 Alpha virt. eigenvalues --   -0.07555  -0.04899  -0.01722   0.00901   0.03208
 Alpha virt. eigenvalues --    0.04573   0.05940   0.06437   0.06724   0.06873
 Alpha virt. eigenvalues --    0.07081   0.07684   0.08200   0.08665   0.08880

 Mulliken charges:
               1
     1  C   -0.031294
     2  C   -0.050128
     3  C   -0.122400
     4  C   -0.158422
     5  C   -0.220092
     6  C   -0.172558
     7  C    0.105035
     8  C    0.127710
     9  C   -0.218441
    10  C   -0.201180
    11  C    0.074647
    12  C   -0.001855
    13  C   -0.291169
    14  C   -0.295383
    15  C   -0.307628
    16  C   -0.273478
    17  C   -0.148261
    18  C   -0.167811
    19  C   -0.368204
    20  C   -0.368242
    21  C   -0.085970
    22  C   -0.087914
    23  C    0.150199
    24  C    0.173819
    25  C   -0.389379
    26  C   -0.377916
    27  C   -0.151230
    28  C   -0.167692
    29  C   -0.076747
    30  C   -0.102030
    31  C   -0.089845
    32  C   -0.088996
    33  C    0.078400
    34  C    0.063303
    35  C   -0.376437
    36  C   -0.355349
    37  C   -0.103177
    38  C   -0.105890
    39  C   -0.118672
    40  C   -0.093344
    41  H    0.088351
    42  H    0.087799
    43  H    0.097618
    44  H    0.075607
    45  H    0.078938
    46  H    0.094866
    47  H    0.074667
    48  H    0.099243
    49  H    0.084571
    50  H    0.113723
    51  H    0.119078
    52  H    0.101343
    53  H    0.106509
    54  H    0.073544
    55  H    0.103419
    56  H    0.094334
    57  H    0.092103
    58  H    0.085189
    59  H    0.091614
    60  H    0.103153
    61  H    0.102522
    62  H    0.095697
    63  H    0.059266
    64  H    0.106709
    65  H    0.080196
    66  H    0.081105
    67  H    0.098330
    68  H    0.118214
    69  H    0.109781
    70  H    0.100743
    71  H    0.118974
    72  H    0.109205
    73  H    0.072581
    74  H    0.082974
    75  H    0.123372
    76  H    0.087984
    77  H    0.129860
    78  H    0.128836
    79  H    0.127961
    80  H    0.103851
    81  H    0.062139
    82  H    0.078117
    83  H    0.082361
    84  H    0.081312
    85  H    0.067868
    86  H    0.070238
    87  H    0.121740
    88  H    0.103111
    89  H    0.109043
    90  H    0.121893
    91  H    0.133151
    92  H    0.117469
    93  H    0.084805
    94  H    0.083649
    95  H    0.095117
    96  H    0.078177
 Sum of Mulliken charges =  -0.00000

 Dipole moment (field-independent basis, Debye):
    X=             -0.6794    Y=             -0.0167    Z=             -0.2485  Tot=              0.7236
 Quadrupole moment (field-independent basis, Debye-Ang):
   XX=           -218.5242   YY=           -234.4102   ZZ=           -256.7833
   XY=              7.6043   XZ=              5.2441   YZ=              1.5619

 Normal termination of Gaussian 16 at Sat Jul 27 16:34:25 2019.
