 Gaussian 16, Revision A.03,
 Gaussian 16:  ES64L-G16RevA.03 25-Dec-2016

 ---------------------------------
 # td=(NStates=1) B3LYP/6-31G(d,p)
 ---------------------------------

 --
 TD
 --
 Symbolic Z-matrix:
 Charge =  0 Multiplicity = 1

                         Standard orientation:
 ---------------------------------------------------------------------
 Center     Atomic      Atomic             Coordinates (Angstroms)
 Number     Number       Type             X           Y           Z
 ---------------------------------------------------------------------
      1          6           0       12.144198    0.463796   -0.738219
      2          6           0      -12.127871   -0.002605    0.872807
      3          6           0       13.560118   -0.325370   -0.554408
      4          6           0      -13.028404    1.089627    1.348269
      5          6           0       13.159460   -1.850542   -0.276202
      6          6           0      -13.397094    1.984111    0.202236
      7          6           0       11.045753    0.085732    0.300772
      8          6           0      -10.992080    0.465619   -0.044830
      9          6           0       12.257797   -1.919874    0.869742
     10          6           0      -12.231500    2.591082   -0.458287
     11          6           0       11.137894   -0.994873    1.110547
     12          6           0      -10.977013    1.738583   -0.527590
     13          6           0       11.588401    0.126774   -2.169643
     14          6           0       12.487669    2.078433   -0.730228
     15          6           0      -12.863143   -1.122305    0.137995
     16          6           0      -11.550783   -0.710403    2.169254
     17          6           0        9.823150    0.999297    0.291593
     18          6           0       -9.912507   -0.484808   -0.192352
     19          6           0       10.217240   -1.435263    2.193574
     20          6           0       -9.947138    2.307843   -1.498248
     21          6           0        8.561453    0.562792    0.234843
     22          6           0       -8.523495   -0.385055   -0.189739
     23          6           0        7.360808    1.342247    0.318005
     24          6           0       -7.496467   -1.304787   -0.516871
     25          6           0        7.536635    2.817006    0.512209
     26          6           0       -7.891616   -2.668868   -0.949103
     27          6           0        6.130765    0.759241    0.194946
     28          6           0       -6.236618   -0.862835   -0.343172
     29          6           0        4.821536    1.427243    0.280718
     30          6           0       -5.059684   -1.671649   -0.552012
     31          6           0        3.679257    0.706791    0.255245
     32          6           0       -3.709418   -1.160066   -0.590009
     33          6           0        2.313630    1.292184    0.190810
     34          6           0       -2.540943   -1.951612   -0.491552
     35          6           0        2.253477    2.709320    0.389913
     36          6           0       -2.573729   -3.432701   -0.625762
     37          6           0        1.189763    0.507091    0.087050
     38          6           0       -1.353466   -1.201215   -0.241184
     39          6           0        1.123723   -0.937951   -0.062739
     40          6           0        0.027186   -1.734166   -0.215912
     41          1           0       13.709729   -0.093851    0.474422
     42          1           0       14.234155   -0.187548   -1.424917
     43          1           0      -12.684920    1.674657    2.113493
     44          1           0      -14.083363    0.630408    1.797286
     45          1           0       14.151221   -2.415364    0.138606
     46          1           0       12.958185   -2.347628   -1.187013
     47          1           0      -14.163755    2.834764    0.531214
     48          1           0      -14.028164    1.351346   -0.546458
     49          1           0       12.845816   -1.997838    1.758743
     50          1           0       11.845627   -3.041998    0.799477
     51          1           0      -11.916207    3.618243    0.001359
     52          1           0      -12.379341    3.021418   -1.491532
     53          1           0       11.233933   -0.926881   -2.372683
     54          1           0       12.306868    0.329232   -3.111714
     55          1           0       10.743301    0.542302   -2.478170
     56          1           0       12.922332    2.432648    0.337444
     57          1           0       11.654213    2.753518   -0.896589
     58          1           0       13.403939    2.146072   -1.509526
     59          1           0      -13.404694   -0.717564   -0.836537
     60          1           0      -13.553495   -1.555003    0.766923
     61          1           0      -12.238507   -2.153490   -0.375806
     62          1           0      -10.660957   -0.083363    2.586183
     63          1           0      -10.823390   -1.687879    1.914183
     64          1           0      -12.285040   -1.133056    2.977591
     65          1           0        9.965772    1.982434    0.502583
     66          1           0      -10.224193   -1.533391   -0.270556
     67          1           0        9.637252   -0.543877    2.536531
     68          1           0       10.709644   -2.103090    3.068823
     69          1           0        9.564378   -2.241394    1.790332
     70          1           0       -9.027766    1.630191   -1.902661
     71          1           0       -9.283864    3.171809   -0.944010
     72          1           0      -10.518538    2.690332   -2.440589
     73          1           0        8.579075   -0.531161    0.235085
     74          1           0       -8.129507    0.532560   -0.081967
     75          1           0        8.118481    2.845583    1.559393
     76          1           0        6.651335    3.504727    0.785073
     77          1           0        8.244350    3.353045    0.084619
     78          1           0       -8.763874   -2.338284   -1.918417
     79          1           0       -8.471621   -3.255193   -0.071288
     80          1           0       -7.110930   -3.294541   -1.384834
     81          1           0        6.194035   -0.397359    0.030851
     82          1           0       -6.046585    0.207857   -0.187040
     83          1           0        4.714859    2.383362    0.372818
     84          1           0       -5.016936   -2.670289   -0.455502
     85          1           0        3.554425   -0.361386    0.217779
     86          1           0       -3.580256   -0.030169   -0.425224
     87          1           0        2.823427    2.959961    1.370240
     88          1           0        1.331394    3.075002    0.858345
     89          1           0        2.858332    3.269502   -0.278417
     90          1           0       -2.847968   -3.735955   -1.523532
     91          1           0       -3.176037   -3.877688    0.231095
     92          1           0       -1.496877   -3.992395   -0.585721
     93          1           0        0.269123    1.207405   -0.117641
     94          1           0       -1.470456   -0.119006   -0.324257
     95          1           0        2.045329   -1.437029   -0.332304
     96          1           0        0.075034   -2.731887   -0.320372
 ---------------------------------------------------------------------

 SCF Done:  E(RB3LYP) =  -1557.54360463     A.U. after   16 cycles

 Excitation energies and oscillator strengths:

 Excited State   1:      Singlet-A      2.2230 eV  557.74 nm  f=2.8244  <S**2>=0.000
     148 ->149         0.69815
     148 ->150         0.10533
     148 <-149        -0.10067
 This state for optimization and/or second-order correction.
 Total Energy, E(TD-HF/TD-DFT) =  -1557.46191245
 Copying the excited state density for this state as the 1-particle RhoCI density.

 The electronic state is 1-A.
 Alpha  occ. eigenvalues --  -10.21386 -10.21036 -10.20706 -10.20605 -10.20453
 Alpha  occ. eigenvalues --  -10.20247 -10.19788 -10.19766 -10.19660 -10.19654
 Alpha  occ. eigenvalues --  -10.19624 -10.19619 -10.19619 -10.19286 -10.19268
 Alpha  occ. eigenvalues --  -10.19255 -10.19235 -10.19206 -10.19193 -10.19159
 Alpha  occ. eigenvalues --  -10.19087 -10.18928 -10.18880 -10.18826 -10.18776
 Alpha  occ. eigenvalues --  -10.18725 -10.18604 -10.18551 -10.18496 -10.18456
 Alpha  occ. eigenvalues --  -10.18328 -10.18270 -10.18211 -10.18193 -10.18137
 Alpha  occ. eigenvalues --  -10.18120 -10.18041 -10.17641 -10.17014 -10.16840
 Alpha  occ. eigenvalues --   -0.85744  -0.84516  -0.83734  -0.83336  -0.82408
 Alpha  occ. eigenvalues --   -0.81902  -0.78807  -0.78237  -0.77648  -0.77219
 Alpha  occ. eigenvalues --   -0.77101  -0.75338  -0.74307  -0.72323  -0.71225
 Alpha  occ. eigenvalues --   -0.70572  -0.69035  -0.68586  -0.67644  -0.67327
 Alpha  occ. eigenvalues --   -0.67144  -0.67079  -0.66210  -0.65832  -0.65657
 Alpha  occ. eigenvalues --   -0.62908  -0.61932  -0.59657  -0.58928  -0.57118
 Alpha  occ. eigenvalues --   -0.56616  -0.55914  -0.55457  -0.54818  -0.53447
 Alpha  occ. eigenvalues --   -0.53095  -0.52036  -0.51021  -0.49930  -0.49283
 Alpha  occ. eigenvalues --   -0.48631  -0.47803  -0.47634  -0.46857  -0.46432
 Alpha  occ. eigenvalues --   -0.45780  -0.45480  -0.44915  -0.44238  -0.43788
 Alpha  occ. eigenvalues --   -0.43598  -0.43509  -0.43226  -0.42742  -0.42320
 Alpha  occ. eigenvalues --   -0.41572  -0.41388  -0.41039  -0.40923  -0.40524
 Alpha  occ. eigenvalues --   -0.40329  -0.40251  -0.40021  -0.39579  -0.39429
 Alpha  occ. eigenvalues --   -0.38802  -0.38507  -0.38334  -0.38057  -0.37855
 Alpha  occ. eigenvalues --   -0.37586  -0.37076  -0.36768  -0.36643  -0.36593
 Alpha  occ. eigenvalues --   -0.36206  -0.35728  -0.35464  -0.35124  -0.35039
 Alpha  occ. eigenvalues --   -0.34690  -0.34680  -0.34445  -0.33986  -0.33793
 Alpha  occ. eigenvalues --   -0.33453  -0.33374  -0.33321  -0.33104  -0.32292
 Alpha  occ. eigenvalues --   -0.31933  -0.31656  -0.31244  -0.31048  -0.30675
 Alpha  occ. eigenvalues --   -0.30210  -0.29906  -0.29137  -0.29059  -0.28393
 Alpha  occ. eigenvalues --   -0.27803  -0.27685  -0.25912  -0.24171  -0.22618
 Alpha  occ. eigenvalues --   -0.21235  -0.19159  -0.16459
 Alpha virt. eigenvalues --   -0.08109  -0.05188  -0.01933   0.00414   0.02357
 Alpha virt. eigenvalues --    0.03586   0.05851   0.06235   0.06935   0.06988
 Alpha virt. eigenvalues --    0.07417   0.07891   0.08431   0.08516   0.08926

 Mulliken charges:
               1
     1  C    0.001731
     2  C    0.005953
     3  C   -0.180207
     4  C   -0.153441
     5  C   -0.181630
     6  C   -0.188402
     7  C    0.015739
     8  C    0.096367
     9  C   -0.233930
    10  C   -0.209088
    11  C    0.121508
    12  C    0.066595
    13  C   -0.295951
    14  C   -0.296350
    15  C   -0.269451
    16  C   -0.299085
    17  C   -0.129609
    18  C   -0.141479
    19  C   -0.369971
    20  C   -0.350956
    21  C   -0.093146
    22  C   -0.086367
    23  C    0.153346
    24  C    0.163371
    25  C   -0.384018
    26  C   -0.349916
    27  C   -0.143672
    28  C   -0.134064
    29  C   -0.060438
    30  C   -0.096844
    31  C   -0.073903
    32  C   -0.127914
    33  C    0.125561
    34  C    0.128737
    35  C   -0.403196
    36  C   -0.376430
    37  C   -0.132901
    38  C   -0.122901
    39  C   -0.102802
    40  C   -0.078020
    41  H    0.107197
    42  H    0.097991
    43  H    0.114612
    44  H    0.063588
    45  H    0.058856
    46  H    0.108753
    47  H    0.073608
    48  H    0.091653
    49  H    0.114052
    50  H    0.076849
    51  H    0.088445
    52  H    0.101173
    53  H    0.087857
    54  H    0.063613
    55  H    0.118802
    56  H    0.077369
    57  H    0.110151
    58  H    0.087429
    59  H    0.083521
    60  H    0.110999
    61  H    0.064725
    62  H    0.098723
    63  H    0.069095
    64  H    0.096436
    65  H    0.072287
    66  H    0.077764
    67  H    0.121934
    68  H    0.090045
    69  H    0.120594
    70  H    0.105498
    71  H    0.092644
    72  H    0.101003
    73  H    0.079996
    74  H    0.058405
    75  H    0.092351
    76  H    0.106220
    77  H    0.138234
    78  H    0.073603
    79  H    0.108289
    80  H    0.116684
    81  H    0.075818
    82  H    0.082112
    83  H    0.060852
    84  H    0.074582
    85  H    0.069511
    86  H    0.072018
    87  H    0.107338
    88  H    0.114372
    89  H    0.132595
    90  H    0.145644
    91  H    0.121893
    92  H    0.086861
    93  H    0.076685
    94  H    0.081609
    95  H    0.091813
    96  H    0.072426
 Sum of Mulliken charges =  -0.00000

 Dipole moment (field-independent basis, Debye):
    X=             -0.3799    Y=              0.1116    Z=              0.3141  Tot=              0.5054
 Quadrupole moment (field-independent basis, Debye-Ang):
   XX=           -239.8937   YY=           -232.4855   ZZ=           -255.3673
   XY=             -4.4054   XZ=              1.4646   YZ=              2.1452

 Normal termination of Gaussian 16 at Wed Jul 31 18:51:41 2019.
