 Gaussian 16, Revision A.03,
 Gaussian 16:  ES64L-G16RevA.03 25-Dec-2016

 ---------------------------------
 # td=(NStates=1) B3LYP/6-31G(d,p)
 ---------------------------------

 --
 TD
 --
 Symbolic Z-matrix:
 Charge =  0 Multiplicity = 1

                         Standard orientation:
 ---------------------------------------------------------------------
 Center     Atomic      Atomic             Coordinates (Angstroms)
 Number     Number       Type             X           Y           Z
 ---------------------------------------------------------------------
      1          6           0       12.332456    0.643859   -0.653234
      2          6           0      -12.194722   -0.080740    0.872191
      3          6           0       13.565573   -0.104277   -0.565646
      4          6           0      -13.095130    1.078470    1.285703
      5          6           0       13.387995   -1.634738   -0.554734
      6          6           0      -13.471429    2.090421    0.168088
      7          6           0       11.169519   -0.056910    0.116996
      8          6           0      -11.108001    0.493617   -0.136389
      9          6           0       12.509955   -2.037843    0.628872
     10          6           0      -12.195908    2.592630   -0.477291
     11          6           0       11.245916   -1.156300    0.776737
     12          6           0      -11.059392    1.673559   -0.688430
     13          6           0       11.814917    0.778953   -2.067323
     14          6           0       12.566137    2.122806   -0.069565
     15          6           0      -13.094408   -1.053684    0.098665
     16          6           0      -11.584736   -0.694866    2.174395
     17          6           0        9.891953    0.760926    0.371746
     18          6           0       -9.925455   -0.476796   -0.269176
     19          6           0       10.352159   -1.797711    1.771917
     20          6           0      -10.063882    2.136619   -1.629090
     21          6           0        8.609303    0.344159    0.192354
     22          6           0       -8.608426   -0.195304   -0.216730
     23          6           0        7.420206    1.187745    0.318548
     24          6           0       -7.601059   -1.271942   -0.462015
     25          6           0        7.615563    2.686133    0.423563
     26          6           0       -8.029230   -2.605021   -0.873499
     27          6           0        6.166118    0.613564    0.148985
     28          6           0       -6.237364   -0.894519   -0.192906
     29          6           0        4.910458    1.260281    0.398326
     30          6           0       -5.135809   -1.744695   -0.407571
     31          6           0        3.719943    0.625293    0.260263
     32          6           0       -3.877063   -1.189916   -0.210326
     33          6           0        2.371499    1.190555    0.405380
     34          6           0       -2.553970   -1.864422   -0.286640
     35          6           0        2.251083    2.662633    0.649419
     36          6           0       -2.645291   -3.319492   -0.679806
     37          6           0        1.183380    0.441686    0.168310
     38          6           0       -1.447573   -1.117655   -0.185898
     39          6           0        1.056276   -0.994165   -0.191144
     40          6           0       -0.061479   -1.661055   -0.280593
     41          1           0       13.799943    0.128921    0.618758
     42          1           0       14.525207    0.281819   -1.214440
     43          1           0      -12.664071    1.630016    1.994859
     44          1           0      -13.976322    0.594249    1.719342
     45          1           0       14.537116   -1.942455   -0.347759
     46          1           0       13.046784   -2.153949   -1.466415
     47          1           0      -14.064796    2.849033    0.484595
     48          1           0      -14.143550    1.691487   -0.643173
     49          1           0       13.010757   -2.130446    1.416397
     50          1           0       12.284890   -3.039181    0.517431
     51          1           0      -11.961476    3.414898    0.088450
     52          1           0      -12.367721    2.818913   -1.608221
     53          1           0       11.505739   -0.295576   -2.468725
     54          1           0       12.408319    1.330794   -2.787651
     55          1           0       10.713071    1.245935   -1.912025
     56          1           0       12.799885    2.135803    1.018532
     57          1           0       11.731648    2.748105   -0.091490
     58          1           0       13.531173    2.518282   -0.594003
     59          1           0      -13.412006   -0.438809   -0.801288
     60          1           0      -14.018456   -1.273314    0.611143
     61          1           0      -12.427873   -1.899422   -0.520707
     62          1           0      -10.796824    0.059823    2.787452
     63          1           0      -11.005329   -1.659959    2.208598
     64          1           0      -12.391770   -0.741009    3.013169
     65          1           0       10.110279    1.844540    0.563172
     66          1           0      -10.172859   -1.486434   -0.707520
     67          1           0        9.618374   -1.104801    2.409982
     68          1           0       10.856749   -2.277852    2.668668
     69          1           0        9.770685   -2.605780    1.109017
     70          1           0       -9.327605    1.524727   -2.077777
     71          1           0       -9.599265    3.031660   -1.204300
     72          1           0      -10.557961    2.276842   -2.656298
     73          1           0        8.614426   -0.822792    0.085720
     74          1           0       -8.232161    0.834907   -0.136582
     75          1           0        8.498052    2.945909    1.045511
     76          1           0        6.743231    3.543611    0.612921
     77          1           0        7.984818    3.081052   -0.496636
     78          1           0       -8.716237   -2.229795   -1.685964
     79          1           0       -8.703763   -2.971053   -0.103346
     80          1           0       -7.282698   -3.343106   -1.360294
     81          1           0        6.226331   -0.385270   -0.205289
     82          1           0       -6.195510    0.130067    0.055694
     83          1           0        4.778087    2.067877    0.846454
     84          1           0       -5.341926   -2.769234   -0.817952
     85          1           0        3.914776   -0.290227   -0.066511
     86          1           0       -3.769998   -0.130368    0.062497
     87          1           0        2.643882    2.896982    1.647517
     88          1           0        1.101683    2.802872    0.630744
     89          1           0        2.792980    3.327143   -0.178730
     90          1           0       -3.019790   -3.297420   -1.609800
     91          1           0       -3.306226   -3.694554    0.074251
     92          1           0       -1.767241   -3.853425   -0.354060
     93          1           0        0.343722    0.936979    0.231127
     94          1           0       -1.521886   -0.187214    0.007725
     95          1           0        1.964451   -1.630025   -0.368048
     96          1           0       -0.012231   -2.630938   -0.839434
 ---------------------------------------------------------------------

 SCF Done:  E(RB3LYP) =  -1557.54477687     A.U. after   15 cycles

 Excitation energies and oscillator strengths:

 Excited State   1:      Singlet-A      2.4012 eV  516.34 nm  f=2.6051  <S**2>=0.000
     148 ->149         0.70653
 This state for optimization and/or second-order correction.
 Total Energy, E(TD-HF/TD-DFT) =  -1557.45653458
 Copying the excited state density for this state as the 1-particle RhoCI density.

 The electronic state is 1-A.
 Alpha  occ. eigenvalues --  -10.20626 -10.20472 -10.20375 -10.20004 -10.20002
 Alpha  occ. eigenvalues --  -10.19860 -10.19581 -10.19525 -10.19472 -10.19454
 Alpha  occ. eigenvalues --  -10.19357 -10.19217 -10.19040 -10.18944 -10.18895
 Alpha  occ. eigenvalues --  -10.18867 -10.18754 -10.18625 -10.18517 -10.18471
 Alpha  occ. eigenvalues --  -10.18429 -10.18422 -10.18335 -10.18196 -10.18164
 Alpha  occ. eigenvalues --  -10.18056 -10.18041 -10.17990 -10.17930 -10.17901
 Alpha  occ. eigenvalues --  -10.17760 -10.17523 -10.17442 -10.17369 -10.17013
 Alpha  occ. eigenvalues --  -10.16787 -10.16734 -10.16682 -10.16546 -10.15649
 Alpha  occ. eigenvalues --   -0.85632  -0.85271  -0.83175  -0.82775  -0.81851
 Alpha  occ. eigenvalues --   -0.80942  -0.79440  -0.79124  -0.78735  -0.77288
 Alpha  occ. eigenvalues --   -0.76675  -0.75503  -0.74771  -0.71962  -0.71495
 Alpha  occ. eigenvalues --   -0.70431  -0.68696  -0.68380  -0.68150  -0.67891
 Alpha  occ. eigenvalues --   -0.67187  -0.67141  -0.67096  -0.66594  -0.66106
 Alpha  occ. eigenvalues --   -0.62160  -0.61845  -0.59852  -0.59679  -0.57340
 Alpha  occ. eigenvalues --   -0.56402  -0.55210  -0.54985  -0.54361  -0.53168
 Alpha  occ. eigenvalues --   -0.52479  -0.51310  -0.51060  -0.49871  -0.48954
 Alpha  occ. eigenvalues --   -0.48369  -0.47683  -0.47338  -0.47025  -0.46562
 Alpha  occ. eigenvalues --   -0.45847  -0.45710  -0.45091  -0.45007  -0.44798
 Alpha  occ. eigenvalues --   -0.43837  -0.43400  -0.42805  -0.42606  -0.42484
 Alpha  occ. eigenvalues --   -0.42220  -0.41753  -0.41341  -0.41229  -0.40742
 Alpha  occ. eigenvalues --   -0.40433  -0.40290  -0.40052  -0.39835  -0.39663
 Alpha  occ. eigenvalues --   -0.39610  -0.39338  -0.39062  -0.38359  -0.37981
 Alpha  occ. eigenvalues --   -0.37571  -0.37433  -0.37115  -0.36622  -0.36264
 Alpha  occ. eigenvalues --   -0.36093  -0.36024  -0.35343  -0.35199  -0.34827
 Alpha  occ. eigenvalues --   -0.34802  -0.34622  -0.33866  -0.33775  -0.33531
 Alpha  occ. eigenvalues --   -0.33370  -0.32963  -0.32735  -0.32615  -0.32344
 Alpha  occ. eigenvalues --   -0.31870  -0.31789  -0.31039  -0.30821  -0.30625
 Alpha  occ. eigenvalues --   -0.30469  -0.30294  -0.29165  -0.28744  -0.28659
 Alpha  occ. eigenvalues --   -0.28134  -0.27447  -0.25977  -0.24308  -0.23095
 Alpha  occ. eigenvalues --   -0.21784  -0.18465  -0.16540
 Alpha virt. eigenvalues --   -0.07125  -0.04823  -0.00851   0.01700   0.03595
 Alpha virt. eigenvalues --    0.04644   0.06449   0.06826   0.06875   0.07309
 Alpha virt. eigenvalues --    0.07798   0.08076   0.08320   0.09030   0.09520

 Mulliken charges:
               1
     1  C    0.031155
     2  C    0.033235
     3  C   -0.158909
     4  C   -0.174979
     5  C   -0.190310
     6  C   -0.199305
     7  C    0.046877
     8  C    0.028900
     9  C   -0.208519
    10  C   -0.211915
    11  C    0.080283
    12  C    0.090497
    13  C   -0.279077
    14  C   -0.307332
    15  C   -0.293313
    16  C   -0.299585
    17  C   -0.144646
    18  C   -0.155527
    19  C   -0.357113
    20  C   -0.363666
    21  C   -0.090754
    22  C   -0.070692
    23  C    0.123239
    24  C    0.077961
    25  C   -0.385548
    26  C   -0.379891
    27  C   -0.136013
    28  C   -0.100341
    29  C   -0.029072
    30  C   -0.086233
    31  C   -0.085801
    32  C   -0.121180
    33  C    0.086598
    34  C    0.087021
    35  C   -0.369546
    36  C   -0.365116
    37  C   -0.104593
    38  C   -0.082829
    39  C   -0.074799
    40  C   -0.110640
    41  H    0.065038
    42  H    0.071412
    43  H    0.103977
    44  H    0.080525
    45  H    0.068040
    46  H    0.099809
    47  H    0.099643
    48  H    0.085648
    49  H    0.114432
    50  H    0.096097
    51  H    0.110589
    52  H    0.081885
    53  H    0.083098
    54  H    0.097905
    55  H    0.084498
    56  H    0.098241
    57  H    0.109239
    58  H    0.091121
    59  H    0.102367
    60  H    0.107542
    61  H    0.075810
    62  H    0.069707
    63  H    0.107871
    64  H    0.086021
    65  H    0.066596
    66  H    0.071286
    67  H    0.104428
    68  H    0.105755
    69  H    0.104446
    70  H    0.126478
    71  H    0.113253
    72  H    0.091619
    73  H    0.080866
    74  H    0.084400
    75  H    0.111412
    76  H    0.095964
    77  H    0.138573
    78  H    0.122020
    79  H    0.137590
    80  H    0.106786
    81  H    0.080671
    82  H    0.069527
    83  H    0.049409
    84  H    0.085051
    85  H    0.057509
    86  H    0.074304
    87  H    0.125376
    88  H    0.097844
    89  H    0.109734
    90  H    0.137400
    91  H    0.122883
    92  H    0.111467
    93  H    0.064472
    94  H    0.054186
    95  H    0.079880
    96  H    0.079779
 Sum of Mulliken charges =  -0.00000

 Dipole moment (field-independent basis, Debye):
    X=             -0.5098    Y=              0.4365    Z=             -0.2151  Tot=              0.7047
 Quadrupole moment (field-independent basis, Debye-Ang):
   XX=           -214.1112   YY=           -235.3342   ZZ=           -252.5704
   XY=             -6.6554   XZ=              7.7044   YZ=              3.7372

 Normal termination of Gaussian 16 at Sat Jul 27 02:48:23 2019.
