 Gaussian 16, Revision A.03,
 Gaussian 16:  ES64L-G16RevA.03 25-Dec-2016

 ---------------------------------
 # td=(NStates=1) B3LYP/6-31G(d,p)
 ---------------------------------

 --
 TD
 --
 Symbolic Z-matrix:
 Charge =  0 Multiplicity = 1

                         Standard orientation:
 ---------------------------------------------------------------------
 Center     Atomic      Atomic             Coordinates (Angstroms)
 Number     Number       Type             X           Y           Z
 ---------------------------------------------------------------------
      1          6           0       12.082934    0.460228   -0.765269
      2          6           0      -12.028983   -0.124856    0.915279
      3          6           0       13.369025   -0.506339   -0.592116
      4          6           0      -12.901532    1.107627    1.412421
      5          6           0       13.024311   -1.991830   -0.478520
      6          6           0      -13.347706    1.996532    0.156012
      7          6           0       11.058141    0.016996    0.188367
      8          6           0      -11.013976    0.364060   -0.160513
      9          6           0       12.257854   -2.163366    0.712568
     10          6           0      -12.104424    2.616036   -0.517596
     11          6           0       11.094076   -1.194826    0.873758
     12          6           0      -11.096184    1.576631   -0.722970
     13          6           0       11.587953    0.498940   -2.231342
     14          6           0       12.562405    1.891544   -0.319665
     15          6           0      -13.077610   -1.115583    0.243210
     16          6           0      -11.391054   -0.718470    2.069413
     17          6           0        9.799296    0.863397    0.268918
     18          6           0       -9.879510   -0.638316   -0.377825
     19          6           0       10.205786   -1.487560    2.091050
     20          6           0      -10.008649    2.142237   -1.692199
     21          6           0        8.550290    0.534345    0.268718
     22          6           0       -8.645641   -0.421753   -0.432923
     23          6           0        7.400508    1.438708    0.454017
     24          6           0       -7.495262   -1.329846   -0.556059
     25          6           0        7.554747    2.861579    0.454086
     26          6           0       -7.887698   -2.741346   -0.762891
     27          6           0        6.082627    0.849528    0.343381
     28          6           0       -6.182226   -0.816520   -0.484234
     29          6           0        4.848337    1.476319    0.355409
     30          6           0       -5.041289   -1.535658   -0.415646
     31          6           0        3.628438    0.777715    0.254258
     32          6           0       -3.819838   -1.050050   -0.324983
     33          6           0        2.335825    1.342091    0.404552
     34          6           0       -2.515186   -1.762493   -0.401853
     35          6           0        2.270137    2.804782    0.571973
     36          6           0       -2.516232   -3.296526   -0.594589
     37          6           0        1.253403    0.555164    0.179176
     38          6           0       -1.347168   -1.058097   -0.221249
     39          6           0        1.112100   -0.916150   -0.125939
     40          6           0       -0.017170   -1.650603   -0.299280
     41          1           0       14.086040   -0.342955    0.254096
     42          1           0       14.030152   -0.311353   -1.523719
     43          1           0      -12.265507    1.669541    2.291481
     44          1           0      -13.691433    0.978466    2.181398
     45          1           0       14.116477   -2.581283   -0.304782
     46          1           0       12.657514   -2.251054   -1.374556
     47          1           0      -13.939943    2.792702    0.655231
     48          1           0      -13.861164    1.587832   -0.604787
     49          1           0       12.859575   -1.968892    1.574779
     50          1           0       11.979973   -3.215955    0.927098
     51          1           0      -11.537851    3.453799    0.110625
     52          1           0      -12.341237    2.847454   -1.483272
     53          1           0       11.689269   -0.558335   -2.723126
     54          1           0       12.313305    1.056483   -2.720656
     55          1           0       10.700375    1.085615   -2.582691
     56          1           0       12.495456    1.949352    0.803996
     57          1           0       11.781176    2.793765   -0.674251
     58          1           0       13.527711    2.184159   -0.697866
     59          1           0      -13.365722   -0.514345   -0.512393
     60          1           0      -13.998599   -1.407719    0.828145
     61          1           0      -12.497595   -2.122559    0.093378
     62          1           0      -10.494646   -0.032101    2.462438
     63          1           0      -11.003216   -1.785908    1.861025
     64          1           0      -11.904434   -0.832830    3.041548
     65          1           0        9.988464    1.973574    0.285338
     66          1           0      -10.212396   -1.651152   -0.485472
     67          1           0        9.642975   -0.614190    2.366300
     68          1           0       11.048875   -1.875813    2.813894
     69          1           0        9.605685   -2.353139    1.836639
     70          1           0       -9.454513    1.122447   -2.069089
     71          1           0       -9.329928    2.739894   -0.935729
     72          1           0      -10.577729    2.760560   -2.451406
     73          1           0        8.333141   -0.564036    0.124699
     74          1           0       -8.210143    0.574485   -0.403179
     75          1           0        8.119685    3.243832    1.309237
     76          1           0        6.626454    3.369807    0.239972
     77          1           0        8.228459    3.175561   -0.452196
     78          1           0       -8.788073   -2.765618   -1.509190
     79          1           0       -8.156437   -3.204781    0.301749
     80          1           0       -7.149329   -3.402639   -1.188804
     81          1           0        6.130060   -0.341407    0.395383
     82          1           0       -6.162855    0.323242   -0.180370
     83          1           0        4.834826    2.678958    0.308869
     84          1           0       -5.099642   -2.634126   -0.771911
     85          1           0        3.668738   -0.293883    0.309831
     86          1           0       -3.659258    0.069233   -0.082638
     87          1           0        2.900836    3.347747    1.587569
     88          1           0        1.169302    3.194122    0.669944
     89          1           0        2.665903    3.215254   -0.442811
     90          1           0       -2.840175   -3.868315   -1.654317
     91          1           0       -2.979573   -3.531849    0.288460
     92          1           0       -1.432261   -3.915211   -0.176865
     93          1           0        0.257556    1.114930    0.234826
     94          1           0       -1.223747    0.079681    0.015508
     95          1           0        2.081449   -1.597019   -0.211191
     96          1           0        0.072843   -2.769655   -0.389634
 ---------------------------------------------------------------------

 SCF Done:  E(RB3LYP) =  -1557.55595532     A.U. after   15 cycles

 Excitation energies and oscillator strengths:

 Excited State   1:      Singlet-A      2.2615 eV  548.23 nm  f=2.7624  <S**2>=0.000
     148 ->149         0.70634
 This state for optimization and/or second-order correction.
 Total Energy, E(TD-HF/TD-DFT) =  -1557.47284541
 Copying the excited state density for this state as the 1-particle RhoCI density.

 The electronic state is 1-A.
 Alpha  occ. eigenvalues --  -10.21382 -10.21300 -10.21112 -10.20623 -10.20503
 Alpha  occ. eigenvalues --  -10.20235 -10.20084 -10.20058 -10.19955 -10.19787
 Alpha  occ. eigenvalues --  -10.19710 -10.19690 -10.19633 -10.19543 -10.19426
 Alpha  occ. eigenvalues --  -10.19367 -10.19306 -10.19298 -10.19238 -10.19144
 Alpha  occ. eigenvalues --  -10.18939 -10.18783 -10.18460 -10.18452 -10.18426
 Alpha  occ. eigenvalues --  -10.18360 -10.18267 -10.18240 -10.18110 -10.18093
 Alpha  occ. eigenvalues --  -10.18008 -10.17928 -10.17855 -10.17765 -10.17712
 Alpha  occ. eigenvalues --  -10.17677 -10.17649 -10.17531 -10.17187 -10.17064
 Alpha  occ. eigenvalues --   -0.85086  -0.84845  -0.83531  -0.83265  -0.82120
 Alpha  occ. eigenvalues --   -0.81569  -0.79353  -0.78897  -0.78807  -0.77513
 Alpha  occ. eigenvalues --   -0.76573  -0.75215  -0.74431  -0.72621  -0.72101
 Alpha  occ. eigenvalues --   -0.68821  -0.68239  -0.67937  -0.67785  -0.67369
 Alpha  occ. eigenvalues --   -0.67126  -0.66898  -0.66682  -0.66029  -0.65651
 Alpha  occ. eigenvalues --   -0.62290  -0.61703  -0.59736  -0.58841  -0.56995
 Alpha  occ. eigenvalues --   -0.56488  -0.55358  -0.54842  -0.52967  -0.52136
 Alpha  occ. eigenvalues --   -0.51695  -0.51270  -0.50175  -0.49791  -0.49317
 Alpha  occ. eigenvalues --   -0.48012  -0.47107  -0.46885  -0.46379  -0.45883
 Alpha  occ. eigenvalues --   -0.45254  -0.45141  -0.44452  -0.43992  -0.43394
 Alpha  occ. eigenvalues --   -0.43181  -0.42671  -0.42439  -0.42252  -0.42056
 Alpha  occ. eigenvalues --   -0.41899  -0.41756  -0.41485  -0.41407  -0.41143
 Alpha  occ. eigenvalues --   -0.40841  -0.40615  -0.40245  -0.39642  -0.39122
 Alpha  occ. eigenvalues --   -0.38990  -0.38851  -0.38489  -0.38139  -0.37980
 Alpha  occ. eigenvalues --   -0.37626  -0.37192  -0.36876  -0.36489  -0.36411
 Alpha  occ. eigenvalues --   -0.36376  -0.35719  -0.35289  -0.35084  -0.34756
 Alpha  occ. eigenvalues --   -0.34528  -0.33978  -0.33900  -0.33839  -0.33723
 Alpha  occ. eigenvalues --   -0.33255  -0.33154  -0.32911  -0.32660  -0.32539
 Alpha  occ. eigenvalues --   -0.32134  -0.32045  -0.31885  -0.31378  -0.30835
 Alpha  occ. eigenvalues --   -0.30532  -0.30237  -0.29648  -0.28845  -0.27818
 Alpha  occ. eigenvalues --   -0.27358  -0.27137  -0.26746  -0.23996  -0.22536
 Alpha  occ. eigenvalues --   -0.21510  -0.18803  -0.16627
 Alpha virt. eigenvalues --   -0.07973  -0.05315  -0.01194   0.01232   0.02660
 Alpha virt. eigenvalues --    0.04151   0.05375   0.06557   0.06794   0.07268
 Alpha virt. eigenvalues --    0.07425   0.07787   0.07969   0.08226   0.08624

 Mulliken charges:
               1
     1  C    0.019421
     2  C    0.007814
     3  C   -0.196078
     4  C   -0.178214
     5  C   -0.169386
     6  C   -0.199724
     7  C    0.074593
     8  C    0.082911
     9  C   -0.204428
    10  C   -0.188961
    11  C    0.030566
    12  C    0.016666
    13  C   -0.306311
    14  C   -0.304290
    15  C   -0.279895
    16  C   -0.298445
    17  C   -0.135843
    18  C   -0.157523
    19  C   -0.342417
    20  C   -0.335687
    21  C   -0.074109
    22  C   -0.043930
    23  C    0.114926
    24  C    0.118128
    25  C   -0.382163
    26  C   -0.377154
    27  C   -0.116238
    28  C   -0.129459
    29  C   -0.083316
    30  C   -0.069291
    31  C   -0.115623
    32  C   -0.097719
    33  C    0.148594
    34  C    0.087600
    35  C   -0.361259
    36  C   -0.354711
    37  C   -0.132415
    38  C   -0.105318
    39  C   -0.088247
    40  C   -0.081462
    41  H    0.094819
    42  H    0.070394
    43  H    0.054781
    44  H    0.090599
    45  H    0.051853
    46  H    0.110889
    47  H    0.087030
    48  H    0.114441
    49  H    0.114670
    50  H    0.092632
    51  H    0.097119
    52  H    0.105480
    53  H    0.086984
    54  H    0.109951
    55  H    0.111119
    56  H    0.107460
    57  H    0.064357
    58  H    0.108122
    59  H    0.110216
    60  H    0.092854
    61  H    0.081022
    62  H    0.082179
    63  H    0.079139
    64  H    0.099947
    65  H    0.063174
    66  H    0.080494
    67  H    0.127796
    68  H    0.087006
    69  H    0.117229
    70  H    0.106139
    71  H    0.109575
    72  H    0.096141
    73  H    0.073390
    74  H    0.070906
    75  H    0.125590
    76  H    0.113001
    77  H    0.104148
    78  H    0.107465
    79  H    0.112494
    80  H    0.112770
    81  H    0.067242
    82  H    0.069841
    83  H    0.077497
    84  H    0.078365
    85  H    0.082776
    86  H    0.070885
    87  H    0.084655
    88  H    0.095719
    89  H    0.124364
    90  H    0.112170
    91  H    0.153426
    92  H    0.059383
    93  H    0.068669
    94  H    0.079088
    95  H    0.074036
    96  H    0.084906
 Sum of Mulliken charges =  -0.00000

 Dipole moment (field-independent basis, Debye):
    X=              0.2575    Y=              0.0519    Z=              0.1529  Tot=              0.3039
 Quadrupole moment (field-independent basis, Debye-Ang):
   XX=           -216.6919   YY=           -234.7555   ZZ=           -254.9275
   XY=             -2.0096   XZ=             -0.3810   YZ=              0.2923

 Normal termination of Gaussian 16 at Tue Jul 30 22:12:20 2019.
