 Gaussian 16, Revision A.03,
 Gaussian 16:  ES64L-G16RevA.03 25-Dec-2016

 ---------------------------------
 # td=(NStates=1) B3LYP/6-31G(d,p)
 ---------------------------------

 --
 TD
 --
 Symbolic Z-matrix:
 Charge =  0 Multiplicity = 1

                         Standard orientation:
 ---------------------------------------------------------------------
 Center     Atomic      Atomic             Coordinates (Angstroms)
 Number     Number       Type             X           Y           Z
 ---------------------------------------------------------------------
      1          6           0      -12.153578   -0.691630   -0.606308
      2          6           0       12.104357   -0.018742    0.828542
      3          6           0      -13.501187    0.217009   -0.705353
      4          6           0       12.893637   -1.225765    1.302841
      5          6           0      -13.112895    1.730444   -0.795605
      6          6           0       13.352935   -2.203831    0.130246
      7          6           0      -11.052120   -0.038012    0.281566
      8          6           0       10.960368   -0.411335   -0.115154
      9          6           0      -12.177420    2.185632    0.383158
     10          6           0       12.078884   -2.692165   -0.625809
     11          6           0      -11.104969    1.239695    0.697590
     12          6           0       11.026415   -1.604492   -0.839553
     13          6           0      -11.503018   -0.959738   -2.037945
     14          6           0      -12.554142   -2.041292   -0.058456
     15          6           0       12.935972    1.090910    0.188136
     16          6           0       11.546962    0.696454    2.094293
     17          6           0       -9.850430   -0.895962    0.357474
     18          6           0        9.906232    0.511212   -0.247702
     19          6           0      -10.151600    1.904129    1.633504
     20          6           0        9.993066   -1.979269   -1.927641
     21          6           0       -8.525763   -0.483815    0.309220
     22          6           0        8.550558    0.258274   -0.207054
     23          6           0       -7.315811   -1.333770    0.579429
     24          6           0        7.469472    1.206414   -0.322170
     25          6           0       -7.633458   -2.755244    1.019656
     26          6           0        7.853648    2.683416   -0.561864
     27          6           0       -6.133311   -0.646605    0.311027
     28          6           0        6.241972    0.825360   -0.301252
     29          6           0       -4.793818   -1.337172    0.330918
     30          6           0        4.902985    1.575800   -0.423745
     31          6           0       -3.668211   -0.693028    0.129618
     32          6           0        3.764511    1.137659   -0.247983
     33          6           0       -2.310904   -1.213298    0.266418
     34          6           0        2.476616    1.867865   -0.346757
     35          6           0       -2.146470   -2.668831    0.526373
     36          6           0        2.564750    3.350387   -0.497246
     37          6           0       -1.265356   -0.436318    0.056735
     38          6           0        1.335517    1.232767   -0.308786
     39          6           0       -1.160965    1.036663   -0.033611
     40          6           0       -0.016108    1.759116   -0.235795
     41          1           0      -14.160864    0.211764    0.395353
     42          1           0      -14.200542   -0.085515   -1.459261
     43          1           0       11.981929   -1.782362    1.841632
     44          1           0       13.596058   -0.778603    1.993724
     45          1           0      -13.800932    2.639218   -1.122369
     46          1           0      -12.412294    1.751250   -1.740590
     47          1           0       13.751504   -3.068452    0.583197
     48          1           0       14.082680   -1.548038   -0.465935
     49          1           0      -12.756005    2.239224    1.322559
     50          1           0      -11.694510    3.247001    0.317151
     51          1           0       11.858590   -3.393577   -0.157937
     52          1           0       12.265506   -3.053231   -1.539726
     53          1           0      -11.397834   -0.124058   -2.304614
     54          1           0      -12.212022   -1.671045   -2.593010
     55          1           0      -10.570357   -1.508420   -1.965790
     56          1           0      -12.664388   -1.900612    1.135807
     57          1           0      -11.851104   -2.843006   -0.120526
     58          1           0      -13.451987   -2.533711   -0.710138
     59          1           0       13.234384    0.853185   -0.825238
     60          1           0       13.802423    1.355421    0.626088
     61          1           0       12.530449    2.146745    0.159092
     62          1           0       10.832420    0.192560    2.641758
     63          1           0       11.094698    1.614938    1.749328
     64          1           0       12.509772    0.761253    2.821890
     65          1           0      -10.037050   -1.755771    0.445523
     66          1           0       10.122261    1.568978   -0.364932
     67          1           0       -9.443630    1.136936    2.245143
     68          1           0      -10.840348    2.509923    2.375955
     69          1           0       -9.665634    2.531997    1.065639
     70          1           0        9.451885   -1.054908   -2.126772
     71          1           0        9.482510   -2.770939   -1.582973
     72          1           0       10.324660   -2.419673   -2.968653
     73          1           0       -8.353584    0.570404    0.087647
     74          1           0        8.294094   -0.784344    0.004164
     75          1           0       -8.139207   -2.440013    2.104053
     76          1           0       -6.688316   -3.206176    0.942163
     77          1           0       -8.417996   -3.190779    0.278490
     78          1           0        8.334725    2.936621   -1.606575
     79          1           0        8.470547    3.189741    0.113305
     80          1           0        6.998224    3.588374   -0.219555
     81          1           0       -6.181457    0.390780    0.288773
     82          1           0        6.058441   -0.164517    0.031436
     83          1           0       -4.818012   -2.503481    0.616644
     84          1           0        5.179363    2.450911   -0.931861
     85          1           0       -3.626625    0.276086   -0.364731
     86          1           0        3.641969   -0.072952   -0.191622
     87          1           0       -2.459101   -2.842313    1.408986
     88          1           0       -1.114805   -2.834693    0.612790
     89          1           0       -2.564199   -3.282217   -0.124282
     90          1           0        3.009466    3.403850   -1.463573
     91          1           0        3.160723    3.685839    0.305363
     92          1           0        1.611477    3.716963   -0.611501
     93          1           0       -0.263255   -1.007986    0.142546
     94          1           0        1.311242    0.156369   -0.245437
     95          1           0       -2.075168    1.703302   -0.047724
     96          1           0       -0.094701    2.718420   -0.686595
 ---------------------------------------------------------------------

 SCF Done:  E(RB3LYP) =  -1557.41700504     A.U. after   14 cycles

 Excitation energies and oscillator strengths:

 Excited State   1:      Singlet-A      2.7009 eV  459.05 nm  f=2.5203  <S**2>=0.000
     148 ->149         0.70132
 This state for optimization and/or second-order correction.
 Total Energy, E(TD-HF/TD-DFT) =  -1557.31774888
 Copying the excited state density for this state as the 1-particle RhoCI density.

 The electronic state is 1-A.
 Alpha  occ. eigenvalues --  -10.20666 -10.20523 -10.20508 -10.20504 -10.20217
 Alpha  occ. eigenvalues --  -10.20076 -10.20060 -10.19837 -10.19688 -10.19558
 Alpha  occ. eigenvalues --  -10.19282 -10.19132 -10.19053 -10.19003 -10.18936
 Alpha  occ. eigenvalues --  -10.18905 -10.18759 -10.18704 -10.18572 -10.18539
 Alpha  occ. eigenvalues --  -10.18529 -10.18475 -10.18451 -10.18281 -10.18257
 Alpha  occ. eigenvalues --  -10.18109 -10.18028 -10.18016 -10.17921 -10.17821
 Alpha  occ. eigenvalues --  -10.17406 -10.17178 -10.17033 -10.16870 -10.16548
 Alpha  occ. eigenvalues --  -10.16377 -10.16009 -10.15457 -10.15332 -10.14932
 Alpha  occ. eigenvalues --   -0.84939  -0.84648  -0.84154  -0.83577  -0.82328
 Alpha  occ. eigenvalues --   -0.81417  -0.79148  -0.79043  -0.78950  -0.77481
 Alpha  occ. eigenvalues --   -0.76827  -0.75473  -0.74814  -0.72235  -0.72124
 Alpha  occ. eigenvalues --   -0.71190  -0.69161  -0.68819  -0.68653  -0.68474
 Alpha  occ. eigenvalues --   -0.68086  -0.67582  -0.67533  -0.67194  -0.66301
 Alpha  occ. eigenvalues --   -0.62488  -0.61848  -0.60269  -0.58493  -0.57977
 Alpha  occ. eigenvalues --   -0.57225  -0.56020  -0.54944  -0.53949  -0.52956
 Alpha  occ. eigenvalues --   -0.52374  -0.52113  -0.50683  -0.50293  -0.49190
 Alpha  occ. eigenvalues --   -0.48283  -0.47713  -0.47107  -0.46639  -0.46130
 Alpha  occ. eigenvalues --   -0.45802  -0.45643  -0.45307  -0.44709  -0.44413
 Alpha  occ. eigenvalues --   -0.44326  -0.44118  -0.43720  -0.43437  -0.42697
 Alpha  occ. eigenvalues --   -0.42436  -0.42171  -0.42060  -0.41720  -0.41545
 Alpha  occ. eigenvalues --   -0.41174  -0.41006  -0.40707  -0.39854  -0.39491
 Alpha  occ. eigenvalues --   -0.39066  -0.39025  -0.38608  -0.38228  -0.38189
 Alpha  occ. eigenvalues --   -0.37951  -0.37768  -0.37396  -0.37121  -0.36977
 Alpha  occ. eigenvalues --   -0.36649  -0.36389  -0.36059  -0.35983  -0.35370
 Alpha  occ. eigenvalues --   -0.35299  -0.34760  -0.34200  -0.34019  -0.33899
 Alpha  occ. eigenvalues --   -0.33348  -0.33222  -0.32951  -0.32880  -0.32533
 Alpha  occ. eigenvalues --   -0.32141  -0.31438  -0.31114  -0.30882  -0.30857
 Alpha  occ. eigenvalues --   -0.29885  -0.29649  -0.29110  -0.28919  -0.28792
 Alpha  occ. eigenvalues --   -0.28432  -0.27598  -0.26222  -0.24426  -0.23016
 Alpha  occ. eigenvalues --   -0.20737  -0.19054  -0.17554
 Alpha virt. eigenvalues --   -0.06654  -0.04482  -0.02068   0.01075   0.02901
 Alpha virt. eigenvalues --    0.04596   0.06132   0.06557   0.07145   0.07427
 Alpha virt. eigenvalues --    0.07937   0.08162   0.08300   0.08656   0.09068

 Mulliken charges:
               1
     1  C   -0.017852
     2  C   -0.018285
     3  C   -0.159573
     4  C   -0.171273
     5  C   -0.197968
     6  C   -0.204190
     7  C    0.065670
     8  C    0.100237
     9  C   -0.217326
    10  C   -0.176376
    11  C    0.051514
    12  C    0.025721
    13  C   -0.262151
    14  C   -0.288058
    15  C   -0.302751
    16  C   -0.278562
    17  C   -0.067351
    18  C   -0.160715
    19  C   -0.345004
    20  C   -0.363770
    21  C   -0.099355
    22  C   -0.105695
    23  C    0.082481
    24  C    0.172172
    25  C   -0.340817
    26  C   -0.382037
    27  C   -0.118343
    28  C   -0.161181
    29  C   -0.107479
    30  C   -0.069593
    31  C   -0.088243
    32  C   -0.089182
    33  C    0.105369
    34  C    0.093521
    35  C   -0.356851
    36  C   -0.352642
    37  C   -0.142884
    38  C   -0.108178
    39  C   -0.095109
    40  C   -0.112739
    41  H    0.055334
    42  H    0.105031
    43  H    0.072790
    44  H    0.085748
    45  H    0.082387
    46  H    0.080472
    47  H    0.096762
    48  H    0.092958
    49  H    0.111484
    50  H    0.088588
    51  H    0.110705
    52  H    0.103574
    53  H    0.103468
    54  H    0.078234
    55  H    0.107680
    56  H    0.080910
    57  H    0.105384
    58  H    0.076086
    59  H    0.098567
    60  H    0.106798
    61  H    0.087188
    62  H    0.106865
    63  H    0.100261
    64  H    0.066010
    65  H    0.024168
    66  H    0.082616
    67  H    0.100194
    68  H    0.085339
    69  H    0.133830
    70  H    0.123585
    71  H    0.126909
    72  H    0.080530
    73  H    0.069822
    74  H    0.080077
    75  H    0.122671
    76  H    0.115267
    77  H    0.121192
    78  H    0.110966
    79  H    0.134011
    80  H    0.062141
    81  H    0.089112
    82  H    0.065862
    83  H    0.071103
    84  H    0.087992
    85  H    0.083009
    86  H    0.061976
    87  H    0.133015
    88  H    0.100412
    89  H    0.126806
    90  H    0.127947
    91  H    0.128387
    92  H    0.107455
    93  H    0.070953
    94  H    0.066466
    95  H    0.082642
    96  H    0.085112
 Sum of Mulliken charges =  -0.00000

 Dipole moment (field-independent basis, Debye):
    X=              0.2792    Y=             -0.2805    Z=             -0.2686  Tot=              0.4783
 Quadrupole moment (field-independent basis, Debye-Ang):
   XX=           -235.5975   YY=           -231.1872   ZZ=           -255.0303
   XY=             -3.2666   XZ=              1.4632   YZ=             -1.6489

 Normal termination of Gaussian 16 at Tue Jul 30 01:23:52 2019.
