 Gaussian 16, Revision A.03,
 Gaussian 16:  ES64L-G16RevA.03 25-Dec-2016

 ---------------------------------
 # td=(NStates=1) B3LYP/6-31G(d,p)
 ---------------------------------

 --
 TD
 --
 Symbolic Z-matrix:
 Charge =  0 Multiplicity = 1

                         Standard orientation:
 ---------------------------------------------------------------------
 Center     Atomic      Atomic             Coordinates (Angstroms)
 Number     Number       Type             X           Y           Z
 ---------------------------------------------------------------------
      1          6           0       12.133133    0.505159   -0.649907
      2          6           0      -12.125260   -0.020969    0.945990
      3          6           0       13.374344   -0.357748   -0.442496
      4          6           0      -12.905358    1.125823    1.313839
      5          6           0       12.968615   -1.861923   -0.502279
      6          6           0      -13.315516    2.121845    0.196314
      7          6           0       10.922958   -0.032519    0.272522
      8          6           0      -11.009427    0.450211   -0.153127
      9          6           0       12.191948   -2.218231    0.716516
     10          6           0      -12.168410    2.633143   -0.538277
     11          6           0       11.049575   -1.192717    1.015093
     12          6           0      -11.006190    1.591172   -0.738499
     13          6           0       11.722884    0.550304   -2.123189
     14          6           0       12.618683    1.992161   -0.234983
     15          6           0      -13.056243   -1.066779    0.174351
     16          6           0      -11.522451   -0.708598    2.211950
     17          6           0        9.833250    0.894310    0.331770
     18          6           0       -9.898254   -0.562327   -0.188471
     19          6           0       10.055835   -1.741064    1.936662
     20          6           0      -10.016709    2.210133   -1.706956
     21          6           0        8.517493    0.534502    0.300025
     22          6           0       -8.615628   -0.331985   -0.199997
     23          6           0        7.395404    1.408371    0.420852
     24          6           0       -7.489727   -1.349122   -0.290070
     25          6           0        7.554499    2.959806    0.867612
     26          6           0       -7.863894   -2.781170   -0.583315
     27          6           0        6.187450    0.837881    0.204871
     28          6           0       -6.277531   -0.915828   -0.242981
     29          6           0        4.849613    1.429193    0.233572
     30          6           0       -5.006527   -1.706016   -0.355747
     31          6           0        3.779866    0.729276    0.022222
     32          6           0       -3.788185   -1.161185   -0.258394
     33          6           0        2.401413    1.324883    0.179956
     34          6           0       -2.435325   -1.907625   -0.506312
     35          6           0        2.184561    2.809099    0.378987
     36          6           0       -2.573813   -3.345137   -0.775966
     37          6           0        1.311397    0.560342   -0.050964
     38          6           0       -1.270086   -1.241847   -0.357602
     39          6           0        1.178444   -0.840405   -0.362005
     40          6           0        0.124009   -1.652542   -0.511378
     41          1           0       13.877405   -0.093892    0.532225
     42          1           0       14.079635   -0.293315   -1.387357
     43          1           0      -12.387383    1.435340    2.222418
     44          1           0      -13.811724    0.607110    1.727813
     45          1           0       13.913115   -2.443230   -0.642328
     46          1           0       12.396561   -1.921083   -1.506128
     47          1           0      -13.965944    2.986654    0.420767
     48          1           0      -14.100436    1.415846   -0.563216
     49          1           0       12.867213   -2.098968    1.602573
     50          1           0       11.806240   -3.188112    0.885008
     51          1           0      -11.767774    3.495912    0.058715
     52          1           0      -12.490322    3.164045   -1.405329
     53          1           0       11.661493   -0.425902   -2.596669
     54          1           0       12.389447    1.265775   -2.799094
     55          1           0       10.749015    1.004071   -2.199148
     56          1           0       12.642856    1.848511    1.021912
     57          1           0       12.007843    2.793466   -0.621167
     58          1           0       13.632003    2.219223   -0.644734
     59          1           0      -13.206856   -0.707885   -0.971381
     60          1           0      -13.888796   -1.409964    0.737929
     61          1           0      -12.427397   -1.715002    0.006246
     62          1           0      -10.851239   -0.183940    2.783484
     63          1           0      -10.987484   -1.664558    1.734168
     64          1           0      -12.139523   -1.117293    2.963960
     65          1           0       10.245631    1.876983    0.518203
     66          1           0      -10.219061   -1.694196   -0.502518
     67          1           0        9.453562   -1.005527    2.307825
     68          1           0       10.621263   -2.396838    2.832582
     69          1           0        9.350543   -2.428410    1.289223
     70          1           0       -8.960730    1.694482   -1.858848
     71          1           0       -9.626429    3.356039   -1.360774
     72          1           0      -10.332602    2.188612   -2.691009
     73          1           0        8.363641   -0.657289   -0.030256
     74          1           0       -8.373885    0.685214    0.209130
     75          1           0        8.306747    3.302178    1.532464
     76          1           0        6.621888    3.289429    0.992882
     77          1           0        7.889492    3.309892   -0.024943
     78          1           0       -8.332178   -3.053867   -1.605494
     79          1           0       -8.355501   -3.237477    0.246518
     80          1           0       -6.969515   -3.475806   -0.777933
     81          1           0        5.983030   -0.266309    0.056455
     82          1           0       -6.148787    0.107743    0.081520
     83          1           0        4.811047    2.600019    0.748267
     84          1           0       -5.115354   -2.628031   -0.707683
     85          1           0        3.841110   -0.304929   -0.191249
     86          1           0       -3.521824   -0.124843    0.123216
     87          1           0        2.663576    3.336995    1.422814
     88          1           0        1.250966    2.980009    0.424390
     89          1           0        2.645270    3.514024   -0.333894
     90          1           0       -2.902241   -3.286793   -1.861803
     91          1           0       -3.349623   -3.845766   -0.117838
     92          1           0       -1.576872   -3.766256   -0.476096
     93          1           0        0.353289    1.143591   -0.044632
     94          1           0       -1.272220   -0.065376   -0.100356
     95          1           0        2.287837   -1.396912   -0.453779
     96          1           0        0.304952   -2.754643   -0.708178
 ---------------------------------------------------------------------

 SCF Done:  E(RB3LYP) =  -1557.52916493     A.U. after   14 cycles

 Excitation energies and oscillator strengths:

 Excited State   1:      Singlet-A      2.7262 eV  454.78 nm  f=2.4751  <S**2>=0.000
     148 ->149         0.70323
 This state for optimization and/or second-order correction.
 Total Energy, E(TD-HF/TD-DFT) =  -1557.42897784
 Copying the excited state density for this state as the 1-particle RhoCI density.

 The electronic state is 1-A.
 Alpha  occ. eigenvalues --  -10.20746 -10.20650 -10.20544 -10.20268 -10.20118
 Alpha  occ. eigenvalues --  -10.19903 -10.19895 -10.19891 -10.19882 -10.19711
 Alpha  occ. eigenvalues --  -10.19673 -10.19495 -10.19302 -10.19300 -10.19237
 Alpha  occ. eigenvalues --  -10.19206 -10.19200 -10.19183 -10.19062 -10.19057
 Alpha  occ. eigenvalues --  -10.19030 -10.18865 -10.18835 -10.18672 -10.18510
 Alpha  occ. eigenvalues --  -10.18480 -10.18308 -10.18306 -10.18209 -10.18208
 Alpha  occ. eigenvalues --  -10.18165 -10.18035 -10.17967 -10.17939 -10.17811
 Alpha  occ. eigenvalues --  -10.17402 -10.17294 -10.17250 -10.16674 -10.15684
 Alpha  occ. eigenvalues --   -0.84978  -0.84294  -0.83564  -0.82989  -0.82059
 Alpha  occ. eigenvalues --   -0.81341  -0.79006  -0.78708  -0.78046  -0.77663
 Alpha  occ. eigenvalues --   -0.76979  -0.75619  -0.74546  -0.72406  -0.72239
 Alpha  occ. eigenvalues --   -0.70152  -0.70036  -0.69062  -0.68605  -0.68248
 Alpha  occ. eigenvalues --   -0.67331  -0.67158  -0.67084  -0.66544  -0.66310
 Alpha  occ. eigenvalues --   -0.62136  -0.60974  -0.59213  -0.58447  -0.57355
 Alpha  occ. eigenvalues --   -0.56582  -0.55424  -0.53900  -0.53543  -0.52830
 Alpha  occ. eigenvalues --   -0.52197  -0.51558  -0.49803  -0.49229  -0.48323
 Alpha  occ. eigenvalues --   -0.47950  -0.47100  -0.47004  -0.46572  -0.46268
 Alpha  occ. eigenvalues --   -0.45206  -0.45134  -0.44587  -0.44192  -0.44018
 Alpha  occ. eigenvalues --   -0.43422  -0.43218  -0.42847  -0.42580  -0.42536
 Alpha  occ. eigenvalues --   -0.42419  -0.41931  -0.41581  -0.41470  -0.41302
 Alpha  occ. eigenvalues --   -0.40920  -0.40783  -0.40111  -0.39726  -0.39432
 Alpha  occ. eigenvalues --   -0.38959  -0.38803  -0.38642  -0.38484  -0.38478
 Alpha  occ. eigenvalues --   -0.37996  -0.37902  -0.37310  -0.37174  -0.36519
 Alpha  occ. eigenvalues --   -0.36300  -0.36021  -0.35548  -0.35361  -0.34807
 Alpha  occ. eigenvalues --   -0.34671  -0.34618  -0.34123  -0.33860  -0.33324
 Alpha  occ. eigenvalues --   -0.33260  -0.32996  -0.32846  -0.32715  -0.32587
 Alpha  occ. eigenvalues --   -0.32279  -0.31795  -0.31200  -0.30986  -0.30913
 Alpha  occ. eigenvalues --   -0.30003  -0.29665  -0.28931  -0.28583  -0.28306
 Alpha  occ. eigenvalues --   -0.28179  -0.27074  -0.26162  -0.24623  -0.23460
 Alpha  occ. eigenvalues --   -0.21701  -0.19671  -0.17810
 Alpha virt. eigenvalues --   -0.06926  -0.04204  -0.01544   0.01292   0.02787
 Alpha virt. eigenvalues --    0.04389   0.05412   0.06302   0.07192   0.07373
 Alpha virt. eigenvalues --    0.07459   0.07631   0.07700   0.08261   0.08990

 Mulliken charges:
               1
     1  C    0.027461
     2  C   -0.004431
     3  C   -0.168305
     4  C   -0.149278
     5  C   -0.186784
     6  C   -0.171103
     7  C    0.031874
     8  C    0.046412
     9  C   -0.203441
    10  C   -0.205008
    11  C    0.068166
    12  C    0.069789
    13  C   -0.303424
    14  C   -0.308752
    15  C   -0.281244
    16  C   -0.318241
    17  C   -0.122547
    18  C   -0.120927
    19  C   -0.349865
    20  C   -0.358962
    21  C   -0.102690
    22  C   -0.100602
    23  C    0.072615
    24  C    0.137457
    25  C   -0.354008
    26  C   -0.389032
    27  C   -0.129160
    28  C   -0.123663
    29  C   -0.051214
    30  C   -0.081475
    31  C   -0.106105
    32  C   -0.089932
    33  C    0.116728
    34  C    0.093188
    35  C   -0.350540
    36  C   -0.363378
    37  C   -0.131697
    38  C   -0.121979
    39  C   -0.068721
    40  C   -0.096071
    41  H    0.086377
    42  H    0.073319
    43  H    0.081464
    44  H    0.074628
    45  H    0.083099
    46  H    0.086132
    47  H    0.090907
    48  H    0.047376
    49  H    0.099367
    50  H    0.104211
    51  H    0.099077
    52  H    0.106625
    53  H    0.102088
    54  H    0.075215
    55  H    0.109987
    56  H    0.072061
    57  H    0.102882
    58  H    0.105766
    59  H    0.080532
    60  H    0.101617
    61  H    0.108334
    62  H    0.118409
    63  H    0.083144
    64  H    0.108926
    65  H    0.090396
    66  H    0.069938
    67  H    0.131532
    68  H    0.074580
    69  H    0.105644
    70  H    0.097489
    71  H    0.079351
    72  H    0.131689
    73  H    0.072936
    74  H    0.080872
    75  H    0.127276
    76  H    0.114180
    77  H    0.142020
    78  H    0.113238
    79  H    0.132182
    80  H    0.094119
    81  H    0.076523
    82  H    0.073427
    83  H    0.059599
    84  H    0.072913
    85  H    0.084028
    86  H    0.074594
    87  H    0.071777
    88  H    0.118316
    89  H    0.125416
    90  H    0.130057
    91  H    0.118776
    92  H    0.109185
    93  H    0.073232
    94  H    0.062484
    95  H    0.055958
    96  H    0.083621
 Sum of Mulliken charges =  -0.00000

 Dipole moment (field-independent basis, Debye):
    X=              0.2054    Y=              0.1129    Z=              0.1384  Tot=              0.2722
 Quadrupole moment (field-independent basis, Debye-Ang):
   XX=           -242.2968   YY=           -232.6080   ZZ=           -253.3339
   XY=              3.6987   XZ=             -0.2966   YZ=              1.1824

 Normal termination of Gaussian 16 at Tue Jul 30 11:45:48 2019.
