 Gaussian 16, Revision A.03,
 Gaussian 16:  ES64L-G16RevA.03 25-Dec-2016

 ---------------------------------
 # td=(NStates=1) B3LYP/6-31G(d,p)
 ---------------------------------

 --
 TD
 --
 Symbolic Z-matrix:
 Charge =  0 Multiplicity = 1

                         Standard orientation:
 ---------------------------------------------------------------------
 Center     Atomic      Atomic             Coordinates (Angstroms)
 Number     Number       Type             X           Y           Z
 ---------------------------------------------------------------------
      1          6           0       12.083252    0.549957   -0.755403
      2          6           0      -12.125952   -0.118597    0.812065
      3          6           0       13.484650   -0.172220   -0.664627
      4          6           0      -13.012818    1.071125    1.336201
      5          6           0       13.243077   -1.751206   -0.554282
      6          6           0      -13.433089    2.001088    0.203325
      7          6           0       11.076774    0.014750    0.297975
      8          6           0      -11.022899    0.482578   -0.176653
      9          6           0       12.516680   -2.053285    0.719477
     10          6           0      -12.183347    2.674321   -0.321492
     11          6           0       11.177286   -1.159414    0.923522
     12          6           0      -11.004166    1.779781   -0.646809
     13          6           0       11.530690    0.467482   -2.132065
     14          6           0       12.496920    2.080394   -0.411035
     15          6           0      -13.061229   -1.132123   -0.008315
     16          6           0      -11.525751   -0.934196    2.014497
     17          6           0        9.866597    0.948357    0.342044
     18          6           0       -9.989834   -0.446976   -0.512085
     19          6           0       10.228686   -1.842323    1.887473
     20          6           0       -9.952589    2.188256   -1.566675
     21          6           0        8.618007    0.407385    0.254124
     22          6           0       -8.714708   -0.217028   -0.278115
     23          6           0        7.408934    1.255031    0.369820
     24          6           0       -7.528982   -1.225885   -0.440666
     25          6           0        7.589326    2.700431    0.601252
     26          6           0       -7.887715   -2.612416   -0.972547
     27          6           0        6.184318    0.712851    0.163149
     28          6           0       -6.261851   -0.879883   -0.251663
     29          6           0        4.940696    1.343886    0.278130
     30          6           0       -5.142252   -1.616677   -0.405044
     31          6           0        3.786308    0.694112    0.147592
     32          6           0       -3.847189   -1.137977   -0.317603
     33          6           0        2.425857    1.260064    0.358912
     34          6           0       -2.547464   -1.828619   -0.377680
     35          6           0        2.295357    2.686234    0.733154
     36          6           0       -2.603993   -3.253821   -0.490798
     37          6           0        1.222963    0.497412    0.274028
     38          6           0       -1.367412   -1.133453   -0.215425
     39          6           0        1.061466   -0.873861   -0.018009
     40          6           0        0.002014   -1.657706   -0.130013
     41          1           0       13.805331   -0.131017    0.309497
     42          1           0       14.174127    0.239058   -1.484904
     43          1           0      -12.507091    1.553361    2.137761
     44          1           0      -13.979365    0.542540    1.729616
     45          1           0       14.315358   -2.118951   -0.612511
     46          1           0       12.809581   -2.041741   -1.547572
     47          1           0      -14.044565    2.802706    0.518723
     48          1           0      -13.976258    1.534991   -0.757420
     49          1           0       13.267566   -2.112458    1.659429
     50          1           0       12.232752   -3.069286    0.572789
     51          1           0      -11.865705    3.408200    0.385094
     52          1           0      -12.441825    3.204473   -1.211501
     53          1           0       11.588898   -0.572343   -2.398816
     54          1           0       12.054884    1.135767   -2.875020
     55          1           0       10.472865    0.794912   -2.204185
     56          1           0       12.534884    2.114127    0.546664
     57          1           0       11.368905    2.670422   -0.755661
     58          1           0       13.255780    2.612616   -1.099601
     59          1           0      -13.399682   -0.692714   -0.860141
     60          1           0      -13.797258   -1.519666    0.738814
     61          1           0      -12.380334   -2.038518   -0.468795
     62          1           0      -11.155792   -0.184105    2.802698
     63          1           0      -10.950625   -1.674199    1.691404
     64          1           0      -12.354765   -1.322375    2.582359
     65          1           0       10.222888    2.109025    0.424831
     66          1           0      -10.284517   -1.531778   -0.667941
     67          1           0        9.583230   -0.988170    2.141718
     68          1           0       10.966330   -2.073997    2.820060
     69          1           0        9.792901   -2.746937    1.537907
     70          1           0       -9.493223    1.286237   -2.069424
     71          1           0       -9.123003    2.769449   -0.983841
     72          1           0      -10.285368    2.880924   -2.227138
     73          1           0        8.380184   -0.646516   -0.069451
     74          1           0       -8.379166    0.817767    0.079950
     75          1           0        8.000408    2.847379    1.664973
     76          1           0        6.726846    3.238980    0.475957
     77          1           0        8.361782    3.389073    0.024514
     78          1           0       -8.382435   -2.688157   -1.872569
     79          1           0       -8.438610   -3.152723   -0.316923
     80          1           0       -6.976050   -3.191304   -1.108367
     81          1           0        6.139501   -0.331481    0.096069
     82          1           0       -6.179654    0.199508   -0.116802
     83          1           0        5.027525    2.301929    0.614139
     84          1           0       -5.123739   -2.705699   -0.622968
     85          1           0        3.970882   -0.477356   -0.113684
     86          1           0       -3.610873   -0.060674    0.020616
     87          1           0        2.740689    2.716434    1.781519
     88          1           0        1.264343    2.953047    0.709647
     89          1           0        2.753814    3.492414    0.010439
     90          1           0       -3.157251   -3.734771   -1.306435
     91          1           0       -3.038021   -3.630093    0.379054
     92          1           0       -1.699466   -3.879185   -0.796576
     93          1           0        0.318035    1.141291    0.176818
     94          1           0       -1.405855   -0.037485   -0.175756
     95          1           0        1.934302   -1.321016    0.101256
     96          1           0        0.206185   -2.688900   -0.428721
 ---------------------------------------------------------------------

 SCF Done:  E(RB3LYP) =  -1557.62461318     A.U. after   14 cycles

 Excitation energies and oscillator strengths:

 Excited State   1:      Singlet-A      2.3092 eV  536.92 nm  f=2.8329  <S**2>=0.000
     148 ->149         0.70458
 This state for optimization and/or second-order correction.
 Total Energy, E(TD-HF/TD-DFT) =  -1557.53975309
 Copying the excited state density for this state as the 1-particle RhoCI density.

 The electronic state is 1-A.
 Alpha  occ. eigenvalues --  -10.21098 -10.20346 -10.20118 -10.20054 -10.19814
 Alpha  occ. eigenvalues --  -10.19775 -10.19759 -10.19712 -10.19618 -10.19564
 Alpha  occ. eigenvalues --  -10.19374 -10.19215 -10.19146 -10.19030 -10.18944
 Alpha  occ. eigenvalues --  -10.18848 -10.18817 -10.18774 -10.18632 -10.18602
 Alpha  occ. eigenvalues --  -10.18589 -10.18540 -10.18373 -10.18320 -10.18200
 Alpha  occ. eigenvalues --  -10.18098 -10.17928 -10.17774 -10.17741 -10.17706
 Alpha  occ. eigenvalues --  -10.17667 -10.17370 -10.17364 -10.17097 -10.17023
 Alpha  occ. eigenvalues --  -10.16920 -10.16891 -10.16567 -10.16519 -10.16102
 Alpha  occ. eigenvalues --   -0.84413  -0.84380  -0.83706  -0.83302  -0.82242
 Alpha  occ. eigenvalues --   -0.81181  -0.79228  -0.78469  -0.77870  -0.77671
 Alpha  occ. eigenvalues --   -0.77125  -0.75453  -0.74777  -0.72537  -0.71966
 Alpha  occ. eigenvalues --   -0.70279  -0.69017  -0.68680  -0.68063  -0.67890
 Alpha  occ. eigenvalues --   -0.67484  -0.67417  -0.66913  -0.66184  -0.66151
 Alpha  occ. eigenvalues --   -0.62439  -0.61613  -0.59575  -0.58180  -0.56723
 Alpha  occ. eigenvalues --   -0.56442  -0.55426  -0.54500  -0.54364  -0.53070
 Alpha  occ. eigenvalues --   -0.52617  -0.52194  -0.50846  -0.49449  -0.48898
 Alpha  occ. eigenvalues --   -0.48052  -0.47899  -0.47050  -0.46636  -0.46007
 Alpha  occ. eigenvalues --   -0.45372  -0.45100  -0.44822  -0.44308  -0.44125
 Alpha  occ. eigenvalues --   -0.43641  -0.43508  -0.43422  -0.42831  -0.42715
 Alpha  occ. eigenvalues --   -0.42244  -0.41923  -0.41674  -0.41367  -0.41296
 Alpha  occ. eigenvalues --   -0.41196  -0.40829  -0.40485  -0.39907  -0.39703
 Alpha  occ. eigenvalues --   -0.39286  -0.39223  -0.38988  -0.38887  -0.38260
 Alpha  occ. eigenvalues --   -0.37662  -0.37611  -0.37184  -0.36848  -0.36573
 Alpha  occ. eigenvalues --   -0.36297  -0.36049  -0.35482  -0.35288  -0.34921
 Alpha  occ. eigenvalues --   -0.34604  -0.34307  -0.34085  -0.34031  -0.33574
 Alpha  occ. eigenvalues --   -0.33342  -0.33226  -0.32992  -0.32888  -0.32704
 Alpha  occ. eigenvalues --   -0.32555  -0.32279  -0.31690  -0.31356  -0.31198
 Alpha  occ. eigenvalues --   -0.31102  -0.30266  -0.29450  -0.29211  -0.28000
 Alpha  occ. eigenvalues --   -0.27405  -0.26219  -0.25422  -0.24411  -0.22778
 Alpha  occ. eigenvalues --   -0.21103  -0.19231  -0.16714
 Alpha virt. eigenvalues --   -0.07854  -0.04804  -0.01438   0.00972   0.02787
 Alpha virt. eigenvalues --    0.04431   0.06003   0.06311   0.07190   0.07345
 Alpha virt. eigenvalues --    0.08382   0.08714   0.08876   0.09300   0.09674

 Mulliken charges:
               1
     1  C    0.001497
     2  C   -0.011851
     3  C   -0.169572
     4  C   -0.170666
     5  C   -0.205934
     6  C   -0.176708
     7  C    0.063198
     8  C    0.074246
     9  C   -0.220430
    10  C   -0.227390
    11  C    0.034603
    12  C    0.075225
    13  C   -0.289608
    14  C   -0.281359
    15  C   -0.287230
    16  C   -0.290272
    17  C   -0.141997
    18  C   -0.163371
    19  C   -0.348837
    20  C   -0.364886
    21  C   -0.107122
    22  C   -0.074695
    23  C    0.135564
    24  C    0.087097
    25  C   -0.379191
    26  C   -0.384801
    27  C   -0.129073
    28  C   -0.091969
    29  C   -0.036483
    30  C   -0.083493
    31  C   -0.119081
    32  C   -0.127895
    33  C    0.083918
    34  C    0.150670
    35  C   -0.361975
    36  C   -0.400232
    37  C   -0.127914
    38  C   -0.141830
    39  C   -0.049316
    40  C   -0.088001
    41  H    0.103064
    42  H    0.076337
    43  H    0.100485
    44  H    0.068376
    45  H    0.082056
    46  H    0.093791
    47  H    0.097833
    48  H    0.081338
    49  H    0.086724
    50  H    0.111041
    51  H    0.104585
    52  H    0.093890
    53  H    0.099831
    54  H    0.089647
    55  H    0.106121
    56  H    0.121444
    57  H    0.032281
    58  H    0.103067
    59  H    0.117886
    60  H    0.099791
    61  H    0.064235
    62  H    0.087812
    63  H    0.113016
    64  H    0.097493
    65  H    0.101906
    66  H    0.075462
    67  H    0.123019
    68  H    0.087148
    69  H    0.127146
    70  H    0.126333
    71  H    0.092841
    72  H    0.104355
    73  H    0.096013
    74  H    0.077637
    75  H    0.113312
    76  H    0.114780
    77  H    0.101376
    78  H    0.126539
    79  H    0.124400
    80  H    0.100357
    81  H    0.065877
    82  H    0.075262
    83  H    0.077701
    84  H    0.082448
    85  H    0.070197
    86  H    0.062037
    87  H    0.123670
    88  H    0.116277
    89  H    0.102326
    90  H    0.114892
    91  H    0.136451
    92  H    0.095955
    93  H    0.069897
    94  H    0.077400
    95  H    0.069612
    96  H    0.082389
 Sum of Mulliken charges =  -0.00000

 Dipole moment (field-independent basis, Debye):
    X=              0.1519    Y=              0.1698    Z=              0.2032  Tot=              0.3052
 Quadrupole moment (field-independent basis, Debye-Ang):
   XX=           -222.6088   YY=           -232.0205   ZZ=           -254.1372
   XY=             -3.2359   XZ=              1.7581   YZ=              2.9755

 Normal termination of Gaussian 16 at Fri Jul 26 20:06:07 2019.
