 Gaussian 16, Revision A.03,
 Gaussian 16:  ES64L-G16RevA.03 25-Dec-2016

 ---------------------------------
 # td=(NStates=1) B3LYP/6-31G(d,p)
 ---------------------------------

 --
 TD
 --
 Symbolic Z-matrix:
 Charge =  0 Multiplicity = 1

                         Standard orientation:
 ---------------------------------------------------------------------
 Center     Atomic      Atomic             Coordinates (Angstroms)
 Number     Number       Type             X           Y           Z
 ---------------------------------------------------------------------
      1          6           0       12.208501   -0.500861    0.715211
      2          6           0      -12.042276    0.175018   -0.791590
      3          6           0       13.451309    0.490938    0.550252
      4          6           0      -12.999347   -1.167874   -1.168383
      5          6           0       13.065328    1.948325    0.559445
      6          6           0      -13.396564   -2.029296    0.038440
      7          6           0       11.041496    0.019618   -0.077327
      8          6           0      -10.890306   -0.305242    0.222767
      9          6           0       12.110236    2.243483   -0.632983
     10          6           0      -12.110255   -2.593399    0.707343
     11          6           0       10.954163    1.285040   -0.619374
     12          6           0      -11.010086   -1.560426    0.844152
     13          6           0       11.843031   -0.577958    2.219513
     14          6           0       12.596738   -1.922138    0.258850
     15          6           0      -12.984792    1.140039   -0.216361
     16          6           0      -11.400265    0.556899   -2.125455
     17          6           0        9.882986   -0.845333   -0.180340
     18          6           0       -9.866018    0.558287    0.310504
     19          6           0        9.862558    1.689590   -1.608761
     20          6           0       -9.955507   -1.989130    1.941397
     21          6           0        8.505722   -0.569825   -0.127713
     22          6           0       -8.529043    0.254098    0.245608
     23          6           0        7.367150   -1.384897   -0.373936
     24          6           0       -7.488597    1.375545    0.471108
     25          6           0        7.684422   -2.868507   -0.666418
     26          6           0       -7.917237    2.789189    0.673891
     27          6           0        6.202039   -0.833628   -0.193966
     28          6           0       -6.191271    0.924796    0.401143
     29          6           0        4.879863   -1.498357   -0.470467
     30          6           0       -5.010757    1.636280    0.469542
     31          6           0        3.681006   -0.778404   -0.408189
     32          6           0       -3.774730    1.044163    0.313725
     33          6           0        2.389956   -1.343343   -0.644726
     34          6           0       -2.540228    1.777178    0.289578
     35          6           0        2.282811   -2.748247   -0.892079
     36          6           0       -2.540326    3.301133    0.501252
     37          6           0        1.225771   -0.630069   -0.550656
     38          6           0       -1.421622    1.029365    0.172397
     39          6           0        1.119023    0.814048   -0.193015
     40          6           0       -0.082938    1.462989    0.054181
     41          1           0       13.967750    0.306492   -0.491134
     42          1           0       14.168581    0.140527    1.285972
     43          1           0      -12.467093   -1.746324   -1.863174
     44          1           0      -13.704463   -0.732468   -1.967215
     45          1           0       13.882754    2.428119    0.642228
     46          1           0       12.461469    2.211184    1.544087
     47          1           0      -14.063376   -2.728155   -0.298907
     48          1           0      -14.039566   -1.408588    0.736775
     49          1           0       12.974285    2.359022   -1.397300
     50          1           0       11.724426    3.281878   -0.560050
     51          1           0      -11.998962   -3.537186   -0.071465
     52          1           0      -12.364058   -3.151010    1.623840
     53          1           0       11.695958    0.300014    2.884650
     54          1           0       12.524604   -1.259797    2.763935
     55          1           0       10.768619   -1.144713    2.306044
     56          1           0       12.489662   -1.883947   -0.866095
     57          1           0       11.903169   -2.690501    0.997166
     58          1           0       13.894091   -2.072432    0.557480
     59          1           0      -13.146082    0.689249    0.811381
     60          1           0      -14.036073    1.068814   -0.824353
     61          1           0      -12.558229    2.150068   -0.271833
     62          1           0      -10.614356   -0.263703   -2.599059
     63          1           0      -10.790838    1.525995   -2.020087
     64          1           0      -12.242992    0.828932   -2.988311
     65          1           0       10.046205   -2.041214   -0.219288
     66          1           0      -10.161965    1.621420    0.533678
     67          1           0        9.267244    0.951015   -2.016860
     68          1           0       10.251467    2.284271   -2.521165
     69          1           0        9.087786    2.404360   -1.199800
     70          1           0       -9.195435   -1.100852    2.236550
     71          1           0       -9.302836   -3.022835    1.757495
     72          1           0      -10.598736   -2.335791    2.818158
     73          1           0        8.329481    0.443773    0.096393
     74          1           0       -8.180622   -0.684295    0.077687
     75          1           0        8.016388   -3.202910   -1.606575
     76          1           0        6.716996   -3.419704   -0.364206
     77          1           0        8.327034   -3.248413    0.105023
     78          1           0       -8.928348    2.697918    1.177078
     79          1           0       -8.240351    3.419871   -0.271008
     80          1           0       -7.086568    3.358167    1.134754
     81          1           0        6.068402    0.151869    0.175254
     82          1           0       -5.816087   -0.202886    0.226783
     83          1           0        4.898678   -2.503280   -0.704335
     84          1           0       -5.079672    2.678438    0.389956
     85          1           0        3.668209    0.340064   -0.070072
     86          1           0       -3.716653    0.094510   -0.006987
     87          1           0        2.711858   -2.937947   -1.854204
     88          1           0        1.303008   -3.228657   -1.252536
     89          1           0        2.770049   -3.343932   -0.016416
     90          1           0       -3.179583    3.595847    1.347212
     91          1           0       -2.794020    3.978044   -0.414669
     92          1           0       -1.447280    3.788768    0.871534
     93          1           0        0.153816   -1.187364   -0.612556
     94          1           0       -1.568767   -0.086537    0.042630
     95          1           0        1.948532    1.371561    0.039188
     96          1           0        0.090850    2.480734    0.055369
 ---------------------------------------------------------------------

 SCF Done:  E(RB3LYP) =  -1557.56231326     A.U. after   15 cycles

 Excitation energies and oscillator strengths:

 Excited State   1:      Singlet-A      2.1430 eV  578.57 nm  f=3.0742  <S**2>=0.000
     148 ->149         0.70448
 This state for optimization and/or second-order correction.
 Total Energy, E(TD-HF/TD-DFT) =  -1557.48356113
 Copying the excited state density for this state as the 1-particle RhoCI density.

 The electronic state is 1-A.
 Alpha  occ. eigenvalues --  -10.21517 -10.20771 -10.20699 -10.20643 -10.20340
 Alpha  occ. eigenvalues --  -10.20236 -10.20226 -10.20180 -10.20061 -10.20028
 Alpha  occ. eigenvalues --  -10.19979 -10.19963 -10.19943 -10.19867 -10.19475
 Alpha  occ. eigenvalues --  -10.19408 -10.19374 -10.19294 -10.19207 -10.19058
 Alpha  occ. eigenvalues --  -10.19033 -10.18890 -10.18871 -10.18809 -10.18785
 Alpha  occ. eigenvalues --  -10.18557 -10.18440 -10.18411 -10.18376 -10.18312
 Alpha  occ. eigenvalues --  -10.18307 -10.18196 -10.18109 -10.18002 -10.17948
 Alpha  occ. eigenvalues --  -10.17923 -10.17812 -10.17677 -10.17667 -10.16940
 Alpha  occ. eigenvalues --   -0.84973  -0.84474  -0.83831  -0.83484  -0.82464
 Alpha  occ. eigenvalues --   -0.81442  -0.78957  -0.77999  -0.77700  -0.77535
 Alpha  occ. eigenvalues --   -0.77192  -0.75051  -0.74253  -0.71792  -0.71361
 Alpha  occ. eigenvalues --   -0.69660  -0.69397  -0.68287  -0.67791  -0.67458
 Alpha  occ. eigenvalues --   -0.66777  -0.66580  -0.65970  -0.65727  -0.65418
 Alpha  occ. eigenvalues --   -0.62653  -0.61871  -0.59960  -0.59276  -0.57088
 Alpha  occ. eigenvalues --   -0.56167  -0.55590  -0.55179  -0.54038  -0.53626
 Alpha  occ. eigenvalues --   -0.53043  -0.52402  -0.50806  -0.50098  -0.49001
 Alpha  occ. eigenvalues --   -0.47912  -0.47700  -0.47110  -0.46484  -0.45951
 Alpha  occ. eigenvalues --   -0.45432  -0.45273  -0.44694  -0.44371  -0.44218
 Alpha  occ. eigenvalues --   -0.43522  -0.43349  -0.42939  -0.42700  -0.42540
 Alpha  occ. eigenvalues --   -0.41869  -0.41232  -0.41039  -0.40893  -0.40615
 Alpha  occ. eigenvalues --   -0.40320  -0.39521  -0.39411  -0.39342  -0.38935
 Alpha  occ. eigenvalues --   -0.38810  -0.38460  -0.38108  -0.37989  -0.37415
 Alpha  occ. eigenvalues --   -0.37373  -0.37153  -0.36922  -0.36660  -0.36587
 Alpha  occ. eigenvalues --   -0.36214  -0.35774  -0.35493  -0.35125  -0.35008
 Alpha  occ. eigenvalues --   -0.34539  -0.34268  -0.34167  -0.34137  -0.33681
 Alpha  occ. eigenvalues --   -0.33194  -0.33073  -0.32921  -0.32870  -0.32672
 Alpha  occ. eigenvalues --   -0.32621  -0.32295  -0.31473  -0.31276  -0.30820
 Alpha  occ. eigenvalues --   -0.30536  -0.30124  -0.29516  -0.29203  -0.28629
 Alpha  occ. eigenvalues --   -0.27857  -0.27107  -0.26427  -0.24693  -0.22747
 Alpha  occ. eigenvalues --   -0.20897  -0.18729  -0.16436
 Alpha virt. eigenvalues --   -0.08290  -0.05418  -0.02528  -0.00530   0.01696
 Alpha virt. eigenvalues --    0.03935   0.05577   0.06176   0.06950   0.07339
 Alpha virt. eigenvalues --    0.07677   0.08489   0.08555   0.08858   0.08984

 Mulliken charges:
               1
     1  C    0.027603
     2  C    0.001294
     3  C   -0.171359
     4  C   -0.181460
     5  C   -0.174198
     6  C   -0.194099
     7  C    0.102721
     8  C    0.066115
     9  C   -0.220208
    10  C   -0.215900
    11  C    0.061015
    12  C    0.078785
    13  C   -0.305616
    14  C   -0.274247
    15  C   -0.271834
    16  C   -0.284849
    17  C   -0.147854
    18  C   -0.140231
    19  C   -0.370687
    20  C   -0.353721
    21  C   -0.109826
    22  C   -0.059178
    23  C    0.149329
    24  C    0.082738
    25  C   -0.383280
    26  C   -0.369892
    27  C   -0.123056
    28  C   -0.106154
    29  C   -0.098125
    30  C   -0.072359
    31  C   -0.109187
    32  C   -0.116287
    33  C    0.151317
    34  C    0.150751
    35  C   -0.383210
    36  C   -0.377110
    37  C   -0.143568
    38  C   -0.112706
    39  C   -0.083823
    40  C   -0.100575
    41  H    0.067510
    42  H    0.088994
    43  H    0.095235
    44  H    0.071789
    45  H    0.093175
    46  H    0.070561
    47  H    0.102255
    48  H    0.084989
    49  H    0.100516
    50  H    0.097788
    51  H    0.085787
    52  H    0.105676
    53  H    0.107020
    54  H    0.099431
    55  H    0.078659
    56  H    0.116642
    57  H    0.085847
    58  H    0.051879
    59  H    0.108754
    60  H    0.083304
    61  H    0.095924
    62  H    0.090071
    63  H    0.089648
    64  H    0.068190
    65  H    0.061023
    66  H    0.078327
    67  H    0.134253
    68  H    0.092553
    69  H    0.101446
    70  H    0.107804
    71  H    0.083530
    72  H    0.099055
    73  H    0.073346
    74  H    0.091130
    75  H    0.134427
    76  H    0.092528
    77  H    0.130530
    78  H    0.117295
    79  H    0.110312
    80  H    0.118451
    81  H    0.081090
    82  H    0.060661
    83  H    0.085462
    84  H    0.077942
    85  H    0.076294
    86  H    0.077962
    87  H    0.125653
    88  H    0.097837
    89  H    0.110616
    90  H    0.126004
    91  H    0.116777
    92  H    0.083587
    93  H    0.075437
    94  H    0.069682
    95  H    0.080956
    96  H    0.071316
 Sum of Mulliken charges =  -0.00000

 Dipole moment (field-independent basis, Debye):
    X=              0.1632    Y=              0.1458    Z=             -0.2379  Tot=              0.3233
 Quadrupole moment (field-independent basis, Debye-Ang):
   XX=           -231.9817   YY=           -234.3397   ZZ=           -256.2636
   XY=              4.0626   XZ=              0.8058   YZ=              1.8886

 Normal termination of Gaussian 16 at Mon Jul 29 23:22:21 2019.
