 Gaussian 16, Revision A.03,
 Gaussian 16:  ES64L-G16RevA.03 25-Dec-2016

 ---------------------------------
 # td=(NStates=1) B3LYP/6-31G(d,p)
 ---------------------------------

 --
 TD
 --
 Symbolic Z-matrix:
 Charge =  0 Multiplicity = 1

                         Standard orientation:
 ---------------------------------------------------------------------
 Center     Atomic      Atomic             Coordinates (Angstroms)
 Number     Number       Type             X           Y           Z
 ---------------------------------------------------------------------
      1          6           0       12.201213    0.496189   -0.690853
      2          6           0      -12.160777   -0.240294    0.797708
      3          6           0       13.434241   -0.394213   -0.603214
      4          6           0      -13.045737    1.038553    1.265581
      5          6           0       13.168028   -1.932280   -0.443042
      6          6           0      -13.491693    2.064240    0.170704
      7          6           0       11.086424   -0.104764    0.235223
      8          6           0      -10.970333    0.339912   -0.104670
      9          6           0       12.325095   -2.130161    0.747501
     10          6           0      -12.119808    2.571442   -0.457164
     11          6           0       11.106401   -1.217692    1.027911
     12          6           0      -11.030831    1.543788   -0.720868
     13          6           0       11.591133    0.486826   -2.177025
     14          6           0       12.582557    1.837273   -0.311552
     15          6           0      -12.987962   -1.155263    0.003104
     16          6           0      -11.580880   -0.793457    2.084434
     17          6           0        9.919585    0.794368    0.262316
     18          6           0       -9.898580   -0.526766   -0.295612
     19          6           0       10.134437   -1.567344    2.050180
     20          6           0       -9.842418    2.111181   -1.566129
     21          6           0        8.581700    0.466789    0.296065
     22          6           0       -8.562607   -0.241655   -0.358895
     23          6           0        7.401061    1.381125    0.388641
     24          6           0       -7.481104   -1.242031   -0.352545
     25          6           0        7.694788    2.959840    0.421382
     26          6           0       -7.864868   -2.673430   -0.732339
     27          6           0        6.147460    0.868149    0.285199
     28          6           0       -6.229905   -0.789394   -0.196147
     29          6           0        4.838930    1.478190    0.294360
     30          6           0       -4.947859   -1.583824   -0.215696
     31          6           0        3.684994    0.844839    0.124926
     32          6           0       -3.780213   -1.081222   -0.219457
     33          6           0        2.310427    1.219661    0.213170
     34          6           0       -2.504385   -1.766369   -0.442066
     35          6           0        2.174412    2.676186    0.740166
     36          6           0       -2.614767   -3.216884   -0.737098
     37          6           0        1.209973    0.521688    0.084749
     38          6           0       -1.394435   -1.058688   -0.211084
     39          6           0        1.154248   -0.924642   -0.336341
     40          6           0       -0.007341   -1.580821   -0.402898
     41          1           0       13.940360   -0.241649    0.498767
     42          1           0       14.066814   -0.163517   -1.438670
     43          1           0      -12.632643    1.614266    2.121001
     44          1           0      -14.173669    0.694528    1.644094
     45          1           0       14.058130   -2.563085   -0.550547
     46          1           0       12.718105   -2.137264   -1.337880
     47          1           0      -13.949122    2.907046    0.636605
     48          1           0      -13.968926    1.587582   -0.650738
     49          1           0       12.790563   -2.202465    1.923158
     50          1           0       11.792289   -3.115809    0.683816
     51          1           0      -11.774962    3.266795    0.392946
     52          1           0      -12.314756    3.088766   -1.409877
     53          1           0       11.381333   -0.469708   -2.594860
     54          1           0       12.288289    1.012751   -2.902105
     55          1           0       10.649825    1.132099   -2.137605
     56          1           0       12.541868    2.019126    0.829186
     57          1           0       11.893014    2.580990   -0.633637
     58          1           0       13.411082    2.194849   -0.927962
     59          1           0      -13.299516   -0.794104   -0.894817
     60          1           0      -13.807618   -1.455500    0.867392
     61          1           0      -12.362363   -2.032329   -0.528599
     62          1           0      -10.725186   -0.208081    2.471697
     63          1           0      -11.076523   -1.751003    2.035647
     64          1           0      -12.362862   -0.903765    2.863132
     65          1           0       10.089777    2.077387    0.289188
     66          1           0      -10.200562   -1.560526   -0.402602
     67          1           0        9.472772   -0.686629    2.070097
     68          1           0       10.493721   -2.108224    2.969299
     69          1           0        9.444675   -2.336197    1.679161
     70          1           0       -9.302519    1.342884   -2.116368
     71          1           0       -9.000529    2.687673   -0.968085
     72          1           0      -10.260797    3.009870   -2.101090
     73          1           0        8.467284   -0.709826    0.289393
     74          1           0       -8.133477    0.788836   -0.141310
     75          1           0        8.180982    3.384313    1.556511
     76          1           0        6.779785    3.622869    0.265678
     77          1           0        8.565096    3.098173   -0.410623
     78          1           0       -8.296388   -2.661433   -1.668942
     79          1           0       -8.588025   -2.919609   -0.110064
     80          1           0       -6.843512   -3.414203   -0.798281
     81          1           0        6.122723   -0.189782    0.107104
     82          1           0       -6.248372    0.268935   -0.011941
     83          1           0        4.663219    2.598702    0.339646
     84          1           0       -5.040396   -2.738214   -0.341065
     85          1           0        3.637005   -0.245404    0.076665
     86          1           0       -3.750794    0.001761   -0.088417
     87          1           0        2.800159    3.085155    1.610782
     88          1           0        1.096013    3.011400    1.033044
     89          1           0        2.540923    3.343906    0.037701
     90          1           0       -3.198954   -3.240771   -1.637956
     91          1           0       -3.277002   -3.732182    0.193921
     92          1           0       -1.574772   -3.694121   -0.848760
     93          1           0        0.329326    1.196623    0.182982
     94          1           0       -1.690099   -0.083262   -0.024500
     95          1           0        2.224526   -1.442795   -0.593033
     96          1           0        0.031055   -2.690088   -0.910034
 ---------------------------------------------------------------------

 SCF Done:  E(RB3LYP) =  -1557.57215566     A.U. after   14 cycles

 Excitation energies and oscillator strengths:

 Excited State   1:      Singlet-A      2.7115 eV  457.25 nm  f=2.5446  <S**2>=0.000
     148 ->149         0.70289
 This state for optimization and/or second-order correction.
 Total Energy, E(TD-HF/TD-DFT) =  -1557.47250987
 Copying the excited state density for this state as the 1-particle RhoCI density.

 The electronic state is 1-A.
 Alpha  occ. eigenvalues --  -10.22188 -10.21328 -10.20819 -10.20757 -10.20639
 Alpha  occ. eigenvalues --  -10.20022 -10.20005 -10.19948 -10.19879 -10.19858
 Alpha  occ. eigenvalues --  -10.19691 -10.19645 -10.19505 -10.19481 -10.19410
 Alpha  occ. eigenvalues --  -10.19337 -10.19171 -10.19112 -10.18957 -10.18948
 Alpha  occ. eigenvalues --  -10.18913 -10.18885 -10.18682 -10.18593 -10.18564
 Alpha  occ. eigenvalues --  -10.18487 -10.18445 -10.18269 -10.18212 -10.18164
 Alpha  occ. eigenvalues --  -10.18078 -10.18036 -10.18007 -10.17935 -10.17906
 Alpha  occ. eigenvalues --  -10.17899 -10.17636 -10.17589 -10.17264 -10.16959
 Alpha  occ. eigenvalues --   -0.85170  -0.84802  -0.84118  -0.83415  -0.81930
 Alpha  occ. eigenvalues --   -0.80962  -0.79501  -0.78732  -0.78196  -0.77659
 Alpha  occ. eigenvalues --   -0.77016  -0.75621  -0.74270  -0.71978  -0.71780
 Alpha  occ. eigenvalues --   -0.69885  -0.69509  -0.69061  -0.68061  -0.67874
 Alpha  occ. eigenvalues --   -0.67690  -0.67033  -0.66817  -0.66321  -0.65589
 Alpha  occ. eigenvalues --   -0.62436  -0.61665  -0.60111  -0.59064  -0.56931
 Alpha  occ. eigenvalues --   -0.56550  -0.55273  -0.54666  -0.53424  -0.52448
 Alpha  occ. eigenvalues --   -0.51582  -0.51173  -0.49755  -0.49477  -0.48978
 Alpha  occ. eigenvalues --   -0.48368  -0.47841  -0.47528  -0.47005  -0.46098
 Alpha  occ. eigenvalues --   -0.45746  -0.45449  -0.45126  -0.44386  -0.43711
 Alpha  occ. eigenvalues --   -0.43297  -0.43205  -0.43054  -0.42670  -0.42120
 Alpha  occ. eigenvalues --   -0.41968  -0.41945  -0.41324  -0.40759  -0.40539
 Alpha  occ. eigenvalues --   -0.40434  -0.40032  -0.39734  -0.39596  -0.39287
 Alpha  occ. eigenvalues --   -0.38874  -0.38655  -0.38561  -0.38242  -0.37714
 Alpha  occ. eigenvalues --   -0.37689  -0.37345  -0.37147  -0.36860  -0.36775
 Alpha  occ. eigenvalues --   -0.36615  -0.36165  -0.36022  -0.35504  -0.35394
 Alpha  occ. eigenvalues --   -0.35172  -0.34983  -0.34280  -0.34121  -0.33860
 Alpha  occ. eigenvalues --   -0.33453  -0.33113  -0.32990  -0.32636  -0.32296
 Alpha  occ. eigenvalues --   -0.32103  -0.31954  -0.31648  -0.31426  -0.30819
 Alpha  occ. eigenvalues --   -0.30374  -0.29552  -0.29268  -0.28948  -0.28301
 Alpha  occ. eigenvalues --   -0.28165  -0.27705  -0.26628  -0.24777  -0.23197
 Alpha  occ. eigenvalues --   -0.21290  -0.19073  -0.17823
 Alpha virt. eigenvalues --   -0.06841  -0.04771  -0.01880   0.00575   0.03147
 Alpha virt. eigenvalues --    0.04218   0.05792   0.06069   0.06412   0.06599
 Alpha virt. eigenvalues --    0.07322   0.07484   0.08022   0.08182   0.08921

 Mulliken charges:
               1
     1  C    0.029942
     2  C    0.017975
     3  C   -0.176828
     4  C   -0.175056
     5  C   -0.188961
     6  C   -0.190377
     7  C    0.049500
     8  C    0.064658
     9  C   -0.207704
    10  C   -0.226983
    11  C    0.095617
    12  C    0.052343
    13  C   -0.313690
    14  C   -0.294606
    15  C   -0.266012
    16  C   -0.313054
    17  C   -0.124316
    18  C   -0.139905
    19  C   -0.391337
    20  C   -0.351890
    21  C   -0.128226
    22  C   -0.108062
    23  C    0.113646
    24  C    0.122882
    25  C   -0.342283
    26  C   -0.354603
    27  C   -0.120894
    28  C   -0.146082
    29  C   -0.070087
    30  C   -0.091458
    31  C   -0.091219
    32  C   -0.088364
    33  C    0.138181
    34  C    0.130861
    35  C   -0.393472
    36  C   -0.363361
    37  C   -0.128948
    38  C   -0.093764
    39  C   -0.103498
    40  C   -0.101069
    41  H    0.069446
    42  H    0.082788
    43  H    0.096730
    44  H    0.049433
    45  H    0.099539
    46  H    0.111282
    47  H    0.104102
    48  H    0.107130
    49  H    0.065092
    50  H    0.096380
    51  H    0.095966
    52  H    0.090359
    53  H    0.111461
    54  H    0.082812
    55  H    0.107491
    56  H    0.103592
    57  H    0.099948
    58  H    0.099390
    59  H    0.121194
    60  H    0.084590
    61  H    0.072892
    62  H    0.112068
    63  H    0.098893
    64  H    0.099262
    65  H    0.052444
    66  H    0.076346
    67  H    0.137503
    68  H    0.110486
    69  H    0.117131
    70  H    0.129257
    71  H    0.093186
    72  H    0.089334
    73  H    0.079305
    74  H    0.082795
    75  H    0.078906
    76  H    0.114916
    77  H    0.108222
    78  H    0.133499
    79  H    0.131644
    80  H    0.077867
    81  H    0.080085
    82  H    0.067259
    83  H    0.068630
    84  H    0.065554
    85  H    0.058839
    86  H    0.071602
    87  H    0.108391
    88  H    0.085150
    89  H    0.126738
    90  H    0.133153
    91  H    0.099837
    92  H    0.101217
    93  H    0.090427
    94  H    0.076442
    95  H    0.092738
    96  H    0.069763
 Sum of Mulliken charges =  -0.00000

 Dipole moment (field-independent basis, Debye):
    X=             -0.6823    Y=             -0.1585    Z=             -0.7205  Tot=              1.0049
 Quadrupole moment (field-independent basis, Debye-Ang):
   XX=           -225.7685   YY=           -237.1961   ZZ=           -254.4448
   XY=             -7.7207   XZ=             -6.1838   YZ=              2.9551

 Normal termination of Gaussian 16 at Tue Jul 30 16:58:49 2019.
