 Gaussian 16, Revision A.03,
 Gaussian 16:  ES64L-G16RevA.03 25-Dec-2016

 ---------------------------------
 # td=(NStates=1) B3LYP/6-31G(d,p)
 ---------------------------------

 --
 TD
 --
 Symbolic Z-matrix:
 Charge =  0 Multiplicity = 1

                         Standard orientation:
 ---------------------------------------------------------------------
 Center     Atomic      Atomic             Coordinates (Angstroms)
 Number     Number       Type             X           Y           Z
 ---------------------------------------------------------------------
      1          6           0       12.184059    0.414575   -0.592359
      2          6           0      -12.103461   -0.220926    0.893468
      3          6           0       13.526018   -0.456991   -0.397473
      4          6           0      -13.088912    0.945218    1.469786
      5          6           0       13.186491   -2.013486   -0.168971
      6          6           0      -13.418619    1.957809    0.297047
      7          6           0       11.055401    0.014372    0.312773
      8          6           0      -11.062964    0.404101   -0.007676
      9          6           0       12.269720   -2.036509    1.049561
     10          6           0      -12.129540    2.624537   -0.227522
     11          6           0       11.127358   -1.060212    1.202870
     12          6           0      -11.038250    1.701302   -0.490377
     13          6           0       11.705681    0.131469   -2.123715
     14          6           0       12.649735    1.936033   -0.391862
     15          6           0      -12.959484   -1.208622    0.051311
     16          6           0      -11.526781   -0.882082    2.168298
     17          6           0        9.871155    0.797764    0.274245
     18          6           0      -10.022137   -0.570642   -0.313426
     19          6           0       10.038566   -1.563315    2.083730
     20          6           0       -9.890480    2.295896   -1.376066
     21          6           0        8.569091    0.418400    0.254578
     22          6           0       -8.637147   -0.397633   -0.225120
     23          6           0        7.403620    1.322817    0.202435
     24          6           0       -7.544098   -1.298568   -0.362037
     25          6           0        7.737646    2.772109    0.441575
     26          6           0       -7.959261   -2.702483   -0.809380
     27          6           0        6.162940    0.854958    0.201361
     28          6           0       -6.270338   -0.945758   -0.302158
     29          6           0        4.889795    1.541825    0.116524
     30          6           0       -5.029003   -1.599808   -0.611602
     31          6           0        3.695795    0.859253   -0.059427
     32          6           0       -3.837132   -1.089677   -0.528823
     33          6           0        2.390679    1.431240    0.107131
     34          6           0       -2.533390   -1.748949   -0.608617
     35          6           0        2.266033    2.884994    0.314892
     36          6           0       -2.536200   -3.226707   -0.914145
     37          6           0        1.230333    0.687217    0.013060
     38          6           0       -1.409945   -0.991831   -0.369028
     39          6           0        1.133595   -0.722568   -0.278442
     40          6           0       -0.053776   -1.391311   -0.374629
     41          1           0       13.929879   -0.110403    0.645253
     42          1           0       14.258270   -0.198643   -1.202507
     43          1           0      -12.565357    1.538312    2.325247
     44          1           0      -13.986401    0.476862    1.926483
     45          1           0       14.220711   -2.551610    0.147075
     46          1           0       12.691817   -2.590008   -1.047442
     47          1           0      -14.185126    2.687431    0.352549
     48          1           0      -13.848689    1.479905   -0.584908
     49          1           0       12.915889   -1.934172    1.890911
     50          1           0       12.052100   -3.026741    1.147874
     51          1           0      -11.812330    3.358192    0.562641
     52          1           0      -12.508480    3.108995   -1.169777
     53          1           0       11.558593   -0.881492   -2.464449
     54          1           0       12.458602    0.377272   -3.024424
     55          1           0       11.046457    0.719348   -2.282103
     56          1           0       13.005273    2.016205    0.601369
     57          1           0       11.699780    2.641751   -0.679039
     58          1           0       13.479917    2.173327   -1.091578
     59          1           0      -13.232423   -0.540307   -0.879998
     60          1           0      -14.038684   -1.569006    0.562523
     61          1           0      -12.309297   -2.062643   -0.217786
     62          1           0      -10.648453   -0.278927    2.697582
     63          1           0      -11.235523   -2.008106    1.761685
     64          1           0      -12.289765   -0.876120    2.885321
     65          1           0       10.246170    1.972989   -0.098218
     66          1           0      -10.353250   -1.634857   -0.374922
     67          1           0        9.439968   -0.706815    2.523385
     68          1           0       10.525595   -2.186076    2.914460
     69          1           0        9.095798   -2.429467    1.818117
     70          1           0       -9.160456    1.420964   -1.700397
     71          1           0       -9.101072    2.851531   -0.750654
     72          1           0      -10.252068    2.814601   -2.240177
     73          1           0        8.395175   -0.720875    0.274937
     74          1           0       -8.406204    0.842789   -0.292984
     75          1           0        8.315751    2.764871    1.304764
     76          1           0        6.752246    3.384726    0.725960
     77          1           0        8.288076    3.280894   -0.365856
     78          1           0       -8.436568   -2.621414   -1.729854
     79          1           0       -8.631984   -2.871991   -0.047275
     80          1           0       -7.163917   -3.505569   -0.810679
     81          1           0        6.104045   -0.140214    0.149108
     82          1           0       -6.227533    0.105130   -0.045061
     83          1           0        4.878779    2.623007    0.249294
     84          1           0       -5.098040   -2.678885   -0.821400
     85          1           0        4.075786   -0.390743   -0.015365
     86          1           0       -3.669922    0.006258   -0.344137
     87          1           0        2.729107    3.181971    1.216943
     88          1           0        1.419912    3.280543    0.372535
     89          1           0        2.761717    3.548927   -0.457369
     90          1           0       -3.279269   -3.491502   -1.687781
     91          1           0       -3.100578   -3.415304   -0.076447
     92          1           0       -1.564215   -3.639244   -0.981555
     93          1           0        0.329506    1.244664    0.065520
     94          1           0       -1.668478   -0.054381   -0.126527
     95          1           0        1.984888   -1.493180   -0.510439
     96          1           0       -0.142502   -2.499628   -0.531171
 ---------------------------------------------------------------------

 SCF Done:  E(RB3LYP) =  -1557.54245187     A.U. after   14 cycles

 Excitation energies and oscillator strengths:

 Excited State   1:      Singlet-A      2.2678 eV  546.71 nm  f=3.0622  <S**2>=0.000
     148 ->149         0.70595
 This state for optimization and/or second-order correction.
 Total Energy, E(TD-HF/TD-DFT) =  -1557.45911033
 Copying the excited state density for this state as the 1-particle RhoCI density.

 The electronic state is 1-A.
 Alpha  occ. eigenvalues --  -10.21132 -10.20629 -10.20536 -10.20226 -10.20219
 Alpha  occ. eigenvalues --  -10.20194 -10.20017 -10.19992 -10.19872 -10.19794
 Alpha  occ. eigenvalues --  -10.19693 -10.19615 -10.19525 -10.19472 -10.19455
 Alpha  occ. eigenvalues --  -10.19420 -10.19307 -10.19306 -10.19280 -10.19063
 Alpha  occ. eigenvalues --  -10.19052 -10.19029 -10.18995 -10.18983 -10.18916
 Alpha  occ. eigenvalues --  -10.18882 -10.18793 -10.18777 -10.18669 -10.18405
 Alpha  occ. eigenvalues --  -10.18018 -10.17919 -10.17680 -10.17583 -10.17337
 Alpha  occ. eigenvalues --  -10.17255 -10.17005 -10.16675 -10.16511 -10.16134
 Alpha  occ. eigenvalues --   -0.84843  -0.84536  -0.84163  -0.83305  -0.82457
 Alpha  occ. eigenvalues --   -0.81866  -0.78966  -0.78401  -0.77881  -0.77287
 Alpha  occ. eigenvalues --   -0.76676  -0.75367  -0.74619  -0.71682  -0.71377
 Alpha  occ. eigenvalues --   -0.71329  -0.69542  -0.68868  -0.68855  -0.68041
 Alpha  occ. eigenvalues --   -0.67599  -0.67186  -0.66742  -0.66133  -0.65986
 Alpha  occ. eigenvalues --   -0.63068  -0.61710  -0.60299  -0.58894  -0.57135
 Alpha  occ. eigenvalues --   -0.56729  -0.55814  -0.55102  -0.53702  -0.52982
 Alpha  occ. eigenvalues --   -0.52465  -0.51651  -0.50428  -0.49493  -0.48394
 Alpha  occ. eigenvalues --   -0.48250  -0.47422  -0.46969  -0.46678  -0.46385
 Alpha  occ. eigenvalues --   -0.45646  -0.45152  -0.44721  -0.44377  -0.44020
 Alpha  occ. eigenvalues --   -0.43845  -0.43236  -0.42804  -0.42296  -0.42155
 Alpha  occ. eigenvalues --   -0.42049  -0.42024  -0.41807  -0.41649  -0.41350
 Alpha  occ. eigenvalues --   -0.41053  -0.40696  -0.40445  -0.40260  -0.39606
 Alpha  occ. eigenvalues --   -0.39163  -0.38819  -0.38594  -0.38313  -0.38187
 Alpha  occ. eigenvalues --   -0.38063  -0.37710  -0.37577  -0.37009  -0.36344
 Alpha  occ. eigenvalues --   -0.36083  -0.35976  -0.35548  -0.35422  -0.35247
 Alpha  occ. eigenvalues --   -0.34973  -0.34622  -0.34053  -0.33503  -0.33415
 Alpha  occ. eigenvalues --   -0.33260  -0.33131  -0.33011  -0.32894  -0.32340
 Alpha  occ. eigenvalues --   -0.31900  -0.31778  -0.31404  -0.31072  -0.30972
 Alpha  occ. eigenvalues --   -0.30688  -0.30527  -0.29980  -0.29142  -0.28297
 Alpha  occ. eigenvalues --   -0.28110  -0.27708  -0.26714  -0.24629  -0.22971
 Alpha  occ. eigenvalues --   -0.20732  -0.19000  -0.16711
 Alpha virt. eigenvalues --   -0.07937  -0.05293  -0.02546  -0.00151   0.02475
 Alpha virt. eigenvalues --    0.04049   0.05361   0.06348   0.06459   0.06747
 Alpha virt. eigenvalues --    0.07767   0.07986   0.08409   0.08477   0.09225

 Mulliken charges:
               1
     1  C   -0.040931
     2  C   -0.019853
     3  C   -0.164746
     4  C   -0.181387
     5  C   -0.188628
     6  C   -0.201984
     7  C    0.105015
     8  C    0.097418
     9  C   -0.226504
    10  C   -0.220440
    11  C    0.085937
    12  C    0.079050
    13  C   -0.277522
    14  C   -0.298485
    15  C   -0.277985
    16  C   -0.274900
    17  C   -0.117620
    18  C   -0.137556
    19  C   -0.356982
    20  C   -0.373268
    21  C   -0.115839
    22  C   -0.105242
    23  C    0.122741
    24  C    0.109203
    25  C   -0.367546
    26  C   -0.367406
    27  C   -0.111087
    28  C   -0.124149
    29  C   -0.065224
    30  C   -0.089937
    31  C   -0.109836
    32  C   -0.085577
    33  C    0.111466
    34  C    0.095825
    35  C   -0.365737
    36  C   -0.374370
    37  C   -0.137985
    38  C   -0.092621
    39  C   -0.071008
    40  C   -0.097561
    41  H    0.071932
    42  H    0.089132
    43  H    0.081557
    44  H    0.089508
    45  H    0.072968
    46  H    0.090665
    47  H    0.089533
    48  H    0.093762
    49  H    0.107748
    50  H    0.109278
    51  H    0.103883
    52  H    0.092072
    53  H    0.109460
    54  H    0.057671
    55  H    0.112222
    56  H    0.120220
    57  H    0.080551
    58  H    0.107484
    59  H    0.102154
    60  H    0.076418
    61  H    0.104104
    62  H    0.098452
    63  H    0.067037
    64  H    0.114271
    65  H    0.038570
    66  H    0.071469
    67  H    0.121266
    68  H    0.093750
    69  H    0.072416
    70  H    0.110394
    71  H    0.114654
    72  H    0.112528
    73  H    0.093439
    74  H    0.051287
    75  H    0.136654
    76  H    0.081820
    77  H    0.117473
    78  H    0.132664
    79  H    0.128276
    80  H    0.096326
    81  H    0.059327
    82  H    0.062139
    83  H    0.078634
    84  H    0.066220
    85  H    0.061324
    86  H    0.072611
    87  H    0.122637
    88  H    0.111400
    89  H    0.108267
    90  H    0.122936
    91  H    0.145598
    92  H    0.116556
    93  H    0.087545
    94  H    0.055043
    95  H    0.090513
    96  H    0.057441
 Sum of Mulliken charges =  -0.00000

 Dipole moment (field-independent basis, Debye):
    X=             -0.7476    Y=              0.2019    Z=              0.1355  Tot=              0.7861
 Quadrupole moment (field-independent basis, Debye-Ang):
   XX=           -215.3839   YY=           -235.3276   ZZ=           -254.8145
   XY=             -4.9784   XZ=              1.8564   YZ=              1.2099

 Normal termination of Gaussian 16 at Wed Jul 31 20:58:17 2019.
