 Gaussian 16, Revision A.03,
 Gaussian 16:  ES64L-G16RevA.03 25-Dec-2016

 ---------------------------------
 # td=(NStates=1) B3LYP/6-31G(d,p)
 ---------------------------------

 --
 TD
 --
 Symbolic Z-matrix:
 Charge =  0 Multiplicity = 1

                         Standard orientation:
 ---------------------------------------------------------------------
 Center     Atomic      Atomic             Coordinates (Angstroms)
 Number     Number       Type             X           Y           Z
 ---------------------------------------------------------------------
      1          6           0       12.205872    0.463594   -0.653442
      2          6           0      -12.141530   -0.135710    0.989720
      3          6           0       13.392048   -0.411422   -0.381709
      4          6           0      -13.135961    1.030809    1.321504
      5          6           0       13.060399   -1.934789   -0.449364
      6          6           0      -13.428537    1.928162    0.145262
      7          6           0       11.009501    0.038131    0.112754
      8          6           0      -11.040661    0.410053   -0.038269
      9          6           0       12.237204   -2.175138    0.672737
     10          6           0      -12.171080    2.635532   -0.351540
     11          6           0       11.097763   -1.178253    0.828091
     12          6           0      -11.098893    1.604391   -0.659219
     13          6           0       11.701836    0.406674   -2.295394
     14          6           0       12.613032    1.870971   -0.221352
     15          6           0      -13.080975   -1.224600    0.168467
     16          6           0      -11.458908   -0.693876    2.228233
     17          6           0        9.933354    0.960899    0.346984
     18          6           0       -9.918805   -0.521918   -0.299048
     19          6           0       10.240991   -1.681320    1.906609
     20          6           0      -10.048211    2.162831   -1.741707
     21          6           0        8.601068    0.457560    0.328374
     22          6           0       -8.611344   -0.235764   -0.295190
     23          6           0        7.478173    1.362030    0.487984
     24          6           0       -7.580702   -1.196706   -0.483432
     25          6           0        7.626105    2.861357    0.794911
     26          6           0       -7.998233   -2.685669   -0.619541
     27          6           0        6.265390    0.863811    0.243864
     28          6           0       -6.216551   -0.783528   -0.452925
     29          6           0        4.891441    1.418318    0.265222
     30          6           0       -5.036787   -1.712842   -0.422457
     31          6           0        3.759107    0.785338    0.133901
     32          6           0       -3.796030   -1.146409   -0.395694
     33          6           0        2.461410    1.311086    0.192346
     34          6           0       -2.488197   -1.776398   -0.454172
     35          6           0        2.398658    2.753253    0.327204
     36          6           0       -2.582612   -3.168697   -0.544263
     37          6           0        1.279531    0.584520    0.097546
     38          6           0       -1.323769   -1.079688   -0.256161
     39          6           0        1.195413   -0.856222   -0.259194
     40          6           0        0.038765   -1.634126   -0.322656
     41          1           0       13.956762   -0.249830    0.575151
     42          1           0       14.191240   -0.062997   -1.235748
     43          1           0      -12.748593    1.363329    2.102802
     44          1           0      -14.148605    0.541917    1.686057
     45          1           0       14.016447   -2.459952   -0.454843
     46          1           0       12.679892   -2.280653   -1.424619
     47          1           0      -14.075148    2.604772    0.447805
     48          1           0      -13.875749    1.404634   -0.520701
     49          1           0       13.020174   -2.052760    1.645015
     50          1           0       11.801036   -3.144607    0.622311
     51          1           0      -11.711782    3.385996    0.351133
     52          1           0      -12.335844    3.005846   -1.467883
     53          1           0       11.621739   -0.686535   -2.611509
     54          1           0       12.396747    0.813011   -2.927199
     55          1           0       10.663957    0.972266   -2.362313
     56          1           0       12.381040    1.928876    0.862942
     57          1           0       11.874613    2.770838   -0.283657
     58          1           0       13.532399    2.330632   -0.542928
     59          1           0      -13.591091   -0.852730   -0.665778
     60          1           0      -13.876213   -1.378289    0.954119
     61          1           0      -12.685948   -2.050775   -0.227450
     62          1           0      -10.861298    0.062389    2.895453
     63          1           0      -10.779464   -1.637066    2.015853
     64          1           0      -12.264105   -1.124175    2.682616
     65          1           0       10.041610    2.054923    0.217228
     66          1           0      -10.206303   -1.604370   -0.523523
     67          1           0        9.475139   -0.790620    2.146274
     68          1           0       10.694542   -1.784778    2.915066
     69          1           0        9.496167   -2.357244    1.566819
     70          1           0       -9.338632    1.573329   -2.275209
     71          1           0       -9.540544    3.134907   -1.551827
     72          1           0      -10.677667    2.309862   -2.583410
     73          1           0        8.402382   -0.621534    0.285634
     74          1           0       -8.237785    0.819070   -0.273718
     75          1           0        7.973578    2.842493    1.884854
     76          1           0        6.635924    3.272591    0.847510
     77          1           0        8.446162    3.308042    0.134764
     78          1           0       -8.778518   -2.662244   -1.561767
     79          1           0       -8.373097   -2.990061    0.301814
     80          1           0       -7.219156   -3.362624   -1.239902
     81          1           0        6.310162   -0.217954   -0.069457
     82          1           0       -6.320859    0.303229   -0.161256
     83          1           0        4.937336    2.418866    0.336890
     84          1           0       -5.269849   -2.679995   -0.553004
     85          1           0        3.765791   -0.276303    0.066537
     86          1           0       -3.737942   -0.157561   -0.278840
     87          1           0        2.846203    3.198116    1.328785
     88          1           0        1.391289    3.240281    0.408039
     89          1           0        2.574766    3.111665   -0.666009
     90          1           0       -3.122748   -3.570493   -1.472094
     91          1           0       -3.110699   -3.641386    0.354244
     92          1           0       -1.619864   -3.551253   -0.613944
     93          1           0        0.503306    1.315417    0.116472
     94          1           0       -1.280042    0.197584   -0.169305
     95          1           0        2.022057   -1.462852   -0.420346
     96          1           0        0.159426   -2.630708   -0.583848
 ---------------------------------------------------------------------

 SCF Done:  E(RB3LYP) =  -1557.53517176     A.U. after   14 cycles

 Excitation energies and oscillator strengths:

 Excited State   1:      Singlet-A      2.2621 eV  548.10 nm  f=2.7353  <S**2>=0.000
     148 ->149         0.70648
 This state for optimization and/or second-order correction.
 Total Energy, E(TD-HF/TD-DFT) =  -1557.45204245
 Copying the excited state density for this state as the 1-particle RhoCI density.

 The electronic state is 1-A.
 Alpha  occ. eigenvalues --  -10.20748 -10.20442 -10.20418 -10.19745 -10.19476
 Alpha  occ. eigenvalues --  -10.19411 -10.19379 -10.19344 -10.19302 -10.19151
 Alpha  occ. eigenvalues --  -10.19079 -10.19071 -10.19046 -10.19026 -10.19023
 Alpha  occ. eigenvalues --  -10.18863 -10.18857 -10.18822 -10.18809 -10.18733
 Alpha  occ. eigenvalues --  -10.18569 -10.18420 -10.18403 -10.18322 -10.18090
 Alpha  occ. eigenvalues --  -10.18067 -10.18063 -10.17905 -10.17844 -10.17838
 Alpha  occ. eigenvalues --  -10.17667 -10.17501 -10.17356 -10.17351 -10.17175
 Alpha  occ. eigenvalues --  -10.17063 -10.16961 -10.16656 -10.16618 -10.15464
 Alpha  occ. eigenvalues --   -0.85578  -0.84231  -0.84169  -0.83350  -0.82113
 Alpha  occ. eigenvalues --   -0.81276  -0.78853  -0.78395  -0.77580  -0.77475
 Alpha  occ. eigenvalues --   -0.76848  -0.75455  -0.74503  -0.72088  -0.71295
 Alpha  occ. eigenvalues --   -0.69596  -0.68889  -0.68693  -0.67930  -0.67777
 Alpha  occ. eigenvalues --   -0.67528  -0.67116  -0.66909  -0.66129  -0.66111
 Alpha  occ. eigenvalues --   -0.63204  -0.62625  -0.60779  -0.59500  -0.56767
 Alpha  occ. eigenvalues --   -0.56372  -0.55762  -0.55487  -0.54648  -0.53413
 Alpha  occ. eigenvalues --   -0.52093  -0.51291  -0.50462  -0.49695  -0.49272
 Alpha  occ. eigenvalues --   -0.48716  -0.47942  -0.46916  -0.46646  -0.45953
 Alpha  occ. eigenvalues --   -0.45225  -0.45080  -0.44829  -0.44310  -0.44111
 Alpha  occ. eigenvalues --   -0.43983  -0.43694  -0.43617  -0.43267  -0.42804
 Alpha  occ. eigenvalues --   -0.42441  -0.42324  -0.41751  -0.41435  -0.41216
 Alpha  occ. eigenvalues --   -0.40916  -0.40377  -0.40082  -0.39677  -0.39313
 Alpha  occ. eigenvalues --   -0.38961  -0.38801  -0.38503  -0.38241  -0.37997
 Alpha  occ. eigenvalues --   -0.37865  -0.37425  -0.37222  -0.36987  -0.36774
 Alpha  occ. eigenvalues --   -0.36482  -0.36112  -0.35397  -0.35343  -0.34932
 Alpha  occ. eigenvalues --   -0.34729  -0.34496  -0.34329  -0.33529  -0.33283
 Alpha  occ. eigenvalues --   -0.32921  -0.32810  -0.32613  -0.32246  -0.32213
 Alpha  occ. eigenvalues --   -0.31707  -0.31523  -0.31254  -0.31215  -0.31031
 Alpha  occ. eigenvalues --   -0.30690  -0.29974  -0.29176  -0.28560  -0.28304
 Alpha  occ. eigenvalues --   -0.28061  -0.27771  -0.25985  -0.24012  -0.22582
 Alpha  occ. eigenvalues --   -0.20564  -0.18305  -0.16495
 Alpha virt. eigenvalues --   -0.07628  -0.04990  -0.02026   0.00547   0.03280
 Alpha virt. eigenvalues --    0.04279   0.06073   0.07265   0.07498   0.07820
 Alpha virt. eigenvalues --    0.07976   0.08287   0.08563   0.09185   0.09398

 Mulliken charges:
               1
     1  C    0.030395
     2  C   -0.012058
     3  C   -0.173195
     4  C   -0.162267
     5  C   -0.190673
     6  C   -0.151837
     7  C    0.097879
     8  C    0.067455
     9  C   -0.172636
    10  C   -0.216348
    11  C    0.045004
    12  C    0.031222
    13  C   -0.315948
    14  C   -0.325894
    15  C   -0.316397
    16  C   -0.301158
    17  C   -0.134092
    18  C   -0.155526
    19  C   -0.380849
    20  C   -0.370744
    21  C   -0.109654
    22  C   -0.065961
    23  C    0.124086
    24  C    0.095265
    25  C   -0.367306
    26  C   -0.366470
    27  C   -0.135440
    28  C   -0.136379
    29  C   -0.075290
    30  C   -0.078066
    31  C   -0.075662
    32  C   -0.079161
    33  C    0.103843
    34  C    0.142043
    35  C   -0.394607
    36  C   -0.384531
    37  C   -0.106406
    38  C   -0.115332
    39  C   -0.096895
    40  C   -0.096812
    41  H    0.097307
    42  H    0.053805
    43  H    0.091691
    44  H    0.057536
    45  H    0.087836
    46  H    0.093976
    47  H    0.097443
    48  H    0.107605
    49  H    0.068837
    50  H    0.101681
    51  H    0.108084
    52  H    0.078747
    53  H    0.095436
    54  H    0.109274
    55  H    0.095683
    56  H    0.107187
    57  H    0.074010
    58  H    0.109603
    59  H    0.110737
    60  H    0.089696
    61  H    0.105773
    62  H    0.102023
    63  H    0.090789
    64  H    0.111087
    65  H    0.082151
    66  H    0.077939
    67  H    0.087098
    68  H    0.117918
    69  H    0.125552
    70  H    0.118903
    71  H    0.106393
    72  H    0.108719
    73  H    0.094440
    74  H    0.080508
    75  H    0.118335
    76  H    0.117622
    77  H    0.117211
    78  H    0.094236
    79  H    0.140704
    80  H    0.095941
    81  H    0.055414
    82  H    0.071436
    83  H    0.072033
    84  H    0.078698
    85  H    0.068585
    86  H    0.065072
    87  H    0.109709
    88  H    0.093606
    89  H    0.139554
    90  H    0.107650
    91  H    0.117666
    92  H    0.103275
    93  H    0.080657
    94  H    0.062879
    95  H    0.087687
    96  H    0.082963
 Sum of Mulliken charges =  -0.00000

 Dipole moment (field-independent basis, Debye):
    X=             -0.3648    Y=              0.2699    Z=             -0.0367  Tot=              0.4553
 Quadrupole moment (field-independent basis, Debye-Ang):
   XX=           -216.1331   YY=           -233.9338   ZZ=           -252.9310
   XY=              0.9936   XZ=              1.1191   YZ=              3.3435

 Normal termination of Gaussian 16 at Thu Aug  1 07:32:34 2019.
