 Gaussian 16, Revision A.03,
 Gaussian 16:  ES64L-G16RevA.03 25-Dec-2016

 ---------------------------------
 # td=(NStates=1) B3LYP/6-31G(d,p)
 ---------------------------------

 --
 TD
 --
 Symbolic Z-matrix:
 Charge =  0 Multiplicity = 1

                         Standard orientation:
 ---------------------------------------------------------------------
 Center     Atomic      Atomic             Coordinates (Angstroms)
 Number     Number       Type             X           Y           Z
 ---------------------------------------------------------------------
      1          6           0       12.178437    0.509911   -0.637381
      2          6           0      -12.078867   -0.104185    0.882882
      3          6           0       13.454181   -0.365630   -0.604626
      4          6           0      -13.085571    1.127745    1.152186
      5          6           0       13.070022   -1.865518   -0.482955
      6          6           0      -13.483997    1.925496    0.023132
      7          6           0       11.064779   -0.056916    0.223860
      8          6           0      -11.022631    0.412197   -0.129272
      9          6           0       12.266647   -2.249172    0.810519
     10          6           0      -12.229144    2.539010   -0.541477
     11          6           0       11.112971   -1.215096    0.927074
     12          6           0      -11.079326    1.509113   -0.750265
     13          6           0       11.632960    0.466552   -2.062112
     14          6           0       12.616342    1.977360   -0.335718
     15          6           0      -12.998989   -1.155487    0.227415
     16          6           0      -11.533687   -0.569135    2.194524
     17          6           0        9.922879    0.872085    0.339859
     18          6           0       -9.893450   -0.584296   -0.253288
     19          6           0       10.158823   -1.697517    1.976671
     20          6           0      -10.027894    2.110793   -1.579575
     21          6           0        8.616234    0.546086    0.298425
     22          6           0       -8.520395   -0.403766   -0.141967
     23          6           0        7.420652    1.342532    0.403604
     24          6           0       -7.433429   -1.357617   -0.296713
     25          6           0        7.662432    2.915348    0.582499
     26          6           0       -7.892268   -2.702703   -0.515580
     27          6           0        6.245687    0.817921    0.247220
     28          6           0       -6.236544   -0.869045   -0.294182
     29          6           0        4.876377    1.332473    0.352193
     30          6           0       -5.036951   -1.550627   -0.407058
     31          6           0        3.661381    0.777653    0.021993
     32          6           0       -3.799122   -1.046704   -0.447312
     33          6           0        2.416520    1.329055    0.193790
     34          6           0       -2.520276   -1.731875   -0.584685
     35          6           0        2.160052    2.737683    0.757258
     36          6           0       -2.536443   -3.289310   -0.613346
     37          6           0        1.307059    0.611048    0.021783
     38          6           0       -1.357433   -1.021905   -0.409059
     39          6           0        1.191894   -0.850235   -0.351377
     40          6           0       -0.069351   -1.548782   -0.444832
     41          1           0       14.055847    0.062120    0.096785
     42          1           0       14.089252   -0.322270   -1.447326
     43          1           0      -12.670115    1.693691    2.019559
     44          1           0      -13.976324    0.779656    1.721919
     45          1           0       14.063970   -2.516678   -0.610975
     46          1           0       12.701646   -2.180294   -1.400462
     47          1           0      -14.041866    2.840727    0.317360
     48          1           0      -14.062826    1.513100   -0.545701
     49          1           0       12.935707   -2.085727    1.668312
     50          1           0       11.981514   -3.168874    0.888435
     51          1           0      -11.656884    3.281997    0.100752
     52          1           0      -12.291132    2.684835   -1.581768
     53          1           0       11.439316   -0.601224   -2.290856
     54          1           0       12.588447    0.793630   -2.706838
     55          1           0       10.717202    1.288165   -2.126498
     56          1           0       13.050290    2.091900    0.624564
     57          1           0       11.873343    2.780061   -0.469938
     58          1           0       13.425438    2.193466   -1.114893
     59          1           0      -13.762511   -0.800562   -0.699095
     60          1           0      -13.697712   -1.537148    1.070580
     61          1           0      -12.665334   -2.086968   -0.287367
     62          1           0      -11.098468    0.338855    2.705269
     63          1           0      -10.633058   -1.332603    2.230486
     64          1           0      -12.595366   -0.818168    2.800711
     65          1           0       10.245468    1.909528    0.692755
     66          1           0      -10.382888   -1.605837   -0.225745
     67          1           0        9.431157   -1.018506    2.231056
     68          1           0       10.540557   -2.271745    2.967530
     69          1           0        9.549213   -2.488578    1.678154
     70          1           0       -9.070886    1.451090   -1.894643
     71          1           0       -9.400595    2.982689   -1.071275
     72          1           0      -10.265323    2.706514   -2.682675
     73          1           0        8.388692   -0.455073    0.143064
     74          1           0       -8.399285    0.599194    0.015464
     75          1           0        7.842255    3.164308    1.655622
     76          1           0        6.672234    3.440833    0.374312
     77          1           0        8.253037    3.334165   -0.188403
     78          1           0       -8.264415   -2.924045   -1.665145
     79          1           0       -8.786506   -3.005377   -0.011798
     80          1           0       -7.114909   -3.618011   -0.226194
     81          1           0        6.314361   -0.274140   -0.030949
     82          1           0       -6.261590    0.133422   -0.056732
     83          1           0        4.809538    2.495442    0.602017
     84          1           0       -5.026775   -2.743041   -0.631956
     85          1           0        3.593725   -0.314536   -0.313138
     86          1           0       -3.679643    0.158001   -0.262672
     87          1           0        2.561382    2.825333    1.865329
     88          1           0        1.208075    3.193850    0.839035
     89          1           0        2.932692    3.577653    0.316826
     90          1           0       -3.218390   -3.845201   -1.439735
     91          1           0       -2.906364   -3.768562    0.343919
     92          1           0       -1.480597   -3.614392   -0.918259
     93          1           0        0.429046    1.234794    0.134527
     94          1           0       -1.451198   -0.041993   -0.278922
     95          1           0        1.862955   -1.295325   -0.730415
     96          1           0        0.101219   -2.561364   -0.718595
 ---------------------------------------------------------------------

 SCF Done:  E(RB3LYP) =  -1557.49381993     A.U. after   14 cycles

 Excitation energies and oscillator strengths:

 Excited State   1:      Singlet-A      2.2873 eV  542.04 nm  f=3.0254  <S**2>=0.000
     148 ->149         0.70511
 This state for optimization and/or second-order correction.
 Total Energy, E(TD-HF/TD-DFT) =  -1557.40976143
 Copying the excited state density for this state as the 1-particle RhoCI density.

 The electronic state is 1-A.
 Alpha  occ. eigenvalues --  -10.20889 -10.20871 -10.20605 -10.20516 -10.20340
 Alpha  occ. eigenvalues --  -10.19937 -10.19881 -10.19865 -10.19815 -10.19536
 Alpha  occ. eigenvalues --  -10.19491 -10.19442 -10.19387 -10.19333 -10.19242
 Alpha  occ. eigenvalues --  -10.19232 -10.19210 -10.19181 -10.19038 -10.18790
 Alpha  occ. eigenvalues --  -10.18749 -10.18742 -10.18655 -10.18505 -10.18485
 Alpha  occ. eigenvalues --  -10.18412 -10.18327 -10.18051 -10.17991 -10.17924
 Alpha  occ. eigenvalues --  -10.17842 -10.17779 -10.17716 -10.17680 -10.17647
 Alpha  occ. eigenvalues --  -10.17369 -10.17242 -10.17055 -10.16469 -10.16015
 Alpha  occ. eigenvalues --   -0.85949  -0.84886  -0.84583  -0.83860  -0.82588
 Alpha  occ. eigenvalues --   -0.82032  -0.79106  -0.78847  -0.78539  -0.77986
 Alpha  occ. eigenvalues --   -0.77088  -0.75417  -0.74029  -0.72215  -0.71751
 Alpha  occ. eigenvalues --   -0.69840  -0.68679  -0.68640  -0.68492  -0.67981
 Alpha  occ. eigenvalues --   -0.67690  -0.66946  -0.66836  -0.66526  -0.66214
 Alpha  occ. eigenvalues --   -0.63380  -0.62485  -0.61136  -0.60272  -0.58388
 Alpha  occ. eigenvalues --   -0.57564  -0.56248  -0.55611  -0.54496  -0.53176
 Alpha  occ. eigenvalues --   -0.52444  -0.51558  -0.50707  -0.50040  -0.49602
 Alpha  occ. eigenvalues --   -0.48957  -0.47921  -0.47084  -0.46908  -0.46610
 Alpha  occ. eigenvalues --   -0.46265  -0.45443  -0.44803  -0.44598  -0.44405
 Alpha  occ. eigenvalues --   -0.44116  -0.43489  -0.42732  -0.42418  -0.42237
 Alpha  occ. eigenvalues --   -0.42107  -0.41719  -0.41627  -0.41208  -0.40585
 Alpha  occ. eigenvalues --   -0.40169  -0.39930  -0.39801  -0.39185  -0.39011
 Alpha  occ. eigenvalues --   -0.38725  -0.38595  -0.38498  -0.38250  -0.37486
 Alpha  occ. eigenvalues --   -0.37089  -0.36950  -0.36787  -0.36779  -0.36588
 Alpha  occ. eigenvalues --   -0.36198  -0.35838  -0.35722  -0.35287  -0.35226
 Alpha  occ. eigenvalues --   -0.35065  -0.34554  -0.34296  -0.33760  -0.33688
 Alpha  occ. eigenvalues --   -0.33158  -0.33037  -0.32876  -0.32829  -0.32569
 Alpha  occ. eigenvalues --   -0.32267  -0.32026  -0.31899  -0.31720  -0.31595
 Alpha  occ. eigenvalues --   -0.30872  -0.30736  -0.30049  -0.29527  -0.28184
 Alpha  occ. eigenvalues --   -0.27814  -0.27045  -0.26432  -0.24892  -0.23237
 Alpha  occ. eigenvalues --   -0.21570  -0.19562  -0.16943
 Alpha virt. eigenvalues --   -0.08308  -0.04910  -0.01732   0.01012   0.03087
 Alpha virt. eigenvalues --    0.04359   0.06121   0.06694   0.07031   0.07271
 Alpha virt. eigenvalues --    0.07399   0.08021   0.08354   0.08949   0.09287

 Mulliken charges:
               1
     1  C   -0.018298
     2  C   -0.003101
     3  C   -0.167849
     4  C   -0.185926
     5  C   -0.210379
     6  C   -0.146984
     7  C    0.070597
     8  C    0.083587
     9  C   -0.195369
    10  C   -0.206955
    11  C    0.069127
    12  C    0.055294
    13  C   -0.259169
    14  C   -0.315907
    15  C   -0.280258
    16  C   -0.286155
    17  C   -0.146964
    18  C   -0.144035
    19  C   -0.377902
    20  C   -0.368175
    21  C   -0.089088
    22  C   -0.118254
    23  C    0.144401
    24  C    0.197451
    25  C   -0.380454
    26  C   -0.382911
    27  C   -0.133876
    28  C   -0.104676
    29  C   -0.107902
    30  C   -0.086365
    31  C   -0.107650
    32  C   -0.102646
    33  C    0.181034
    34  C    0.111604
    35  C   -0.380501
    36  C   -0.370663
    37  C   -0.142178
    38  C   -0.060340
    39  C   -0.054532
    40  C   -0.120043
    41  H    0.096822
    42  H    0.090548
    43  H    0.081992
    44  H    0.074551
    45  H    0.049846
    46  H    0.111608
    47  H    0.091679
    48  H    0.099810
    49  H    0.109773
    50  H    0.106289
    51  H    0.109431
    52  H    0.108840
    53  H    0.104083
    54  H    0.068110
    55  H    0.086062
    56  H    0.109968
    57  H    0.100083
    58  H    0.091266
    59  H    0.068278
    60  H    0.086940
    61  H    0.101092
    62  H    0.103858
    63  H    0.105580
    64  H    0.075935
    65  H    0.090049
    66  H    0.069770
    67  H    0.120023
    68  H    0.082978
    69  H    0.121714
    70  H    0.104646
    71  H    0.099144
    72  H    0.071703
    73  H    0.071880
    74  H    0.076592
    75  H    0.122022
    76  H    0.094524
    77  H    0.129504
    78  H    0.101350
    79  H    0.129837
    80  H    0.081259
    81  H    0.067107
    82  H    0.076498
    83  H    0.067285
    84  H    0.068864
    85  H    0.077248
    86  H    0.052345
    87  H    0.107210
    88  H    0.122281
    89  H    0.084397
    90  H    0.096082
    91  H    0.130303
    92  H    0.105270
    93  H    0.077467
    94  H    0.074484
    95  H    0.059113
    96  H    0.077019
 Sum of Mulliken charges =  -0.00000

 Dipole moment (field-independent basis, Debye):
    X=             -0.6513    Y=             -0.0805    Z=              0.5909  Tot=              0.8830
 Quadrupole moment (field-independent basis, Debye-Ang):
   XX=           -221.1524   YY=           -234.7615   ZZ=           -256.3805
   XY=             -3.9690   XZ=             -0.4939   YZ=              3.4542

 Normal termination of Gaussian 16 at Thu Aug  1 17:25:28 2019.
