 Gaussian 16, Revision A.03,
 Gaussian 16:  ES64L-G16RevA.03 25-Dec-2016

 ---------------------------------
 # td=(NStates=1) B3LYP/6-31G(d,p)
 ---------------------------------

 --
 TD
 --
 Symbolic Z-matrix:
 Charge =  0 Multiplicity = 1

                         Standard orientation:
 ---------------------------------------------------------------------
 Center     Atomic      Atomic             Coordinates (Angstroms)
 Number     Number       Type             X           Y           Z
 ---------------------------------------------------------------------
      1          6           0      -12.268888   -0.487146   -0.805241
      2          6           0       12.122056    0.021934    0.961728
      3          6           0      -13.494242    0.400424   -0.545187
      4          6           0       13.030743   -1.187214    1.403252
      5          6           0      -13.212011    1.821813   -0.376403
      6          6           0       13.411524   -2.047070    0.267363
      7          6           0      -11.123336   -0.104146    0.237446
      8          6           0       10.953688   -0.430501   -0.041204
      9          6           0      -12.311820    2.017606    0.754105
     10          6           0       12.202260   -2.577585   -0.605134
     11          6           0      -11.259965    1.036164    0.981700
     12          6           0       11.117361   -1.586832   -0.764267
     13          6           0      -11.621670   -0.302094   -2.208301
     14          6           0      -12.673455   -1.967835   -0.532378
     15          6           0       13.024132    1.079202    0.263957
     16          6           0       11.497274    0.548007    2.211467
     17          6           0       -9.923615   -0.947869    0.405728
     18          6           0        9.935257    0.489913   -0.290366
     19          6           0      -10.198934    1.443285    2.016129
     20          6           0       10.145932   -2.078883   -1.834824
     21          6           0       -8.711960   -0.430831    0.297890
     22          6           0        8.602987    0.342398   -0.285605
     23          6           0       -7.423829   -1.329636    0.444420
     24          6           0        7.522972    1.386710   -0.422629
     25          6           0       -7.590315   -2.778059    0.702861
     26          6           0        7.975891    2.770740   -0.522208
     27          6           0       -6.205304   -0.747131    0.244944
     28          6           0        6.307262    0.925029   -0.487235
     29          6           0       -4.890895   -1.390304    0.248281
     30          6           0        5.099160    1.805109   -0.576403
     31          6           0       -3.723172   -0.677165    0.154169
     32          6           0        3.844297    1.130876   -0.568687
     33          6           0       -2.410435   -1.246095    0.211973
     34          6           0        2.597553    1.788574   -0.481811
     35          6           0       -2.305454   -2.682314    0.568000
     36          6           0        2.565040    3.294308   -0.597397
     37          6           0       -1.189728   -0.484931    0.105210
     38          6           0        1.434502    1.084855   -0.282544
     39          6           0       -1.085698    0.854620   -0.127641
     40          6           0        0.157095    1.552817   -0.314044
     41          1           0      -13.957341   -0.026483    0.389942
     42          1           0      -14.176368    0.227413   -1.309254
     43          1           0       12.350103   -1.842594    2.191277
     44          1           0       13.845224   -0.800375    1.975735
     45          1           0      -14.250037    2.175635   -0.111579
     46          1           0      -12.869205    2.293806   -1.357531
     47          1           0       13.913983   -3.026395    0.486920
     48          1           0       14.110506   -1.368603   -0.479837
     49          1           0      -12.875536    2.130881    1.646079
     50          1           0      -11.944093    3.022733    0.944830
     51          1           0       11.883876   -3.461981    0.035069
     52          1           0       12.550909   -3.023731   -1.513082
     53          1           0      -11.500486    0.806825   -2.455858
     54          1           0      -12.250382   -0.681384   -3.112458
     55          1           0      -10.647999   -0.827342   -2.464355
     56          1           0      -12.805421   -2.205566    0.460844
     57          1           0      -11.829640   -2.639544   -0.676180
     58          1           0      -13.573400   -2.517066   -0.954822
     59          1           0       13.603973    0.589146   -0.590935
     60          1           0       13.709029    1.445348    0.918747
     61          1           0       12.235058    1.937326   -0.054762
     62          1           0       10.975195   -0.264582    2.756857
     63          1           0       10.890923    1.431731    2.080593
     64          1           0       12.209658    0.819227    2.873511
     65          1           0      -10.204196   -1.943612    0.449256
     66          1           0       10.275141    1.512353   -0.401407
     67          1           0       -9.571363    0.784831    2.134589
     68          1           0      -10.559124    1.806688    3.063056
     69          1           0       -9.586728    2.301912    1.821042
     70          1           0        9.497002   -1.164793   -2.350734
     71          1           0        9.284208   -2.544211   -1.351772
     72          1           0       10.491583   -2.836017   -2.671033
     73          1           0       -8.496392    0.621875    0.035601
     74          1           0        8.231319   -0.663000   -0.284072
     75          1           0       -8.119048   -2.802288    1.758874
     76          1           0       -6.620263   -3.351103    0.455198
     77          1           0       -8.470246   -3.367409    0.097248
     78          1           0        8.655588    2.964293   -1.516646
     79          1           0        8.821835    3.028324    0.188001
     80          1           0        6.969051    3.248172   -0.590877
     81          1           0       -6.141638    0.258998    0.075825
     82          1           0        6.337662   -0.184752   -0.785012
     83          1           0       -4.817181   -2.536626    0.436010
     84          1           0        5.011544    2.824151   -0.331729
     85          1           0       -3.860550    0.337900   -0.007141
     86          1           0        3.784262    0.183593   -0.435500
     87          1           0       -2.589114   -2.619376    1.635033
     88          1           0       -1.224890   -3.144470    0.429913
     89          1           0       -3.104555   -3.225035    0.075307
     90          1           0        2.758500    3.763177   -1.745203
     91          1           0        3.165023    3.780145    0.168681
     92          1           0        1.714229    3.889798   -0.384793
     93          1           0       -0.337642   -1.170231    0.017807
     94          1           0        1.520582    0.068234   -0.251228
     95          1           0       -1.939401    1.507670   -0.025124
     96          1           0       -0.007296    2.611935   -0.255581
 ---------------------------------------------------------------------

 SCF Done:  E(RB3LYP) =  -1557.60809975     A.U. after   17 cycles

 Excitation energies and oscillator strengths:

 Excited State   1:      Singlet-A      2.0461 eV  605.97 nm  f=3.1800  <S**2>=0.000
     146 ->149         0.10149
     148 ->149         0.70949
     148 <-149        -0.15631
 This state for optimization and/or second-order correction.
 Total Energy, E(TD-HF/TD-DFT) =  -1557.53290871
 Copying the excited state density for this state as the 1-particle RhoCI density.

 The electronic state is 1-A.
 Alpha  occ. eigenvalues --  -10.20833 -10.20811 -10.20619 -10.20294 -10.20001
 Alpha  occ. eigenvalues --  -10.19827 -10.19518 -10.19480 -10.19435 -10.19351
 Alpha  occ. eigenvalues --  -10.19071 -10.19044 -10.18998 -10.18952 -10.18849
 Alpha  occ. eigenvalues --  -10.18828 -10.18808 -10.18770 -10.18649 -10.18608
 Alpha  occ. eigenvalues --  -10.18595 -10.18453 -10.18383 -10.18370 -10.18178
 Alpha  occ. eigenvalues --  -10.18166 -10.18088 -10.18065 -10.17992 -10.17953
 Alpha  occ. eigenvalues --  -10.17909 -10.17678 -10.17505 -10.17395 -10.17314
 Alpha  occ. eigenvalues --  -10.16983 -10.16940 -10.16890 -10.15812 -10.15527
 Alpha  occ. eigenvalues --   -0.85476  -0.84650  -0.83783  -0.83206  -0.82416
 Alpha  occ. eigenvalues --   -0.81494  -0.79196  -0.78548  -0.78342  -0.78121
 Alpha  occ. eigenvalues --   -0.77426  -0.75140  -0.73863  -0.72567  -0.72105
 Alpha  occ. eigenvalues --   -0.70407  -0.69267  -0.68678  -0.68481  -0.68368
 Alpha  occ. eigenvalues --   -0.67886  -0.67393  -0.66965  -0.66635  -0.65887
 Alpha  occ. eigenvalues --   -0.62778  -0.61740  -0.59802  -0.59181  -0.57444
 Alpha  occ. eigenvalues --   -0.56503  -0.55773  -0.55378  -0.54602  -0.53824
 Alpha  occ. eigenvalues --   -0.53145  -0.51572  -0.50761  -0.49807  -0.49639
 Alpha  occ. eigenvalues --   -0.48464  -0.48091  -0.47614  -0.46961  -0.46571
 Alpha  occ. eigenvalues --   -0.46051  -0.45336  -0.45049  -0.44930  -0.44515
 Alpha  occ. eigenvalues --   -0.43759  -0.43271  -0.42743  -0.42283  -0.42175
 Alpha  occ. eigenvalues --   -0.41780  -0.41096  -0.41020  -0.40895  -0.40682
 Alpha  occ. eigenvalues --   -0.40350  -0.40143  -0.39946  -0.39901  -0.39398
 Alpha  occ. eigenvalues --   -0.39114  -0.38669  -0.38536  -0.38426  -0.38397
 Alpha  occ. eigenvalues --   -0.37883  -0.37649  -0.37431  -0.37160  -0.36781
 Alpha  occ. eigenvalues --   -0.36669  -0.36281  -0.35991  -0.35887  -0.35519
 Alpha  occ. eigenvalues --   -0.35192  -0.35140  -0.34462  -0.34299  -0.33779
 Alpha  occ. eigenvalues --   -0.33523  -0.33473  -0.33231  -0.32874  -0.32712
 Alpha  occ. eigenvalues --   -0.32439  -0.32247  -0.31532  -0.31189  -0.31000
 Alpha  occ. eigenvalues --   -0.30702  -0.30468  -0.29323  -0.28915  -0.28323
 Alpha  occ. eigenvalues --   -0.28133  -0.27560  -0.26310  -0.23981  -0.22361
 Alpha  occ. eigenvalues --   -0.20735  -0.19488  -0.15643
 Alpha virt. eigenvalues --   -0.08742  -0.04174  -0.01486   0.00612   0.02672
 Alpha virt. eigenvalues --    0.04208   0.05715   0.06571   0.07021   0.07221
 Alpha virt. eigenvalues --    0.07363   0.08198   0.08328   0.08526   0.09007

 Mulliken charges:
               1
     1  C    0.021918
     2  C   -0.021077
     3  C   -0.166163
     4  C   -0.148954
     5  C   -0.186833
     6  C   -0.178230
     7  C    0.012609
     8  C    0.069234
     9  C   -0.223937
    10  C   -0.225994
    11  C    0.098091
    12  C    0.097950
    13  C   -0.305058
    14  C   -0.334270
    15  C   -0.284656
    16  C   -0.292667
    17  C   -0.113689
    18  C   -0.134281
    19  C   -0.355450
    20  C   -0.373507
    21  C   -0.089215
    22  C   -0.095750
    23  C    0.117030
    24  C    0.168830
    25  C   -0.366535
    26  C   -0.371505
    27  C   -0.121524
    28  C   -0.135503
    29  C   -0.088364
    30  C   -0.122732
    31  C   -0.086170
    32  C   -0.085142
    33  C    0.076828
    34  C    0.131176
    35  C   -0.371989
    36  C   -0.383458
    37  C   -0.099124
    38  C   -0.094756
    39  C   -0.091356
    40  C   -0.100854
    41  H    0.088800
    42  H    0.095399
    43  H    0.056896
    44  H    0.097097
    45  H    0.088644
    46  H    0.092132
    47  H    0.084737
    48  H    0.061547
    49  H    0.108721
    50  H    0.099441
    51  H    0.100546
    52  H    0.108383
    53  H    0.094018
    54  H    0.079417
    55  H    0.108391
    56  H    0.113016
    57  H    0.093364
    58  H    0.093887
    59  H    0.100742
    60  H    0.110613
    61  H    0.077258
    62  H    0.099805
    63  H    0.095283
    64  H    0.099772
    65  H    0.081536
    66  H    0.063240
    67  H    0.122943
    68  H    0.076938
    69  H    0.105849
    70  H    0.088215
    71  H    0.125476
    72  H    0.093176
    73  H    0.097432
    74  H    0.059885
    75  H    0.117880
    76  H    0.109670
    77  H    0.095812
    78  H    0.102177
    79  H    0.118541
    80  H    0.107345
    81  H    0.070138
    82  H    0.088745
    83  H    0.067902
    84  H    0.102627
    85  H    0.075822
    86  H    0.062949
    87  H    0.136813
    88  H    0.097069
    89  H    0.120482
    90  H    0.089265
    91  H    0.116047
    92  H    0.115563
    93  H    0.075612
    94  H    0.066558
    95  H    0.085023
    96  H    0.070435
 Sum of Mulliken charges =  -0.00000

 Dipole moment (field-independent basis, Debye):
    X=             -1.3697    Y=             -0.1967    Z=              0.8570  Tot=              1.6276
 Quadrupole moment (field-independent basis, Debye-Ang):
   XX=           -219.1067   YY=           -233.6297   ZZ=           -256.2284
   XY=             -3.8778   XZ=              0.5222   YZ=              1.7401

 Normal termination of Gaussian 16 at Tue Jul 30 22:09:38 2019.
