 Gaussian 16, Revision A.03,
 Gaussian 16:  ES64L-G16RevA.03 25-Dec-2016

 ---------------------------------
 # td=(NStates=1) B3LYP/6-31G(d,p)
 ---------------------------------

 --
 TD
 --
 Symbolic Z-matrix:
 Charge =  0 Multiplicity = 1

                         Standard orientation:
 ---------------------------------------------------------------------
 Center     Atomic      Atomic             Coordinates (Angstroms)
 Number     Number       Type             X           Y           Z
 ---------------------------------------------------------------------
      1          6           0       12.101131    0.459120   -0.819116
      2          6           0      -12.302701   -0.151869    0.864524
      3          6           0       13.363604   -0.267061   -0.609987
      4          6           0      -13.177511    0.998982    1.266667
      5          6           0       13.194272   -1.879819   -0.523754
      6          6           0      -13.496653    2.015510    0.181102
      7          6           0       11.081707   -0.059337    0.374003
      8          6           0      -11.063319    0.282321   -0.025160
      9          6           0       12.342066   -2.237046    0.677105
     10          6           0      -12.209544    2.613794   -0.368521
     11          6           0       11.256609   -1.217717    0.991867
     12          6           0      -11.082500    1.601651   -0.661426
     13          6           0       11.517154    0.341230   -2.207444
     14          6           0       12.463854    2.052149   -0.629431
     15          6           0      -13.102238   -1.283658    0.094890
     16          6           0      -11.647163   -0.739475    2.117976
     17          6           0        9.946547    0.891658    0.492092
     18          6           0       -9.916882   -0.614031   -0.207054
     19          6           0       10.331059   -1.795503    2.054711
     20          6           0      -10.022813    2.035282   -1.588911
     21          6           0        8.715777    0.447781    0.517971
     22          6           0       -8.598681   -0.337380   -0.116752
     23          6           0        7.539903    1.292199    0.558465
     24          6           0       -7.590116   -1.194834   -0.430314
     25          6           0        7.686151    2.828746    0.649074
     26          6           0       -7.788346   -2.702122   -0.917688
     27          6           0        6.317186    0.668660    0.395740
     28          6           0       -6.217105   -0.772103   -0.291075
     29          6           0        4.965871    1.387302    0.422552
     30          6           0       -5.068702   -1.524394   -0.487679
     31          6           0        3.705743    0.740918    0.258338
     32          6           0       -3.836203   -1.026241   -0.348727
     33          6           0        2.451992    1.353705    0.228449
     34          6           0       -2.588978   -1.654616   -0.463702
     35          6           0        2.378729    2.830164    0.343493
     36          6           0       -2.522773   -3.127884   -0.746312
     37          6           0        1.276578    0.706625    0.015106
     38          6           0       -1.426586   -0.906902   -0.331732
     39          6           0        1.040420   -0.824171   -0.149183
     40          6           0       -0.059184   -1.316042   -0.363958
     41          1           0       13.887734    0.072239    0.388005
     42          1           0       14.123531   -0.106944   -1.566616
     43          1           0      -12.792233    1.543662    2.055298
     44          1           0      -14.089173    0.544986    1.653585
     45          1           0       14.152183   -2.303355   -0.376051
     46          1           0       12.859403   -2.491060   -1.511490
     47          1           0      -14.175945    2.801423    0.513533
     48          1           0      -13.866297    1.511260   -0.761091
     49          1           0       13.039508   -2.185719    1.586927
     50          1           0       12.030410   -3.105913    0.575629
     51          1           0      -11.725852    3.264412    0.202636
     52          1           0      -12.252352    3.249256   -1.316448
     53          1           0       11.421350   -0.739166   -2.639496
     54          1           0       12.393309    0.872453   -2.815471
     55          1           0       10.627748    0.894974   -2.295697
     56          1           0       12.770765    2.352969    0.511362
     57          1           0       11.662113    2.596155   -1.205356
     58          1           0       13.301683    2.216517   -1.179289
     59          1           0      -13.604609   -0.989736   -0.856448
     60          1           0      -13.761186   -1.854703    0.921698
     61          1           0      -12.412922   -2.070426   -0.132152
     62          1           0      -11.094132   -0.088381    2.747951
     63          1           0      -11.187210   -1.640358    1.846830
     64          1           0      -12.455083   -1.079124    2.937398
     65          1           0       10.266258    1.963302    0.698274
     66          1           0      -10.221860   -1.560919   -0.565538
     67          1           0        9.492821   -1.124543    2.467537
     68          1           0       11.028957   -2.052250    2.847713
     69          1           0        9.718681   -2.647402    1.797508
     70          1           0       -9.465629    1.187687   -2.349084
     71          1           0       -9.080719    2.412289   -1.107820
     72          1           0      -10.594566    2.892318   -2.301478
     73          1           0        8.652946   -0.679101    0.483254
     74          1           0       -8.326255    0.629666    0.300586
     75          1           0        7.974257    3.029790    1.710248
     76          1           0        6.675300    3.208273    0.751884
     77          1           0        8.209396    3.166870   -0.284695
     78          1           0       -8.567441   -2.792784   -1.726590
     79          1           0       -8.323535   -3.182797   -0.204157
     80          1           0       -6.903058   -3.382458   -1.116955
     81          1           0        6.374298   -0.395924    0.317516
     82          1           0       -5.903416    0.216263   -0.130106
     83          1           0        4.813152    2.439882    0.439094
     84          1           0       -4.991172   -2.571533   -0.815747
     85          1           0        3.641887   -0.459353    0.419220
     86          1           0       -3.841533    0.049437   -0.049272
     87          1           0        2.666078    3.133544    1.491599
     88          1           0        1.498650    3.204353   -0.160712
     89          1           0        3.145705    3.555731   -0.258713
     90          1           0       -2.942739   -3.351315   -1.578055
     91          1           0       -3.071691   -3.755395    0.018310
     92          1           0       -1.468809   -3.421950   -0.922869
     93          1           0        0.361263    1.345067    0.045048
     94          1           0       -1.551392    0.055049   -0.185503
     95          1           0        2.119332   -1.400491   -0.102535
     96          1           0        0.011979   -2.470261   -0.510397
 ---------------------------------------------------------------------

 SCF Done:  E(RB3LYP) =  -1557.56028669     A.U. after   16 cycles

 Excitation energies and oscillator strengths:

 Excited State   1:      Singlet-A      2.2924 eV  540.85 nm  f=2.7943  <S**2>=0.000
     147 ->149         0.13232
     148 ->149         0.68907
 This state for optimization and/or second-order correction.
 Total Energy, E(TD-HF/TD-DFT) =  -1557.47604265
 Copying the excited state density for this state as the 1-particle RhoCI density.

 The electronic state is 1-A.
 Alpha  occ. eigenvalues --  -10.20808 -10.20530 -10.20334 -10.20045 -10.20003
 Alpha  occ. eigenvalues --  -10.19982 -10.19897 -10.19888 -10.19763 -10.19656
 Alpha  occ. eigenvalues --  -10.19549 -10.19399 -10.19226 -10.19212 -10.19193
 Alpha  occ. eigenvalues --  -10.19138 -10.18840 -10.18660 -10.18642 -10.18632
 Alpha  occ. eigenvalues --  -10.18491 -10.18480 -10.18439 -10.18317 -10.18275
 Alpha  occ. eigenvalues --  -10.18223 -10.18181 -10.18103 -10.18031 -10.18018
 Alpha  occ. eigenvalues --  -10.18003 -10.17901 -10.17877 -10.17832 -10.17788
 Alpha  occ. eigenvalues --  -10.17581 -10.17155 -10.17136 -10.16925 -10.16861
 Alpha  occ. eigenvalues --   -0.84518  -0.84179  -0.84146  -0.82957  -0.82153
 Alpha  occ. eigenvalues --   -0.81500  -0.80054  -0.78567  -0.78380  -0.77596
 Alpha  occ. eigenvalues --   -0.76727  -0.75441  -0.73514  -0.71990  -0.71724
 Alpha  occ. eigenvalues --   -0.70370  -0.68902  -0.68386  -0.67824  -0.67657
 Alpha  occ. eigenvalues --   -0.67516  -0.67371  -0.66977  -0.66477  -0.66134
 Alpha  occ. eigenvalues --   -0.62774  -0.61739  -0.60258  -0.59191  -0.57530
 Alpha  occ. eigenvalues --   -0.56935  -0.54870  -0.54095  -0.53740  -0.53063
 Alpha  occ. eigenvalues --   -0.52776  -0.51551  -0.50610  -0.50005  -0.48861
 Alpha  occ. eigenvalues --   -0.47842  -0.47182  -0.46997  -0.46638  -0.45875
 Alpha  occ. eigenvalues --   -0.45635  -0.45157  -0.44959  -0.44161  -0.44013
 Alpha  occ. eigenvalues --   -0.43735  -0.43498  -0.43293  -0.42664  -0.42481
 Alpha  occ. eigenvalues --   -0.42278  -0.42123  -0.41740  -0.41282  -0.40791
 Alpha  occ. eigenvalues --   -0.40203  -0.39993  -0.39675  -0.39475  -0.39295
 Alpha  occ. eigenvalues --   -0.39025  -0.38747  -0.38412  -0.38093  -0.37949
 Alpha  occ. eigenvalues --   -0.37828  -0.37268  -0.36917  -0.36733  -0.36507
 Alpha  occ. eigenvalues --   -0.36439  -0.36035  -0.35577  -0.35205  -0.35032
 Alpha  occ. eigenvalues --   -0.34875  -0.34601  -0.34358  -0.34059  -0.33987
 Alpha  occ. eigenvalues --   -0.33923  -0.33369  -0.33191  -0.33080  -0.32960
 Alpha  occ. eigenvalues --   -0.32544  -0.32414  -0.31583  -0.31523  -0.31024
 Alpha  occ. eigenvalues --   -0.30297  -0.30060  -0.29563  -0.28940  -0.28728
 Alpha  occ. eigenvalues --   -0.28420  -0.27233  -0.25707  -0.24170  -0.22484
 Alpha  occ. eigenvalues --   -0.21165  -0.18558  -0.16592
 Alpha virt. eigenvalues --   -0.07911  -0.05378  -0.01231   0.00828   0.02441
 Alpha virt. eigenvalues --    0.04693   0.06133   0.06824   0.07227   0.07342
 Alpha virt. eigenvalues --    0.08301   0.08491   0.08713   0.09104   0.09223

 Mulliken charges:
               1
     1  C    0.029614
     2  C    0.006453
     3  C   -0.161421
     4  C   -0.159675
     5  C   -0.200309
     6  C   -0.192460
     7  C    0.030002
     8  C    0.042646
     9  C   -0.180160
    10  C   -0.211788
    11  C    0.051576
    12  C    0.053443
    13  C   -0.284829
    14  C   -0.317928
    15  C   -0.307347
    16  C   -0.296615
    17  C   -0.130030
    18  C   -0.145834
    19  C   -0.369202
    20  C   -0.343136
    21  C   -0.087167
    22  C   -0.071763
    23  C    0.091623
    24  C    0.113460
    25  C   -0.366675
    26  C   -0.383147
    27  C   -0.115957
    28  C   -0.145745
    29  C   -0.112643
    30  C   -0.034493
    31  C   -0.109612
    32  C   -0.126399
    33  C    0.159606
    34  C    0.125751
    35  C   -0.376339
    36  C   -0.379261
    37  C   -0.153216
    38  C   -0.095839
    39  C   -0.105376
    40  C   -0.041772
    41  H    0.083964
    42  H    0.051354
    43  H    0.099663
    44  H    0.091325
    45  H    0.099019
    46  H    0.068814
    47  H    0.093647
    48  H    0.096960
    49  H    0.089440
    50  H    0.107956
    51  H    0.126548
    52  H    0.078032
    53  H    0.096876
    54  H    0.077079
    55  H    0.117443
    56  H    0.085959
    57  H    0.096448
    58  H    0.116257
    59  H    0.110996
    60  H    0.080882
    61  H    0.106263
    62  H    0.115893
    63  H    0.108954
    64  H    0.056764
    65  H    0.099215
    66  H    0.078937
    67  H    0.104002
    68  H    0.105553
    69  H    0.114928
    70  H    0.095880
    71  H    0.121603
    72  H    0.067833
    73  H    0.086741
    74  H    0.084456
    75  H    0.124900
    76  H    0.111635
    77  H    0.129288
    78  H    0.109920
    79  H    0.134271
    80  H    0.113468
    81  H    0.080521
    82  H    0.074287
    83  H    0.087492
    84  H    0.063663
    85  H    0.059045
    86  H    0.061664
    87  H    0.104221
    88  H    0.115185
    89  H    0.088937
    90  H    0.138796
    91  H    0.112431
    92  H    0.104659
    93  H    0.076830
    94  H    0.058715
    95  H    0.077992
    96  H    0.058360
 Sum of Mulliken charges =  -0.00000

 Dipole moment (field-independent basis, Debye):
    X=             -0.6544    Y=             -0.0478    Z=              0.2504  Tot=              0.7022
 Quadrupole moment (field-independent basis, Debye-Ang):
   XX=           -221.8238   YY=           -232.8497   ZZ=           -255.1362
   XY=             -3.0856   XZ=             -0.1965   YZ=              3.3439

 Normal termination of Gaussian 16 at Thu Aug  1 21:21:39 2019.
