 Gaussian 16, Revision A.03,
 Gaussian 16:  ES64L-G16RevA.03 25-Dec-2016

 ---------------------------------
 # td=(NStates=1) B3LYP/6-31G(d,p)
 ---------------------------------

 --
 TD
 --
 Symbolic Z-matrix:
 Charge =  0 Multiplicity = 1

                         Standard orientation:
 ---------------------------------------------------------------------
 Center     Atomic      Atomic             Coordinates (Angstroms)
 Number     Number       Type             X           Y           Z
 ---------------------------------------------------------------------
      1          6           0       12.036739    0.504537   -0.667706
      2          6           0      -12.098219   -0.045519    0.823179
      3          6           0       13.395661   -0.250222   -0.698183
      4          6           0      -13.088266    1.150544    1.276706
      5          6           0       13.139801   -1.705241   -0.758860
      6          6           0      -13.409243    2.004640    0.126681
      7          6           0       10.928137   -0.059133    0.298970
      8          6           0      -10.996493    0.409329   -0.115113
      9          6           0       12.341831   -2.205237    0.548000
     10          6           0      -12.202545    2.680324   -0.519135
     11          6           0       11.068741   -1.246098    0.837108
     12          6           0      -11.105394    1.595946   -0.716445
     13          6           0       11.498638    0.665669   -2.059579
     14          6           0       12.349334    2.002379   -0.349868
     15          6           0      -13.005031   -1.005661    0.014232
     16          6           0      -11.546687   -0.825522    2.113955
     17          6           0        9.804607    0.885579    0.503031
     18          6           0       -9.836596   -0.584158   -0.213602
     19          6           0       10.092601   -1.863505    1.853506
     20          6           0      -10.056692    2.068512   -1.753739
     21          6           0        8.503242    0.493894    0.388509
     22          6           0       -8.434008   -0.253562   -0.213552
     23          6           0        7.355046    1.322938    0.520259
     24          6           0       -7.414036   -1.268578   -0.399487
     25          6           0        7.705192    2.833848    0.734244
     26          6           0       -7.842459   -2.720149   -0.673875
     27          6           0        6.118034    0.826504    0.355879
     28          6           0       -6.121960   -0.916526   -0.275050
     29          6           0        4.906312    1.504202    0.436355
     30          6           0       -4.917474   -1.678301   -0.361898
     31          6           0        3.720321    0.767525    0.314399
     32          6           0       -3.688793   -1.114919   -0.244657
     33          6           0        2.379846    1.314348    0.250333
     34          6           0       -2.361773   -1.832639   -0.316814
     35          6           0        2.254686    2.833142    0.441064
     36          6           0       -2.423670   -3.300301   -0.734584
     37          6           0        1.249755    0.517458    0.125476
     38          6           0       -1.206756   -1.106326   -0.178070
     39          6           0        1.233511   -0.957004   -0.022595
     40          6           0        0.157456   -1.695382   -0.268472
     41          1           0       13.661362    0.198278    0.303850
     42          1           0       14.135081    0.180311   -1.364817
     43          1           0      -12.582463    1.734465    1.933954
     44          1           0      -14.029696    0.575273    1.672046
     45          1           0       14.150121   -2.175998   -1.128444
     46          1           0       12.273826   -1.788016   -1.659627
     47          1           0      -14.226145    2.710938    0.508060
     48          1           0      -13.982381    1.418198   -0.771643
     49          1           0       13.112015   -2.327079    1.333733
     50          1           0       11.887910   -3.140715    0.265347
     51          1           0      -11.979531    3.507472    0.003280
     52          1           0      -12.501260    2.966374   -1.584887
     53          1           0       11.440623   -0.314039   -2.465820
     54          1           0       12.258861    1.137459   -2.794976
     55          1           0       10.626310    1.068716   -2.252004
     56          1           0       12.704845    2.270890    0.678299
     57          1           0       11.376937    2.745805   -0.174346
     58          1           0       13.026301    2.405547   -1.066378
     59          1           0      -13.553061   -0.479037   -0.662230
     60          1           0      -13.690172   -1.491638    0.702385
     61          1           0      -12.345652   -1.705929   -0.654240
     62          1           0      -10.898541   -0.138984    2.789208
     63          1           0      -10.807496   -1.761086    1.789297
     64          1           0      -12.595430   -1.176505    2.543540
     65          1           0        9.929508    1.805748    0.666912
     66          1           0      -10.221516   -1.614034   -0.426583
     67          1           0        9.500241   -1.171860    2.340016
     68          1           0       10.574160   -2.798310    2.520632
     69          1           0        9.300771   -2.616076    1.303778
     70          1           0       -9.346811    1.189963   -1.933059
     71          1           0       -9.343523    2.794085   -1.289605
     72          1           0      -10.431403    2.579625   -2.522258
     73          1           0        8.339734   -0.647524    0.352002
     74          1           0       -8.086323    0.811535    0.091855
     75          1           0        8.263407    2.906949    1.481321
     76          1           0        6.666878    3.234576    0.982050
     77          1           0        8.103671    3.266720   -0.296586
     78          1           0       -8.540486   -2.723918   -1.676765
     79          1           0       -8.438531   -3.144681    0.140233
     80          1           0       -6.787933   -3.184743   -0.706358
     81          1           0        6.222998   -0.231214   -0.117971
     82          1           0       -6.085616   -0.019650    0.179554
     83          1           0        4.712744    2.433920    0.533572
     84          1           0       -5.178951   -2.787277   -0.952272
     85          1           0        3.968090   -0.345544    0.269447
     86          1           0       -3.667317   -0.086264   -0.097889
     87          1           0        2.733165    3.298825    1.391181
     88          1           0        1.297371    3.245553    0.607855
     89          1           0        2.849799    3.282437   -0.575104
     90          1           0       -3.048792   -3.144257   -1.657492
     91          1           0       -2.987251   -3.892657    0.040235
     92          1           0       -1.688112   -3.992461   -0.769875
     93          1           0        0.251792    0.936276    0.161632
     94          1           0       -1.420898    0.048093    0.036545
     95          1           0        2.093481   -1.467579    0.056572
     96          1           0        0.102911   -2.870951   -0.600795
 ---------------------------------------------------------------------

 SCF Done:  E(RB3LYP) =  -1557.49620261     A.U. after   15 cycles

 Excitation energies and oscillator strengths:

 Excited State   1:      Singlet-A      2.3614 eV  525.05 nm  f=2.7728  <S**2>=0.000
     148 ->149         0.70755
 This state for optimization and/or second-order correction.
 Total Energy, E(TD-HF/TD-DFT) =  -1557.40942282
 Copying the excited state density for this state as the 1-particle RhoCI density.

 The electronic state is 1-A.
 Alpha  occ. eigenvalues --  -10.21096 -10.20953 -10.20777 -10.20623 -10.20600
 Alpha  occ. eigenvalues --  -10.20570 -10.20514 -10.20068 -10.19980 -10.19952
 Alpha  occ. eigenvalues --  -10.19872 -10.19830 -10.19773 -10.19720 -10.19692
 Alpha  occ. eigenvalues --  -10.19683 -10.19569 -10.19551 -10.19539 -10.19524
 Alpha  occ. eigenvalues --  -10.19204 -10.18967 -10.18833 -10.18755 -10.18754
 Alpha  occ. eigenvalues --  -10.18559 -10.18434 -10.18339 -10.18324 -10.18296
 Alpha  occ. eigenvalues --  -10.18251 -10.17853 -10.17836 -10.17774 -10.17567
 Alpha  occ. eigenvalues --  -10.17364 -10.17290 -10.16625 -10.16369 -10.14987
 Alpha  occ. eigenvalues --   -0.84872  -0.84444  -0.83640  -0.83363  -0.82350
 Alpha  occ. eigenvalues --   -0.81233  -0.79247  -0.78093  -0.77289  -0.77144
 Alpha  occ. eigenvalues --   -0.76689  -0.75318  -0.74563  -0.71829  -0.71092
 Alpha  occ. eigenvalues --   -0.69873  -0.69061  -0.68410  -0.67818  -0.67672
 Alpha  occ. eigenvalues --   -0.67447  -0.67266  -0.66809  -0.66517  -0.66222
 Alpha  occ. eigenvalues --   -0.62994  -0.62066  -0.58949  -0.58515  -0.57519
 Alpha  occ. eigenvalues --   -0.56747  -0.55442  -0.55284  -0.54410  -0.53706
 Alpha  occ. eigenvalues --   -0.52563  -0.51926  -0.50714  -0.49959  -0.49251
 Alpha  occ. eigenvalues --   -0.48425  -0.47978  -0.47340  -0.46457  -0.46341
 Alpha  occ. eigenvalues --   -0.45540  -0.45169  -0.44856  -0.44301  -0.43741
 Alpha  occ. eigenvalues --   -0.43517  -0.43182  -0.42968  -0.42917  -0.42365
 Alpha  occ. eigenvalues --   -0.41953  -0.41911  -0.41290  -0.40851  -0.40721
 Alpha  occ. eigenvalues --   -0.40353  -0.40192  -0.40056  -0.39835  -0.39389
 Alpha  occ. eigenvalues --   -0.39319  -0.38751  -0.38558  -0.38343  -0.37852
 Alpha  occ. eigenvalues --   -0.37664  -0.37386  -0.37266  -0.36894  -0.36766
 Alpha  occ. eigenvalues --   -0.36496  -0.36010  -0.35632  -0.35352  -0.35034
 Alpha  occ. eigenvalues --   -0.34876  -0.34406  -0.34140  -0.33982  -0.33816
 Alpha  occ. eigenvalues --   -0.33768  -0.33329  -0.33192  -0.32781  -0.32082
 Alpha  occ. eigenvalues --   -0.31945  -0.31807  -0.31364  -0.31122  -0.30743
 Alpha  occ. eigenvalues --   -0.30495  -0.29670  -0.29156  -0.28985  -0.28097
 Alpha  occ. eigenvalues --   -0.27588  -0.27374  -0.26251  -0.24356  -0.23188
 Alpha  occ. eigenvalues --   -0.21778  -0.19100  -0.17215
 Alpha virt. eigenvalues --   -0.07939  -0.05718  -0.01833   0.00650   0.03017
 Alpha virt. eigenvalues --    0.04330   0.05410   0.05900   0.06648   0.07140
 Alpha virt. eigenvalues --    0.07623   0.07722   0.08147   0.08275   0.08439

 Mulliken charges:
               1
     1  C   -0.034509
     2  C   -0.029405
     3  C   -0.149310
     4  C   -0.149458
     5  C   -0.189512
     6  C   -0.186350
     7  C    0.099225
     8  C    0.088923
     9  C   -0.218195
    10  C   -0.208519
    11  C    0.047214
    12  C    0.033019
    13  C   -0.270394
    14  C   -0.300641
    15  C   -0.287618
    16  C   -0.275039
    17  C   -0.106516
    18  C   -0.146401
    19  C   -0.354400
    20  C   -0.361396
    21  C   -0.095995
    22  C   -0.116573
    23  C    0.093209
    24  C    0.114123
    25  C   -0.352302
    26  C   -0.351823
    27  C   -0.132256
    28  C   -0.101884
    29  C   -0.038036
    30  C   -0.076891
    31  C   -0.119253
    32  C   -0.127798
    33  C    0.105135
    34  C    0.099369
    35  C   -0.361936
    36  C   -0.361741
    37  C   -0.118615
    38  C   -0.111001
    39  C   -0.056963
    40  C   -0.108324
    41  H    0.090992
    42  H    0.091463
    43  H    0.101611
    44  H    0.077010
    45  H    0.079704
    46  H    0.070033
    47  H    0.073223
    48  H    0.071687
    49  H    0.114678
    50  H    0.112247
    51  H    0.120661
    52  H    0.097239
    53  H    0.086484
    54  H    0.073017
    55  H    0.112849
    56  H    0.085329
    57  H    0.062467
    58  H    0.106566
    59  H    0.113981
    60  H    0.092585
    61  H    0.078388
    62  H    0.097131
    63  H    0.079232
    64  H    0.081180
    65  H    0.062014
    66  H    0.096605
    67  H    0.134025
    68  H    0.084701
    69  H    0.084364
    70  H    0.109927
    71  H    0.096025
    72  H    0.107307
    73  H    0.069083
    74  H    0.090929
    75  H    0.134522
    76  H    0.096385
    77  H    0.116346
    78  H    0.099359
    79  H    0.129552
    80  H    0.092318
    81  H    0.082650
    82  H    0.069741
    83  H    0.066840
    84  H    0.068300
    85  H    0.077836
    86  H    0.087571
    87  H    0.109761
    88  H    0.117241
    89  H    0.094171
    90  H    0.127578
    91  H    0.110921
    92  H    0.114678
    93  H    0.078294
    94  H    0.073938
    95  H    0.077252
    96  H    0.088846
 Sum of Mulliken charges =  -0.00000

 Dipole moment (field-independent basis, Debye):
    X=             -0.3583    Y=              0.5970    Z=              0.3166  Tot=              0.7649
 Quadrupole moment (field-independent basis, Debye-Ang):
   XX=           -243.1160   YY=           -235.4028   ZZ=           -257.1629
   XY=             -6.0057   XZ=              0.0401   YZ=              3.3130

 Normal termination of Gaussian 16 at Fri Jul 26 17:42:11 2019.
