 Gaussian 16, Revision A.03,
 Gaussian 16:  ES64L-G16RevA.03 25-Dec-2016

 ---------------------------------
 # td=(NStates=1) B3LYP/6-31G(d,p)
 ---------------------------------

 --
 TD
 --
 Symbolic Z-matrix:
 Charge =  0 Multiplicity = 1

                         Standard orientation:
 ---------------------------------------------------------------------
 Center     Atomic      Atomic             Coordinates (Angstroms)
 Number     Number       Type             X           Y           Z
 ---------------------------------------------------------------------
      1          6           0       12.196581   -0.564540    0.705758
      2          6           0      -12.163971    0.085476   -0.711344
      3          6           0       13.587093    0.299661    0.480801
      4          6           0      -13.069208   -1.048145   -1.347247
      5          6           0       13.347788    1.824833    0.651919
      6          6           0      -13.441987   -2.061814   -0.263191
      7          6           0       11.119680   -0.031192   -0.207703
      8          6           0      -11.049520   -0.467329    0.139764
      9          6           0       12.351994    2.237501   -0.479334
     10          6           0      -12.177475   -2.498296    0.459192
     11          6           0       11.243754    1.212712   -0.827340
     12          6           0      -11.108251   -1.619164    0.728390
     13          6           0       11.661836   -0.632127    2.212458
     14          6           0       12.571362   -2.049081    0.377668
     15          6           0      -12.972276    1.041689    0.032033
     16          6           0      -11.619517    0.855777   -1.997194
     17          6           0        9.901288   -0.970188   -0.398053
     18          6           0       -9.904245    0.518540    0.359062
     19          6           0       10.137643    1.910766   -1.622398
     20          6           0      -10.011181   -2.158239    1.614426
     21          6           0        8.628503   -0.483278   -0.333249
     22          6           0       -8.571241    0.255487    0.332148
     23          6           0        7.392185   -1.292104   -0.499283
     24          6           0       -7.557473    1.303736    0.504867
     25          6           0        7.652140   -2.796463   -0.709392
     26          6           0       -7.875928    2.747489    0.800020
     27          6           0        6.161082   -0.719033   -0.481406
     28          6           0       -6.293090    0.818763    0.500037
     29          6           0        4.934121   -1.379351   -0.414215
     30          6           0       -5.007068    1.496996    0.615858
     31          6           0        3.753154   -0.694421   -0.314337
     32          6           0       -3.773311    0.973348    0.341589
     33          6           0        2.423023   -1.253515   -0.239978
     34          6           0       -2.548149    1.794239    0.205524
     35          6           0        2.209759   -2.760637   -0.409740
     36          6           0       -2.769599    3.328805    0.589142
     37          6           0        1.277441   -0.458820   -0.220913
     38          6           0       -1.389386    1.130016    0.101458
     39          6           0        1.131500    0.903520   -0.111648
     40          6           0       -0.019491    1.584697    0.034301
     41          1           0       14.068699    0.177538   -0.452491
     42          1           0       14.320965   -0.333279    1.128652
     43          1           0      -12.226349   -1.657902   -2.113723
     44          1           0      -13.886398   -0.654731   -2.015097
     45          1           0       14.330144    2.354502    0.397734
     46          1           0       12.856143    2.126372    1.700786
     47          1           0      -14.127363   -2.977146   -0.553371
     48          1           0      -14.112326   -1.497103    0.378740
     49          1           0       12.793717    2.188725   -1.481739
     50          1           0       11.867548    3.211166   -0.521337
     51          1           0      -11.848283   -3.249492   -0.332041
     52          1           0      -12.595429   -3.025259    1.310579
     53          1           0       11.195074    0.416656    2.611927
     54          1           0       12.519237   -0.927437    2.852171
     55          1           0       10.820735   -1.285487    2.341585
     56          1           0       12.699970   -2.286271   -0.662812
     57          1           0       11.820649   -2.547780    0.593460
     58          1           0       13.452572   -2.528393    0.808707
     59          1           0      -13.521256    0.769080    1.009148
     60          1           0      -13.833451    1.493767   -0.647214
     61          1           0      -12.432863    1.924796    0.204610
     62          1           0      -11.094568    0.032455   -2.597784
     63          1           0      -10.606251    1.455627   -1.679557
     64          1           0      -12.400000    1.222236   -2.659240
     65          1           0       10.005881   -2.117607   -0.459226
     66          1           0      -10.228663    1.684294    0.596392
     67          1           0        9.160014    1.229436   -1.828588
     68          1           0       10.596407    2.093209   -2.501299
     69          1           0        9.614436    2.768351   -1.150512
     70          1           0       -9.336467   -1.480942    1.798445
     71          1           0       -9.410213   -3.087754    1.271629
     72          1           0      -10.599061   -2.678667    2.433724
     73          1           0        8.354645    0.569674   -0.256841
     74          1           0       -8.267168   -0.749668    0.240946
     75          1           0        8.315943   -2.846038   -1.569148
     76          1           0        6.618770   -3.393484   -0.821725
     77          1           0        8.425998   -3.101038   -0.019161
     78          1           0       -8.705003    2.969840    1.544017
     79          1           0       -8.498823    3.103122   -0.362303
     80          1           0       -6.961472    3.287700    0.974618
     81          1           0        6.168437    0.270200   -0.156141
     82          1           0       -6.042373   -0.107520    0.019392
     83          1           0        4.811189   -2.524475   -0.359704
     84          1           0       -5.057671    2.646571    0.621882
     85          1           0        3.805703    0.344129   -0.319520
     86          1           0       -3.650861   -0.205996    0.128170
     87          1           0        2.401752   -3.100230   -1.606654
     88          1           0        1.095443   -3.171797   -0.156230
     89          1           0        2.954043   -3.206320    0.317008
     90          1           0       -3.216529    3.495368    1.562068
     91          1           0       -3.348740    3.664120   -0.311318
     92          1           0       -1.813563    3.648774    0.515299
     93          1           0        0.331891   -1.015001   -0.418437
     94          1           0       -1.715335   -0.098897   -0.043453
     95          1           0        1.959487    1.622906   -0.197765
     96          1           0        0.013623    2.767182   -0.297939
 ---------------------------------------------------------------------

 SCF Done:  E(RB3LYP) =  -1557.54351649     A.U. after   15 cycles

 Excitation energies and oscillator strengths:

 Excited State   1:      Singlet-A      2.3051 eV  537.86 nm  f=2.9896  <S**2>=0.000
     148 ->149         0.70441
 This state for optimization and/or second-order correction.
 Total Energy, E(TD-HF/TD-DFT) =  -1557.45880411
 Copying the excited state density for this state as the 1-particle RhoCI density.

 The electronic state is 1-A.
 Alpha  occ. eigenvalues --  -10.21344 -10.21327 -10.20876 -10.20518 -10.20503
 Alpha  occ. eigenvalues --  -10.20337 -10.20303 -10.20246 -10.20245 -10.20177
 Alpha  occ. eigenvalues --  -10.20141 -10.20060 -10.19891 -10.19653 -10.19585
 Alpha  occ. eigenvalues --  -10.19584 -10.19500 -10.19286 -10.19152 -10.19085
 Alpha  occ. eigenvalues --  -10.18970 -10.18893 -10.18834 -10.18806 -10.18648
 Alpha  occ. eigenvalues --  -10.18627 -10.18449 -10.18388 -10.18310 -10.18291
 Alpha  occ. eigenvalues --  -10.18280 -10.18189 -10.18059 -10.17976 -10.17893
 Alpha  occ. eigenvalues --  -10.17786 -10.17565 -10.17352 -10.17224 -10.15232
 Alpha  occ. eigenvalues --   -0.86044  -0.83917  -0.83435  -0.82925  -0.82241
 Alpha  occ. eigenvalues --   -0.81225  -0.79255  -0.78983  -0.78015  -0.77261
 Alpha  occ. eigenvalues --   -0.76478  -0.74946  -0.74244  -0.71919  -0.71629
 Alpha  occ. eigenvalues --   -0.70019  -0.68804  -0.68786  -0.68573  -0.67983
 Alpha  occ. eigenvalues --   -0.67307  -0.67162  -0.66840  -0.66332  -0.65945
 Alpha  occ. eigenvalues --   -0.62613  -0.61570  -0.59396  -0.58845  -0.56721
 Alpha  occ. eigenvalues --   -0.56448  -0.56024  -0.55506  -0.53420  -0.52761
 Alpha  occ. eigenvalues --   -0.51966  -0.51614  -0.50063  -0.49406  -0.48466
 Alpha  occ. eigenvalues --   -0.48064  -0.47752  -0.46975  -0.46755  -0.46238
 Alpha  occ. eigenvalues --   -0.45342  -0.45014  -0.45005  -0.44243  -0.43873
 Alpha  occ. eigenvalues --   -0.43668  -0.43088  -0.42653  -0.42317  -0.42084
 Alpha  occ. eigenvalues --   -0.41417  -0.40860  -0.40746  -0.40587  -0.40547
 Alpha  occ. eigenvalues --   -0.40443  -0.40197  -0.40036  -0.39724  -0.39683
 Alpha  occ. eigenvalues --   -0.39442  -0.39196  -0.38929  -0.38782  -0.38103
 Alpha  occ. eigenvalues --   -0.37798  -0.37775  -0.37617  -0.37256  -0.36837
 Alpha  occ. eigenvalues --   -0.36769  -0.36180  -0.35917  -0.35622  -0.35213
 Alpha  occ. eigenvalues --   -0.35031  -0.34778  -0.33870  -0.33543  -0.33487
 Alpha  occ. eigenvalues --   -0.33404  -0.33149  -0.32959  -0.32641  -0.32397
 Alpha  occ. eigenvalues --   -0.32222  -0.31940  -0.31349  -0.31067  -0.30923
 Alpha  occ. eigenvalues --   -0.30362  -0.30144  -0.29143  -0.28876  -0.28297
 Alpha  occ. eigenvalues --   -0.28035  -0.27093  -0.26416  -0.24321  -0.22926
 Alpha  occ. eigenvalues --   -0.21254  -0.19293  -0.16924
 Alpha virt. eigenvalues --   -0.08139  -0.04884  -0.01918   0.00894   0.02443
 Alpha virt. eigenvalues --    0.03785   0.04929   0.05429   0.06146   0.07082
 Alpha virt. eigenvalues --    0.07363   0.07486   0.07727   0.08052   0.08471

 Mulliken charges:
               1
     1  C   -0.025351
     2  C   -0.013313
     3  C   -0.174080
     4  C   -0.150524
     5  C   -0.183418
     6  C   -0.190793
     7  C    0.077605
     8  C    0.071486
     9  C   -0.216168
    10  C   -0.230603
    11  C    0.028434
    12  C    0.114831
    13  C   -0.296573
    14  C   -0.304821
    15  C   -0.274330
    16  C   -0.306744
    17  C   -0.152822
    18  C   -0.169765
    19  C   -0.356884
    20  C   -0.341819
    21  C   -0.079992
    22  C   -0.074930
    23  C    0.123714
    24  C    0.135092
    25  C   -0.385010
    26  C   -0.345061
    27  C   -0.140404
    28  C   -0.137324
    29  C   -0.069481
    30  C   -0.108167
    31  C   -0.091682
    32  C   -0.098469
    33  C    0.100991
    34  C    0.079302
    35  C   -0.352498
    36  C   -0.354546
    37  C   -0.126108
    38  C   -0.085707
    39  C   -0.051505
    40  C   -0.139494
    41  H    0.106108
    42  H    0.071567
    43  H    0.036338
    44  H    0.084617
    45  H    0.092418
    46  H    0.093927
    47  H    0.075840
    48  H    0.097688
    49  H    0.109890
    50  H    0.109389
    51  H    0.107212
    52  H    0.095288
    53  H    0.075553
    54  H    0.103059
    55  H    0.117799
    56  H    0.096612
    57  H    0.106282
    58  H    0.094367
    59  H    0.090937
    60  H    0.069518
    61  H    0.109941
    62  H    0.093163
    63  H    0.089333
    64  H    0.107605
    65  H    0.078263
    66  H    0.073440
    67  H    0.092305
    68  H    0.119992
    69  H    0.114438
    70  H    0.121725
    71  H    0.095988
    72  H    0.095953
    73  H    0.083798
    74  H    0.091563
    75  H    0.130343
    76  H    0.100129
    77  H    0.125814
    78  H    0.126131
    79  H    0.065525
    80  H    0.120490
    81  H    0.080532
    82  H    0.082501
    83  H    0.076664
    84  H    0.071798
    85  H    0.074126
    86  H    0.065005
    87  H    0.097135
    88  H    0.097752
    89  H    0.116197
    90  H    0.135699
    91  H    0.123490
    92  H    0.115047
    93  H    0.084093
    94  H    0.052005
    95  H    0.084313
    96  H    0.070223
 Sum of Mulliken charges =  -0.00000

 Dipole moment (field-independent basis, Debye):
    X=              1.4034    Y=              0.1352    Z=             -0.1104  Tot=              1.4142
 Quadrupole moment (field-independent basis, Debye-Ang):
   XX=           -223.7999   YY=           -235.9872   ZZ=           -257.8512
   XY=              0.0575   XZ=             -5.8993   YZ=             -0.1964

 Normal termination of Gaussian 16 at Fri Jul 26 15:04:37 2019.
