 Gaussian 16, Revision A.03,
 Gaussian 16:  ES64L-G16RevA.03 25-Dec-2016

 ---------------------------------
 # td=(NStates=1) B3LYP/6-31G(d,p)
 ---------------------------------

 --
 TD
 --
 Symbolic Z-matrix:
 Charge =  0 Multiplicity = 1

                         Standard orientation:
 ---------------------------------------------------------------------
 Center     Atomic      Atomic             Coordinates (Angstroms)
 Number     Number       Type             X           Y           Z
 ---------------------------------------------------------------------
      1          6           0       12.110800    0.378625   -0.752427
      2          6           0      -12.142467   -0.174665    0.798355
      3          6           0       13.330498   -0.443245   -0.542930
      4          6           0      -13.103259    0.901899    1.347331
      5          6           0       13.098618   -1.979744   -0.464075
      6          6           0      -13.517787    1.871333    0.286543
      7          6           0       11.034321   -0.085157    0.161460
      8          6           0      -11.059581    0.323723   -0.084128
      9          6           0       12.215596   -2.209648    0.784283
     10          6           0      -12.286144    2.561964   -0.352873
     11          6           0       11.067547   -1.187118    0.948231
     12          6           0      -11.078763    1.603670   -0.596898
     13          6           0       11.677249    0.294326   -2.271457
     14          6           0       12.522651    1.789876   -0.387998
     15          6           0      -13.006166   -1.265727   -0.042934
     16          6           0      -11.577480   -0.932942    2.076485
     17          6           0        9.878483    0.802861    0.274769
     18          6           0       -9.885933   -0.665385   -0.340456
     19          6           0       10.000148   -1.579893    1.996891
     20          6           0       -9.970402    2.164890   -1.400839
     21          6           0        8.632567    0.488148    0.343953
     22          6           0       -8.526518   -0.218324   -0.447539
     23          6           0        7.428222    1.417403    0.414652
     24          6           0       -7.461124   -1.223405   -0.544508
     25          6           0        7.747396    2.893788    0.563978
     26          6           0       -7.853601   -2.554180   -0.854084
     27          6           0        6.225298    0.905986    0.344343
     28          6           0       -6.140386   -0.763547   -0.478804
     29          6           0        4.895951    1.634607    0.392875
     30          6           0       -4.920638   -1.574040   -0.422107
     31          6           0        3.808340    0.857323    0.305030
     32          6           0       -3.744017   -0.890797   -0.388689
     33          6           0        2.466452    1.355243    0.215137
     34          6           0       -2.463472   -1.687051   -0.393150
     35          6           0        2.198880    2.855671    0.472813
     36          6           0       -2.574082   -3.189686   -0.432497
     37          6           0        1.253694    0.645026    0.044439
     38          6           0       -1.301838   -0.883850   -0.331240
     39          6           0        1.191733   -0.799128   -0.057578
     40          6           0        0.069303   -1.502264   -0.258274
     41          1           0       13.812121   -0.286263    0.460007
     42          1           0       13.981225   -0.317653   -1.292118
     43          1           0      -12.615661    1.450968    2.198366
     44          1           0      -13.982973    0.312042    1.668890
     45          1           0       14.031007   -2.505658   -0.391294
     46          1           0       12.773413   -2.340804   -1.416609
     47          1           0      -14.291649    2.655812    0.467197
     48          1           0      -14.166374    1.341326   -0.612785
     49          1           0       12.694056   -2.025086    1.676427
     50          1           0       11.812543   -3.293523    0.911331
     51          1           0      -12.136673    3.313559    0.277410
     52          1           0      -12.667543    2.781524   -1.281736
     53          1           0       11.589672   -0.788727   -2.604531
     54          1           0       12.387416    0.917701   -2.854782
     55          1           0       10.804629    0.699258   -2.310952
     56          1           0       12.727243    1.730180    0.742630
     57          1           0       11.949469    2.744557   -0.469929
     58          1           0       13.450914    2.046529   -0.946789
     59          1           0      -13.354667   -0.614680   -0.885260
     60          1           0      -13.638290   -1.552086    0.588792
     61          1           0      -12.311063   -2.038934   -0.507228
     62          1           0      -10.962834   -0.215989    2.604667
     63          1           0      -11.023397   -1.864872    1.588851
     64          1           0      -12.358451   -1.249632    2.848794
     65          1           0       10.095193    1.890600    0.417425
     66          1           0      -10.105940   -1.775464   -0.460467
     67          1           0        9.256947   -0.851298    2.322840
     68          1           0       10.622994   -1.830304    2.978164
     69          1           0        9.239233   -2.465957    1.530901
     70          1           0       -9.127275    1.449842   -1.651696
     71          1           0       -9.286897    2.778910   -0.853399
     72          1           0      -10.570953    2.741287   -2.202766
     73          1           0        8.212959   -0.431525    0.144120
     74          1           0       -8.172484    1.037476   -0.251855
     75          1           0        8.386435    2.963347    1.297580
     76          1           0        6.741527    3.448328    0.537286
     77          1           0        8.367696    3.281609   -0.326557
     78          1           0       -8.831697   -2.746661   -1.586714
     79          1           0       -8.066731   -3.123854    0.364067
     80          1           0       -7.106422   -3.165573   -1.088758
     81          1           0        6.012694   -0.230445    0.150173
     82          1           0       -6.025958    0.298830   -0.298093
     83          1           0        4.802992    2.734266    0.414491
     84          1           0       -4.801151   -2.764129   -0.404193
     85          1           0        3.870181   -0.325407    0.167281
     86          1           0       -3.700323    0.288738   -0.447691
     87          1           0        2.578410    2.870733    1.530696
     88          1           0        1.151582    3.098648    0.380811
     89          1           0        2.862018    3.703872   -0.056495
     90          1           0       -3.153634   -3.701032   -1.386652
     91          1           0       -2.851669   -3.804664    0.435805
     92          1           0       -1.430957   -3.587357   -0.557095
     93          1           0        0.228064    1.333975   -0.059817
     94          1           0       -1.408540    0.282215   -0.595632
     95          1           0        2.073290   -1.460322    0.026977
     96          1           0        0.193744   -2.457622   -0.486596
 ---------------------------------------------------------------------

 SCF Done:  E(RB3LYP) =  -1557.51686855     A.U. after   14 cycles

 Excitation energies and oscillator strengths:

 Excited State   1:      Singlet-A      2.4092 eV  514.63 nm  f=2.4801  <S**2>=0.000
     148 ->149         0.70318
 This state for optimization and/or second-order correction.
 Total Energy, E(TD-HF/TD-DFT) =  -1557.42833281
 Copying the excited state density for this state as the 1-particle RhoCI density.

 The electronic state is 1-A.
 Alpha  occ. eigenvalues --  -10.21455 -10.21277 -10.21013 -10.20856 -10.20650
 Alpha  occ. eigenvalues --  -10.20594 -10.20290 -10.20188 -10.20113 -10.20027
 Alpha  occ. eigenvalues --  -10.19863 -10.19798 -10.19726 -10.19652 -10.19397
 Alpha  occ. eigenvalues --  -10.19377 -10.19372 -10.19297 -10.19266 -10.19136
 Alpha  occ. eigenvalues --  -10.19056 -10.18890 -10.18622 -10.18602 -10.18407
 Alpha  occ. eigenvalues --  -10.18332 -10.18216 -10.18072 -10.17894 -10.17884
 Alpha  occ. eigenvalues --  -10.17874 -10.17667 -10.17624 -10.17510 -10.17168
 Alpha  occ. eigenvalues --  -10.17079 -10.16566 -10.16534 -10.16450 -10.16042
 Alpha  occ. eigenvalues --   -0.85813  -0.84064  -0.83237  -0.82634  -0.81944
 Alpha  occ. eigenvalues --   -0.80993  -0.78984  -0.78281  -0.77591  -0.77489
 Alpha  occ. eigenvalues --   -0.76333  -0.74972  -0.73911  -0.72252  -0.70632
 Alpha  occ. eigenvalues --   -0.69135  -0.68855  -0.68640  -0.67939  -0.67679
 Alpha  occ. eigenvalues --   -0.67333  -0.67274  -0.66826  -0.66436  -0.65782
 Alpha  occ. eigenvalues --   -0.62322  -0.60823  -0.60145  -0.57962  -0.56846
 Alpha  occ. eigenvalues --   -0.56148  -0.55673  -0.55178  -0.53321  -0.52787
 Alpha  occ. eigenvalues --   -0.52076  -0.51162  -0.49880  -0.49638  -0.49326
 Alpha  occ. eigenvalues --   -0.48131  -0.47753  -0.47083  -0.46716  -0.46011
 Alpha  occ. eigenvalues --   -0.45187  -0.44969  -0.44669  -0.44394  -0.43930
 Alpha  occ. eigenvalues --   -0.43613  -0.42635  -0.42366  -0.42339  -0.42021
 Alpha  occ. eigenvalues --   -0.41887  -0.41653  -0.41535  -0.40907  -0.40861
 Alpha  occ. eigenvalues --   -0.40302  -0.40062  -0.39702  -0.39490  -0.39227
 Alpha  occ. eigenvalues --   -0.38958  -0.38782  -0.38609  -0.38553  -0.37811
 Alpha  occ. eigenvalues --   -0.37706  -0.37419  -0.37062  -0.36910  -0.36372
 Alpha  occ. eigenvalues --   -0.36308  -0.36059  -0.35873  -0.35603  -0.35423
 Alpha  occ. eigenvalues --   -0.35298  -0.35110  -0.34438  -0.34199  -0.33661
 Alpha  occ. eigenvalues --   -0.33354  -0.32728  -0.32664  -0.32554  -0.32364
 Alpha  occ. eigenvalues --   -0.31674  -0.31583  -0.31172  -0.31005  -0.30651
 Alpha  occ. eigenvalues --   -0.30332  -0.29750  -0.29319  -0.29164  -0.28512
 Alpha  occ. eigenvalues --   -0.28227  -0.27210  -0.25722  -0.24081  -0.22237
 Alpha  occ. eigenvalues --   -0.21067  -0.19062  -0.16744
 Alpha virt. eigenvalues --   -0.07318  -0.04720  -0.01350   0.00420   0.02788
 Alpha virt. eigenvalues --    0.03783   0.05176   0.05300   0.05694   0.06342
 Alpha virt. eigenvalues --    0.06799   0.07372   0.07912   0.07972   0.07986

 Mulliken charges:
               1
     1  C    0.000746
     2  C   -0.049891
     3  C   -0.163610
     4  C   -0.155360
     5  C   -0.201679
     6  C   -0.203245
     7  C    0.069253
     8  C    0.104322
     9  C   -0.218300
    10  C   -0.204457
    11  C    0.050189
    12  C    0.037735
    13  C   -0.294225
    14  C   -0.306312
    15  C   -0.283721
    16  C   -0.288076
    17  C   -0.130847
    18  C   -0.144431
    19  C   -0.339843
    20  C   -0.361584
    21  C   -0.067095
    22  C   -0.115215
    23  C    0.109007
    24  C    0.158800
    25  C   -0.361818
    26  C   -0.345871
    27  C   -0.146913
    28  C   -0.142983
    29  C   -0.081524
    30  C   -0.086523
    31  C   -0.091713
    32  C   -0.090335
    33  C    0.101459
    34  C    0.123086
    35  C   -0.365575
    36  C   -0.389586
    37  C   -0.130575
    38  C   -0.123402
    39  C   -0.086598
    40  C   -0.084493
    41  H    0.085144
    42  H    0.086329
    43  H    0.087853
    44  H    0.087189
    45  H    0.093096
    46  H    0.098433
    47  H    0.083640
    48  H    0.058560
    49  H    0.119550
    50  H    0.086770
    51  H    0.119924
    52  H    0.112440
    53  H    0.094813
    54  H    0.092599
    55  H    0.120895
    56  H    0.093274
    57  H    0.096786
    58  H    0.092947
    59  H    0.102414
    60  H    0.106485
    61  H    0.086494
    62  H    0.107857
    63  H    0.083178
    64  H    0.086198
    65  H    0.069538
    66  H    0.098411
    67  H    0.129695
    68  H    0.085433
    69  H    0.085586
    70  H    0.119712
    71  H    0.115330
    72  H    0.086122
    73  H    0.067397
    74  H    0.067114
    75  H    0.136954
    76  H    0.097279
    77  H    0.107874
    78  H    0.106834
    79  H    0.053603
    80  H    0.120427
    81  H    0.072081
    82  H    0.079311
    83  H    0.095628
    84  H    0.089268
    85  H    0.074913
    86  H    0.077159
    87  H    0.124750
    88  H    0.110317
    89  H    0.088508
    90  H    0.110914
    91  H    0.139752
    92  H    0.088223
    93  H    0.075080
    94  H    0.088267
    95  H    0.081503
    96  H    0.075349
 Sum of Mulliken charges =  -0.00000

 Dipole moment (field-independent basis, Debye):
    X=              1.7975    Y=             -0.0117    Z=              0.0117  Tot=              1.7976
 Quadrupole moment (field-independent basis, Debye-Ang):
   XX=           -231.1551   YY=           -233.5641   ZZ=           -257.2916
   XY=             -1.1880   XZ=             -2.5921   YZ=              2.1782

 Normal termination of Gaussian 16 at Tue Jul 30 11:46:26 2019.
