 Gaussian 16, Revision A.03,
 Gaussian 16:  ES64L-G16RevA.03 25-Dec-2016

 ---------------------------------
 # td=(NStates=1) B3LYP/6-31G(d,p)
 ---------------------------------

 --
 TD
 --
 Symbolic Z-matrix:
 Charge =  0 Multiplicity = 1

                         Standard orientation:
 ---------------------------------------------------------------------
 Center     Atomic      Atomic             Coordinates (Angstroms)
 Number     Number       Type             X           Y           Z
 ---------------------------------------------------------------------
      1          6           0       12.171125    0.425055   -0.611661
      2          6           0      -12.153448   -0.114532    0.909930
      3          6           0       13.396981   -0.475028   -0.582735
      4          6           0      -13.075170    1.064576    1.357976
      5          6           0       13.007727   -1.978409   -0.688085
      6          6           0      -13.491911    1.925204    0.212580
      7          6           0       11.070735    0.041711    0.332544
      8          6           0      -11.079936    0.387268   -0.051759
      9          6           0       12.178839   -2.348412    0.555063
     10          6           0      -12.255345    2.458812   -0.564015
     11          6           0       11.170404   -1.234348    0.980242
     12          6           0      -11.179421    1.509225   -0.811534
     13          6           0       11.718937    0.421427   -2.098279
     14          6           0       12.651116    1.836967   -0.279587
     15          6           0      -12.992171   -1.335809    0.277861
     16          6           0      -11.491679   -0.619583    2.212616
     17          6           0        9.953705    0.943882    0.354350
     18          6           0       -9.898412   -0.552860   -0.217786
     19          6           0       10.059472   -1.727553    1.986398
     20          6           0      -10.095533    1.945663   -1.765228
     21          6           0        8.585348    0.480944    0.376340
     22          6           0       -8.589521   -0.327356   -0.218122
     23          6           0        7.456255    1.307170    0.493370
     24          6           0       -7.550836   -1.363876   -0.422021
     25          6           0        7.623126    2.831235    0.588656
     26          6           0       -7.870396   -2.725708   -0.705683
     27          6           0        6.242949    0.852668    0.304881
     28          6           0       -6.214061   -0.827189   -0.486460
     29          6           0        5.018872    1.498406    0.364535
     30          6           0       -5.011004   -1.600420   -0.516158
     31          6           0        3.739725    0.838853    0.210401
     32          6           0       -3.804182   -0.939829   -0.529504
     33          6           0        2.440087    1.475018    0.281842
     34          6           0       -2.511121   -1.749848   -0.498608
     35          6           0        2.341270    3.108228    0.369558
     36          6           0       -2.524105   -3.232274   -0.575312
     37          6           0        1.297155    0.790101    0.041947
     38          6           0       -1.317436   -0.987342   -0.386947
     39          6           0        1.149365   -0.617806   -0.041089
     40          6           0       -0.008718   -1.458614   -0.216564
     41          1           0       14.061386   -0.504143    0.495355
     42          1           0       14.112075   -0.199193   -1.389028
     43          1           0      -12.649055    1.671147    2.278245
     44          1           0      -14.026067    0.754901    1.902158
     45          1           0       13.872751   -2.708268   -0.851183
     46          1           0       12.493494   -2.088033   -1.592365
     47          1           0      -14.336204    2.572464    0.462458
     48          1           0      -14.013123    1.256002   -0.469422
     49          1           0       12.850402   -2.450930    1.379145
     50          1           0       11.550624   -3.350349    0.534573
     51          1           0      -11.716908    3.448319   -0.193928
     52          1           0      -12.521841    2.859869   -1.415642
     53          1           0       11.475775   -0.755331   -2.313189
     54          1           0       12.432417    0.719123   -2.695985
     55          1           0       10.864008    0.967523   -2.210516
     56          1           0       12.537450    1.982907    0.737277
     57          1           0       11.995383    2.571271   -0.681798
     58          1           0       13.614302    2.334035   -0.530033
     59          1           0      -13.672330   -0.790768   -0.478164
     60          1           0      -13.557486   -1.748681    0.898098
     61          1           0      -12.234836   -2.171059   -0.196351
     62          1           0      -10.606128   -0.063079    2.358836
     63          1           0      -11.049012   -1.639560    2.170606
     64          1           0      -12.244179   -0.671555    2.890144
     65          1           0       10.191872    1.935955    0.283008
     66          1           0      -10.158646   -1.738178   -0.275580
     67          1           0        9.684279   -0.824300    2.491156
     68          1           0       10.624520   -2.334545    2.702475
     69          1           0        9.551373   -2.621671    1.607144
     70          1           0       -9.170249    1.292234   -2.071422
     71          1           0       -9.739155    3.056365   -1.266265
     72          1           0      -10.544042    2.363139   -2.738347
     73          1           0        8.581789   -0.559787    0.438209
     74          1           0       -8.211512    0.734317   -0.127561
     75          1           0        8.047935    2.880429    1.536892
     76          1           0        6.639501    3.495907    0.509592
     77          1           0        8.260972    3.324835   -0.003235
     78          1           0       -8.787594   -2.998234   -1.371996
     79          1           0       -8.312272   -3.178041    0.304413
     80          1           0       -6.909174   -3.288343   -1.002507
     81          1           0        6.451583   -0.281134    0.402775
     82          1           0       -6.055626    0.318380   -0.292083
     83          1           0        4.765218    2.593126    0.472084
     84          1           0       -4.948142   -2.695116   -0.381965
     85          1           0        3.801132   -0.136800    0.003819
     86          1           0       -3.846085    0.042368   -0.476811
     87          1           0        2.731466    3.187150    1.298877
     88          1           0        1.324960    3.493315    0.442248
     89          1           0        2.753736    3.775078   -0.597886
     90          1           0       -3.075137   -3.473434   -1.567303
     91          1           0       -3.044167   -3.892652    0.249402
     92          1           0       -1.508389   -3.565462   -0.746092
     93          1           0        0.386708    1.440866    0.009170
     94          1           0       -1.705964    0.011384   -0.373633
     95          1           0        1.851343   -1.382710    0.148508
     96          1           0        0.182146   -2.524742   -0.360095
 ---------------------------------------------------------------------

 SCF Done:  E(RB3LYP) =  -1557.53922887     A.U. after   16 cycles

 Excitation energies and oscillator strengths:

 Excited State   1:      Singlet-A      1.9496 eV  635.93 nm  f=3.1314  <S**2>=0.000
     148 ->149         0.71091
     148 <-149        -0.12749
 This state for optimization and/or second-order correction.
 Total Energy, E(TD-HF/TD-DFT) =  -1557.46758077
 Copying the excited state density for this state as the 1-particle RhoCI density.

 The electronic state is 1-A.
 Alpha  occ. eigenvalues --  -10.20632 -10.20463 -10.20451 -10.20417 -10.20375
 Alpha  occ. eigenvalues --  -10.20188 -10.20080 -10.19929 -10.19600 -10.19577
 Alpha  occ. eigenvalues --  -10.19517 -10.19482 -10.19434 -10.19398 -10.19166
 Alpha  occ. eigenvalues --  -10.19126 -10.19070 -10.19061 -10.18916 -10.18903
 Alpha  occ. eigenvalues --  -10.18813 -10.18760 -10.18642 -10.18548 -10.18546
 Alpha  occ. eigenvalues --  -10.18405 -10.18399 -10.18380 -10.18314 -10.18309
 Alpha  occ. eigenvalues --  -10.18302 -10.18198 -10.18180 -10.17904 -10.17850
 Alpha  occ. eigenvalues --  -10.17706 -10.16868 -10.15978 -10.15870 -10.15388
 Alpha  occ. eigenvalues --   -0.84972  -0.84880  -0.83555  -0.82794  -0.81953
 Alpha  occ. eigenvalues --   -0.81014  -0.78600  -0.78206  -0.77850  -0.77359
 Alpha  occ. eigenvalues --   -0.76464  -0.75108  -0.73787  -0.72185  -0.71664
 Alpha  occ. eigenvalues --   -0.69898  -0.69308  -0.68912  -0.68292  -0.68009
 Alpha  occ. eigenvalues --   -0.67828  -0.67578  -0.66908  -0.66480  -0.65980
 Alpha  occ. eigenvalues --   -0.63269  -0.61553  -0.59937  -0.59247  -0.57493
 Alpha  occ. eigenvalues --   -0.56925  -0.56239  -0.55263  -0.54468  -0.53279
 Alpha  occ. eigenvalues --   -0.52431  -0.51488  -0.50562  -0.49245  -0.48868
 Alpha  occ. eigenvalues --   -0.47770  -0.47572  -0.46994  -0.46586  -0.46544
 Alpha  occ. eigenvalues --   -0.45813  -0.45483  -0.45046  -0.44186  -0.43894
 Alpha  occ. eigenvalues --   -0.43655  -0.43227  -0.42928  -0.42658  -0.42236
 Alpha  occ. eigenvalues --   -0.42079  -0.41876  -0.41265  -0.40914  -0.40792
 Alpha  occ. eigenvalues --   -0.40495  -0.40390  -0.39950  -0.39633  -0.39504
 Alpha  occ. eigenvalues --   -0.39255  -0.39104  -0.38495  -0.38352  -0.37673
 Alpha  occ. eigenvalues --   -0.37638  -0.37271  -0.37002  -0.36619  -0.36325
 Alpha  occ. eigenvalues --   -0.36143  -0.35832  -0.35529  -0.35467  -0.35385
 Alpha  occ. eigenvalues --   -0.35055  -0.34738  -0.34448  -0.34178  -0.34089
 Alpha  occ. eigenvalues --   -0.33529  -0.33434  -0.33369  -0.32790  -0.32380
 Alpha  occ. eigenvalues --   -0.32055  -0.31815  -0.31157  -0.30919  -0.30516
 Alpha  occ. eigenvalues --   -0.30306  -0.29729  -0.29662  -0.29440  -0.29060
 Alpha  occ. eigenvalues --   -0.28823  -0.27803  -0.26500  -0.23629  -0.22368
 Alpha  occ. eigenvalues --   -0.20651  -0.18331  -0.15718
 Alpha virt. eigenvalues --   -0.08697  -0.05422  -0.02290   0.00492   0.01747
 Alpha virt. eigenvalues --    0.04416   0.05944   0.06670   0.07115   0.07728
 Alpha virt. eigenvalues --    0.07940   0.08173   0.08477   0.09049   0.09259

 Mulliken charges:
               1
     1  C   -0.002340
     2  C   -0.001675
     3  C   -0.156159
     4  C   -0.176551
     5  C   -0.190863
     6  C   -0.202509
     7  C    0.071342
     8  C    0.050476
     9  C   -0.210590
    10  C   -0.199681
    11  C    0.027051
    12  C    0.101918
    13  C   -0.277806
    14  C   -0.329403
    15  C   -0.278804
    16  C   -0.301182
    17  C   -0.130019
    18  C   -0.143932
    19  C   -0.377383
    20  C   -0.356887
    21  C   -0.116976
    22  C   -0.081276
    23  C    0.125484
    24  C    0.143098
    25  C   -0.367688
    26  C   -0.386266
    27  C   -0.109954
    28  C   -0.148982
    29  C   -0.105596
    30  C   -0.067790
    31  C   -0.084167
    32  C   -0.099524
    33  C    0.066146
    34  C    0.085728
    35  C   -0.361357
    36  C   -0.381442
    37  C   -0.117403
    38  C   -0.065394
    39  C   -0.061241
    40  C   -0.156572
    41  H    0.049424
    42  H    0.088486
    43  H    0.082160
    44  H    0.075195
    45  H    0.077162
    46  H    0.106472
    47  H    0.093334
    48  H    0.104960
    49  H    0.119600
    50  H    0.082804
    51  H    0.080805
    52  H    0.108051
    53  H    0.070563
    54  H    0.110939
    55  H    0.109988
    56  H    0.114040
    57  H    0.096128
    58  H    0.095597
    59  H    0.085370
    60  H    0.115647
    61  H    0.080489
    62  H    0.114682
    63  H    0.082261
    64  H    0.104093
    65  H    0.078014
    66  H    0.052891
    67  H    0.135185
    68  H    0.099061
    69  H    0.120386
    70  H    0.129118
    71  H    0.069354
    72  H    0.099063
    73  H    0.095670
    74  H    0.081114
    75  H    0.125971
    76  H    0.091054
    77  H    0.124599
    78  H    0.121890
    79  H    0.105605
    80  H    0.109430
    81  H    0.067896
    82  H    0.077506
    83  H    0.090406
    84  H    0.086709
    85  H    0.075897
    86  H    0.070103
    87  H    0.142150
    88  H    0.108494
    89  H    0.100387
    90  H    0.113383
    91  H    0.113166
    92  H    0.114556
    93  H    0.083813
    94  H    0.074014
    95  H    0.082661
    96  H    0.088381
 Sum of Mulliken charges =  -0.00000

 Dipole moment (field-independent basis, Debye):
    X=             -0.6473    Y=             -0.1269    Z=              0.1296  Tot=              0.6723
 Quadrupole moment (field-independent basis, Debye-Ang):
   XX=           -216.9536   YY=           -230.6677   ZZ=           -256.2383
   XY=             -3.8220   XZ=             -0.7751   YZ=             -1.7290

 Normal termination of Gaussian 16 at Tue Jul 23 09:04:32 2019.
