 Gaussian 16, Revision A.03,
 Gaussian 16:  ES64L-G16RevA.03 25-Dec-2016

 ---------------------------------
 # td=(NStates=1) B3LYP/6-31G(d,p)
 ---------------------------------

 --
 TD
 --
 Symbolic Z-matrix:
 Charge =  0 Multiplicity = 1

                         Standard orientation:
 ---------------------------------------------------------------------
 Center     Atomic      Atomic             Coordinates (Angstroms)
 Number     Number       Type             X           Y           Z
 ---------------------------------------------------------------------
      1          6           0       12.222464    0.596823   -0.696444
      2          6           0      -12.154534   -0.030089    0.752523
      3          6           0       13.466262   -0.295814   -0.626103
      4          6           0      -13.041186    1.160012    1.248167
      5          6           0       13.255203   -1.787259   -0.540498
      6          6           0      -13.505497    2.074621    0.087636
      7          6           0       11.150181    0.000803    0.184209
      8          6           0      -11.056170    0.489246   -0.091047
      9          6           0       12.341263   -2.147890    0.539858
     10          6           0      -12.288453    2.726565   -0.731760
     11          6           0       11.149574   -1.135164    0.799489
     12          6           0      -11.070237    1.602760   -0.801943
     13          6           0       11.810178    0.580164   -2.170061
     14          6           0       12.645228    2.150779   -0.349168
     15          6           0      -13.043658   -1.152574    0.047100
     16          6           0      -11.535173   -0.607498    2.046205
     17          6           0        9.902156    0.826904    0.233505
     18          6           0       -9.917306   -0.539556   -0.292707
     19          6           0       10.330922   -1.843731    1.901685
     20          6           0      -10.035716    2.065311   -1.709404
     21          6           0        8.538907    0.528348    0.173473
     22          6           0       -8.531122   -0.306170   -0.153666
     23          6           0        7.327301    1.479481    0.389025
     24          6           0       -7.492314   -1.329291   -0.368286
     25          6           0        7.509897    2.912024    0.568833
     26          6           0       -8.003555   -2.669863   -0.580702
     27          6           0        6.154181    0.716216    0.288554
     28          6           0       -6.282279   -0.956027   -0.213914
     29          6           0        4.885659    1.310111    0.372263
     30          6           0       -5.029426   -1.727202   -0.374951
     31          6           0        3.719366    0.567406    0.241909
     32          6           0       -3.810386   -1.237651   -0.198912
     33          6           0        2.417576    1.170322    0.446687
     34          6           0       -2.518283   -1.813360   -0.302607
     35          6           0        2.244045    2.653219    1.044190
     36          6           0       -2.565130   -3.390005   -0.543817
     37          6           0        1.233519    0.454946    0.220789
     38          6           0       -1.380763   -1.046848   -0.235369
     39          6           0        1.086787   -0.854591   -0.162307
     40          6           0       -0.085836   -1.508754   -0.437104
     41          1           0       14.118176   -0.212081    0.328218
     42          1           0       14.227510   -0.052145   -1.284465
     43          1           0      -12.470888    1.897706    1.968711
     44          1           0      -14.007042    0.647259    1.778093
     45          1           0       14.204806   -2.137214   -0.336849
     46          1           0       13.042158   -2.246297   -1.458844
     47          1           0      -14.073788    2.927082    0.349212
     48          1           0      -14.066453    1.307264   -0.416559
     49          1           0       12.829627   -2.298527    1.443018
     50          1           0       11.705675   -3.093661    0.413690
     51          1           0      -11.914355    3.560774   -0.048112
     52          1           0      -12.516768    3.023838   -1.651026
     53          1           0       11.728157   -0.483074   -2.551121
     54          1           0       12.413817    1.038003   -2.990857
     55          1           0       10.883223    1.183776   -2.290303
     56          1           0       12.904831    2.394091    0.733404
     57          1           0       12.006995    2.835316   -0.342430
     58          1           0       13.401432    2.361080   -0.898901
     59          1           0      -13.646721   -0.455625   -0.908503
     60          1           0      -13.810727   -1.512452    0.648328
     61          1           0      -12.581941   -1.949198   -0.147623
     62          1           0      -10.754954   -0.009610    2.355695
     63          1           0      -10.822388   -1.474634    1.829663
     64          1           0      -12.316623   -1.055872    2.586711
     65          1           0       10.032777    1.774776    0.566951
     66          1           0      -10.204310   -1.521911   -0.559131
     67          1           0        9.534181   -1.163496    2.080430
     68          1           0       10.820392   -2.321447    2.769327
     69          1           0        9.643955   -2.553768    1.181451
     70          1           0       -9.247798    1.292574   -1.937716
     71          1           0       -9.607519    3.097437   -1.516059
     72          1           0      -10.390646    2.252219   -2.777833
     73          1           0        8.034678   -0.472070   -0.231716
     74          1           0       -8.108580    0.603723    0.448664
     75          1           0        7.921392    3.117365    1.746917
     76          1           0        6.531763    3.617261    0.490269
     77          1           0        8.499471    3.184994   -0.152851
     78          1           0       -8.379875   -2.817579   -1.690764
     79          1           0       -8.805617   -2.998280    0.089556
     80          1           0       -7.274932   -3.506337   -0.517625
     81          1           0        6.262333   -0.263295   -0.027270
     82          1           0       -6.179210    0.201421   -0.038966
     83          1           0        5.012810    2.486888    0.508706
     84          1           0       -5.154848   -2.882443   -0.636031
     85          1           0        3.853341   -0.439628    0.068224
     86          1           0       -3.911073   -0.146829   -0.016402
     87          1           0        2.834917    2.856368    1.867227
     88          1           0        1.240129    3.047579    1.221700
     89          1           0        2.734108    3.220459    0.201345
     90          1           0       -2.749097   -3.605392   -1.527214
     91          1           0       -3.302849   -3.775655    0.045502
     92          1           0       -1.480240   -3.783138   -0.287085
     93          1           0        0.463771    1.196013    0.522693
     94          1           0       -1.564534    0.064914   -0.312212
     95          1           0        1.998045   -1.482919   -0.313771
     96          1           0        0.197443   -2.595944   -0.407452
 ---------------------------------------------------------------------

 SCF Done:  E(RB3LYP) =  -1557.49848579     A.U. after   16 cycles

 Excitation energies and oscillator strengths:

 Excited State   1:      Singlet-A      2.2379 eV  554.03 nm  f=3.1131  <S**2>=0.000
     148 ->149         0.70769
     148 <-149        -0.11721
 This state for optimization and/or second-order correction.
 Total Energy, E(TD-HF/TD-DFT) =  -1557.41624611
 Copying the excited state density for this state as the 1-particle RhoCI density.

 The electronic state is 1-A.
 Alpha  occ. eigenvalues --  -10.23069 -10.21121 -10.20799 -10.20729 -10.20552
 Alpha  occ. eigenvalues --  -10.19951 -10.19824 -10.19761 -10.19434 -10.19368
 Alpha  occ. eigenvalues --  -10.19324 -10.19147 -10.18905 -10.18900 -10.18810
 Alpha  occ. eigenvalues --  -10.18754 -10.18744 -10.18730 -10.18685 -10.18673
 Alpha  occ. eigenvalues --  -10.18585 -10.18580 -10.18385 -10.18352 -10.18331
 Alpha  occ. eigenvalues --  -10.18139 -10.18108 -10.18056 -10.18034 -10.18003
 Alpha  occ. eigenvalues --  -10.17847 -10.17670 -10.17416 -10.17411 -10.17198
 Alpha  occ. eigenvalues --  -10.16928 -10.16902 -10.16043 -10.15771 -10.15402
 Alpha  occ. eigenvalues --   -0.85053  -0.84412  -0.83578  -0.83198  -0.82390
 Alpha  occ. eigenvalues --   -0.81056  -0.78728  -0.78068  -0.77770  -0.77635
 Alpha  occ. eigenvalues --   -0.76091  -0.75263  -0.73868  -0.72121  -0.71313
 Alpha  occ. eigenvalues --   -0.70190  -0.69957  -0.69064  -0.68942  -0.68597
 Alpha  occ. eigenvalues --   -0.67978  -0.67661  -0.66867  -0.66759  -0.66150
 Alpha  occ. eigenvalues --   -0.62795  -0.61667  -0.59670  -0.59138  -0.57810
 Alpha  occ. eigenvalues --   -0.57542  -0.55779  -0.54813  -0.53955  -0.52678
 Alpha  occ. eigenvalues --   -0.51655  -0.51464  -0.49972  -0.49322  -0.48945
 Alpha  occ. eigenvalues --   -0.48469  -0.47672  -0.47074  -0.46967  -0.46508
 Alpha  occ. eigenvalues --   -0.45865  -0.45587  -0.45116  -0.44292  -0.44021
 Alpha  occ. eigenvalues --   -0.43513  -0.43460  -0.43018  -0.42447  -0.42174
 Alpha  occ. eigenvalues --   -0.41857  -0.41820  -0.41443  -0.41187  -0.41155
 Alpha  occ. eigenvalues --   -0.40575  -0.40345  -0.40184  -0.39907  -0.39593
 Alpha  occ. eigenvalues --   -0.39433  -0.39210  -0.38644  -0.38512  -0.38242
 Alpha  occ. eigenvalues --   -0.37402  -0.37075  -0.36919  -0.36785  -0.36568
 Alpha  occ. eigenvalues --   -0.36271  -0.35918  -0.35759  -0.35420  -0.35141
 Alpha  occ. eigenvalues --   -0.35031  -0.34342  -0.34114  -0.34030  -0.33548
 Alpha  occ. eigenvalues --   -0.33252  -0.33198  -0.33006  -0.32381  -0.32263
 Alpha  occ. eigenvalues --   -0.32166  -0.31989  -0.31883  -0.31497  -0.31152
 Alpha  occ. eigenvalues --   -0.30867  -0.28960  -0.28796  -0.28640  -0.27671
 Alpha  occ. eigenvalues --   -0.27330  -0.26924  -0.25910  -0.24269  -0.23092
 Alpha  occ. eigenvalues --   -0.21382  -0.19513  -0.16305
 Alpha virt. eigenvalues --   -0.08166  -0.04446  -0.01262   0.01146   0.02833
 Alpha virt. eigenvalues --    0.04037   0.05363   0.05880   0.06225   0.06659
 Alpha virt. eigenvalues --    0.07396   0.07671   0.07908   0.08550   0.09005

 Mulliken charges:
               1
     1  C   -0.002815
     2  C   -0.020379
     3  C   -0.175368
     4  C   -0.162095
     5  C   -0.197832
     6  C   -0.186258
     7  C    0.086307
     8  C    0.085211
     9  C   -0.204048
    10  C   -0.214485
    11  C    0.039949
    12  C    0.074993
    13  C   -0.297206
    14  C   -0.300612
    15  C   -0.277269
    16  C   -0.291152
    17  C   -0.161575
    18  C   -0.169628
    19  C   -0.350279
    20  C   -0.374617
    21  C   -0.099971
    22  C   -0.118381
    23  C    0.138945
    24  C    0.210903
    25  C   -0.367134
    26  C   -0.394478
    27  C   -0.104748
    28  C   -0.161249
    29  C   -0.068929
    30  C   -0.092158
    31  C   -0.112693
    32  C   -0.090678
    33  C    0.058771
    34  C    0.099364
    35  C   -0.369601
    36  C   -0.363234
    37  C   -0.086709
    38  C   -0.116062
    39  C   -0.103112
    40  C   -0.086954
    41  H    0.067696
    42  H    0.089753
    43  H    0.076183
    44  H    0.063169
    45  H    0.096839
    46  H    0.095722
    47  H    0.092575
    48  H    0.094460
    49  H    0.103568
    50  H    0.086662
    51  H    0.099113
    52  H    0.113412
    53  H    0.096277
    54  H    0.093338
    55  H    0.100063
    56  H    0.078112
    57  H    0.107291
    58  H    0.112390
    59  H    0.060871
    60  H    0.106437
    61  H    0.110227
    62  H    0.117628
    63  H    0.075566
    64  H    0.100378
    65  H    0.079887
    66  H    0.095398
    67  H    0.123674
    68  H    0.126037
    69  H    0.097098
    70  H    0.115034
    71  H    0.103430
    72  H    0.091926
    73  H    0.066689
    74  H    0.081120
    75  H    0.101079
    76  H    0.109378
    77  H    0.110408
    78  H    0.105868
    79  H    0.123903
    80  H    0.103910
    81  H    0.077595
    82  H    0.066836
    83  H    0.063851
    84  H    0.062286
    85  H    0.087892
    86  H    0.065655
    87  H    0.132069
    88  H    0.113372
    89  H    0.116445
    90  H    0.137241
    91  H    0.125696
    92  H    0.091626
    93  H    0.070484
    94  H    0.088595
    95  H    0.081910
    96  H    0.073144
 Sum of Mulliken charges =  -0.00000

 Dipole moment (field-independent basis, Debye):
    X=              1.1734    Y=              0.1484    Z=              0.2358  Tot=              1.2061
 Quadrupole moment (field-independent basis, Debye-Ang):
   XX=           -223.2930   YY=           -231.4304   ZZ=           -254.7062
   XY=              5.7324   XZ=              2.8632   YZ=              1.8878

 Normal termination of Gaussian 16 at Thu Aug  1 16:40:34 2019.
