 Gaussian 16, Revision A.03,
 Gaussian 16:  ES64L-G16RevA.03 25-Dec-2016

 ---------------------------------
 # td=(NStates=1) B3LYP/6-31G(d,p)
 ---------------------------------

 --
 TD
 --
 Symbolic Z-matrix:
 Charge =  0 Multiplicity = 1

                         Standard orientation:
 ---------------------------------------------------------------------
 Center     Atomic      Atomic             Coordinates (Angstroms)
 Number     Number       Type             X           Y           Z
 ---------------------------------------------------------------------
      1          6           0       12.140746    0.471592   -0.700015
      2          6           0      -12.035964   -0.063316    0.928359
      3          6           0       13.328769   -0.504710   -0.745142
      4          6           0      -13.002037    1.167831    1.349404
      5          6           0       12.865341   -1.987206   -0.590236
      6          6           0      -13.462978    1.957262    0.032360
      7          6           0       10.966950    0.109363    0.365515
      8          6           0      -10.931109    0.509553   -0.075399
      9          6           0       12.190416   -2.162989    0.666678
     10          6           0      -12.235166    2.585881   -0.551804
     11          6           0       11.047462   -1.167600    0.814064
     12          6           0      -11.064696    1.553414   -0.729488
     13          6           0       11.495744    0.460683   -2.089710
     14          6           0       12.579980    1.874450   -0.236214
     15          6           0      -12.722909   -1.156382    0.197144
     16          6           0      -11.497738   -0.647517    2.265924
     17          6           0        9.785614    0.814321    0.453857
     18          6           0       -9.787299   -0.557600   -0.318630
     19          6           0       10.098744   -1.700719    1.979494
     20          6           0      -10.070938    1.992074   -1.793617
     21          6           0        8.531796    0.549846    0.329220
     22          6           0       -8.450356   -0.342913   -0.334543
     23          6           0        7.367919    1.479427    0.444190
     24          6           0       -7.498195   -1.360580   -0.420088
     25          6           0        7.609254    2.954330    0.698507
     26          6           0       -7.995167   -2.788158   -0.745794
     27          6           0        6.150002    0.849329    0.260614
     28          6           0       -6.200537   -0.973022   -0.188176
     29          6           0        4.879272    1.523645    0.251287
     30          6           0       -4.972477   -1.778926   -0.369044
     31          6           0        3.759707    0.872925    0.247077
     32          6           0       -3.744178   -1.112120   -0.277952
     33          6           0        2.419554    1.447368    0.181945
     34          6           0       -2.464627   -1.753451   -0.327985
     35          6           0        2.202640    2.950489    0.267611
     36          6           0       -2.415667   -3.321034   -0.546634
     37          6           0        1.363129    0.604062    0.114480
     38          6           0       -1.300544   -1.098646   -0.304100
     39          6           0        1.185630   -0.795861   -0.131712
     40          6           0        0.056862   -1.552466   -0.329972
     41          1           0       13.998480   -0.228237    0.072687
     42          1           0       13.839854   -0.305265   -1.665231
     43          1           0      -12.400947    1.804087    2.042659
     44          1           0      -13.772941    0.729381    1.952522
     45          1           0       13.699336   -2.597612   -0.786763
     46          1           0       12.222131   -2.091717   -1.444393
     47          1           0      -14.013911    2.833551    0.227478
     48          1           0      -13.880923    1.166230   -0.454550
     49          1           0       12.974160   -2.158053    1.612736
     50          1           0       11.661182   -3.071988    0.682673
     51          1           0      -12.152925    3.485070    0.133562
     52          1           0      -12.554000    2.947704   -1.401482
     53          1           0       11.132942   -0.654221   -2.324502
     54          1           0       12.384761    0.663082   -2.737577
     55          1           0       10.678578    0.980605   -2.165727
     56          1           0       12.917201    1.608434    0.855446
     57          1           0       11.794185    2.639817   -0.277292
     58          1           0       13.463784    2.052202   -0.666431
     59          1           0      -13.152565   -0.796273   -0.862720
     60          1           0      -13.508109   -1.376918    0.941021
     61          1           0      -12.134879   -1.902490    0.304744
     62          1           0      -11.056994    0.102019    2.844891
     63          1           0      -10.579116   -1.346679    2.085446
     64          1           0      -12.463458   -1.026354    2.741936
     65          1           0       10.095999    1.828941    0.451899
     66          1           0      -10.403565   -1.539656   -0.619705
     67          1           0        9.611273   -0.767762    2.353567
     68          1           0       10.824650   -2.056026    2.734562
     69          1           0        9.435475   -2.344602    1.549198
     70          1           0       -9.216557    1.159064   -2.183947
     71          1           0       -9.411674    2.884622   -1.628900
     72          1           0      -10.730712    2.342968   -2.788421
     73          1           0        8.196623   -0.349340    0.211737
     74          1           0       -8.169717    0.763254    0.005412
     75          1           0        8.022598    2.902026    1.523475
     76          1           0        6.902839    3.645085    0.902296
     77          1           0        8.341185    3.408535   -0.088637
     78          1           0       -8.280818   -3.024913   -1.674919
     79          1           0       -8.729261   -3.060337   -0.071159
     80          1           0       -7.051394   -3.559527   -0.673383
     81          1           0        6.034754   -0.177685    0.061695
     82          1           0       -5.956806   -0.004978    0.114884
     83          1           0        4.867040    2.666678    0.311473
     84          1           0       -5.044467   -2.843341   -0.884357
     85          1           0        4.093286   -0.389614    0.164967
     86          1           0       -3.654194   -0.191436    0.096651
     87          1           0        2.272754    3.250405    1.289653
     88          1           0        1.116845    3.160276   -0.012724
     89          1           0        2.731978    3.411747   -0.518549
     90          1           0       -3.226369   -3.453680   -1.398676
     91          1           0       -2.659608   -3.991554    0.427213
     92          1           0       -1.432439   -3.984276   -0.875492
     93          1           0        0.377407    1.350176    0.028771
     94          1           0       -1.530157    0.002744   -0.191363
     95          1           0        2.204643   -1.312163   -0.283705
     96          1           0        0.234864   -2.597793   -0.293489
 ---------------------------------------------------------------------

 SCF Done:  E(RB3LYP) =  -1557.47015064     A.U. after   15 cycles

 Excitation energies and oscillator strengths:

 Excited State   1:      Singlet-A      2.3616 eV  525.00 nm  f=2.9749  <S**2>=0.000
     148 ->149         0.70169
 This state for optimization and/or second-order correction.
 Total Energy, E(TD-HF/TD-DFT) =  -1557.38336282
 Copying the excited state density for this state as the 1-particle RhoCI density.

 The electronic state is 1-A.
 Alpha  occ. eigenvalues --  -10.20908 -10.20508 -10.20490 -10.20360 -10.20059
 Alpha  occ. eigenvalues --  -10.19905 -10.19857 -10.19765 -10.19700 -10.19586
 Alpha  occ. eigenvalues --  -10.19584 -10.19574 -10.19394 -10.19279 -10.18922
 Alpha  occ. eigenvalues --  -10.18774 -10.18705 -10.18612 -10.18487 -10.18345
 Alpha  occ. eigenvalues --  -10.18340 -10.18326 -10.18251 -10.18149 -10.17866
 Alpha  occ. eigenvalues --  -10.17796 -10.17596 -10.17539 -10.17397 -10.17307
 Alpha  occ. eigenvalues --  -10.17103 -10.16988 -10.16985 -10.16863 -10.16757
 Alpha  occ. eigenvalues --  -10.16693 -10.16684 -10.16650 -10.16613 -10.16577
 Alpha  occ. eigenvalues --   -0.85296  -0.84705  -0.83677  -0.83141  -0.82338
 Alpha  occ. eigenvalues --   -0.81820  -0.79358  -0.78998  -0.78499  -0.78094
 Alpha  occ. eigenvalues --   -0.76942  -0.76086  -0.74339  -0.73221  -0.71358
 Alpha  occ. eigenvalues --   -0.70369  -0.69976  -0.68849  -0.68749  -0.68211
 Alpha  occ. eigenvalues --   -0.67478  -0.67213  -0.67027  -0.66123  -0.65551
 Alpha  occ. eigenvalues --   -0.62883  -0.61969  -0.59693  -0.58753  -0.57666
 Alpha  occ. eigenvalues --   -0.56465  -0.55402  -0.54364  -0.53909  -0.53788
 Alpha  occ. eigenvalues --   -0.52794  -0.51667  -0.50846  -0.49730  -0.49441
 Alpha  occ. eigenvalues --   -0.48327  -0.48140  -0.47493  -0.46823  -0.46578
 Alpha  occ. eigenvalues --   -0.45921  -0.45182  -0.44995  -0.44815  -0.44628
 Alpha  occ. eigenvalues --   -0.44286  -0.43711  -0.43298  -0.43159  -0.42781
 Alpha  occ. eigenvalues --   -0.42665  -0.41948  -0.41882  -0.41383  -0.40929
 Alpha  occ. eigenvalues --   -0.40388  -0.40200  -0.40055  -0.39845  -0.39566
 Alpha  occ. eigenvalues --   -0.39150  -0.38790  -0.38553  -0.38062  -0.37593
 Alpha  occ. eigenvalues --   -0.37541  -0.37350  -0.37117  -0.36665  -0.36558
 Alpha  occ. eigenvalues --   -0.36461  -0.35735  -0.35667  -0.35355  -0.34936
 Alpha  occ. eigenvalues --   -0.34651  -0.34242  -0.33978  -0.33945  -0.33859
 Alpha  occ. eigenvalues --   -0.33559  -0.33516  -0.33112  -0.33045  -0.32506
 Alpha  occ. eigenvalues --   -0.32232  -0.31749  -0.31660  -0.31410  -0.30731
 Alpha  occ. eigenvalues --   -0.30335  -0.29844  -0.29516  -0.29350  -0.28897
 Alpha  occ. eigenvalues --   -0.27181  -0.26512  -0.26242  -0.24766  -0.23694
 Alpha  occ. eigenvalues --   -0.21633  -0.19169  -0.16862
 Alpha virt. eigenvalues --   -0.07825  -0.04605  -0.01555   0.01431   0.03388
 Alpha virt. eigenvalues --    0.05032   0.05394   0.06588   0.06931   0.07747
 Alpha virt. eigenvalues --    0.07900   0.08254   0.08338   0.08642   0.08941

 Mulliken charges:
               1
     1  C   -0.009269
     2  C   -0.045444
     3  C   -0.187724
     4  C   -0.184787
     5  C   -0.180161
     6  C   -0.184298
     7  C    0.083431
     8  C    0.055252
     9  C   -0.182115
    10  C   -0.200998
    11  C   -0.014609
    12  C    0.088439
    13  C   -0.268445
    14  C   -0.297862
    15  C   -0.262737
    16  C   -0.305278
    17  C   -0.130957
    18  C   -0.142999
    19  C   -0.359081
    20  C   -0.354226
    21  C   -0.035106
    22  C   -0.100511
    23  C    0.083119
    24  C    0.118627
    25  C   -0.352624
    26  C   -0.364632
    27  C   -0.144426
    28  C   -0.120556
    29  C   -0.049043
    30  C   -0.087881
    31  C   -0.089765
    32  C   -0.109717
    33  C    0.065611
    34  C    0.131629
    35  C   -0.366280
    36  C   -0.353498
    37  C   -0.088526
    38  C   -0.113771
    39  C   -0.092935
    40  C   -0.085800
    41  H    0.082529
    42  H    0.089784
    43  H    0.083094
    44  H    0.076947
    45  H    0.088014
    46  H    0.100984
    47  H    0.088755
    48  H    0.102888
    49  H    0.076895
    50  H    0.106949
    51  H    0.093942
    52  H    0.105290
    53  H    0.075668
    54  H    0.088142
    55  H    0.109492
    56  H    0.088318
    57  H    0.105415
    58  H    0.102722
    59  H    0.094248
    60  H    0.085950
    61  H    0.115041
    62  H    0.115286
    63  H    0.093802
    64  H    0.091874
    65  H    0.055148
    66  H    0.086832
    67  H    0.108472
    68  H    0.105626
    69  H    0.122944
    70  H    0.090416
    71  H    0.110381
    72  H    0.063779
    73  H    0.055488
    74  H    0.089250
    75  H    0.145255
    76  H    0.111597
    77  H    0.103966
    78  H    0.139372
    79  H    0.131223
    80  H    0.078042
    81  H    0.076487
    82  H    0.080617
    83  H    0.073838
    84  H    0.085051
    85  H    0.049960
    86  H    0.081595
    87  H    0.139477
    88  H    0.103500
    89  H    0.132694
    90  H    0.099244
    91  H    0.099920
    92  H    0.089442
    93  H    0.040024
    94  H    0.063375
    95  H    0.078328
    96  H    0.086583
 Sum of Mulliken charges =  -0.00000

 Dipole moment (field-independent basis, Debye):
    X=              0.6406    Y=              0.6476    Z=              0.0733  Tot=              0.9139
 Quadrupole moment (field-independent basis, Debye-Ang):
   XX=           -219.0943   YY=           -233.4731   ZZ=           -256.1772
   XY=              1.3085   XZ=             -2.8782   YZ=              3.7529

 Normal termination of Gaussian 16 at Mon Jul 29 02:39:16 2019.
