 Gaussian 16, Revision A.03,
 Gaussian 16:  ES64L-G16RevA.03 25-Dec-2016

 ---------------------------------
 # td=(NStates=1) B3LYP/6-31G(d,p)
 ---------------------------------

 --
 TD
 --
 Symbolic Z-matrix:
 Charge =  0 Multiplicity = 1

                         Standard orientation:
 ---------------------------------------------------------------------
 Center     Atomic      Atomic             Coordinates (Angstroms)
 Number     Number       Type             X           Y           Z
 ---------------------------------------------------------------------
      1          6           0       12.148372    0.530082   -0.626453
      2          6           0      -12.090355   -0.057713    0.810088
      3          6           0       13.412434   -0.354693   -0.609483
      4          6           0      -13.026380    1.056029    1.280368
      5          6           0       13.168873   -1.869127   -0.671096
      6          6           0      -13.484204    2.005312    0.186298
      7          6           0       10.996990   -0.083109    0.202912
      8          6           0      -10.921386    0.427502   -0.159088
      9          6           0       12.299536   -2.289036    0.464849
     10          6           0      -12.134702    2.640529   -0.528829
     11          6           0       11.103141   -1.344859    0.792824
     12          6           0      -11.088121    1.537419   -0.742126
     13          6           0       11.615600    0.661216   -2.069500
     14          6           0       12.528268    1.921512   -0.074682
     15          6           0      -12.867186   -1.163419    0.192740
     16          6           0      -11.539508   -0.740650    2.092119
     17          6           0        9.809915    0.835005    0.343018
     18          6           0       -9.825095   -0.533891   -0.290449
     19          6           0       10.179806   -1.844671    1.904500
     20          6           0      -10.097833    2.110525   -1.819540
     21          6           0        8.493983    0.518203    0.333598
     22          6           0       -8.527633   -0.247932   -0.253467
     23          6           0        7.357296    1.374185    0.452481
     24          6           0       -7.467353   -1.313813   -0.380241
     25          6           0        7.647334    2.884176    0.629672
     26          6           0       -7.903993   -2.767089   -0.640099
     27          6           0        6.154472    0.950742    0.314729
     28          6           0       -6.131303   -0.950187   -0.338481
     29          6           0        4.854267    1.645047    0.253068
     30          6           0       -4.985121   -1.755615   -0.540072
     31          6           0        3.713365    0.874173    0.218172
     32          6           0       -3.737655   -1.174763   -0.325113
     33          6           0        2.305301    1.385619    0.218541
     34          6           0       -2.531124   -1.762894   -0.319015
     35          6           0        2.135312    2.883852    0.508030
     36          6           0       -2.478595   -3.235949   -0.653155
     37          6           0        1.248302    0.647505    0.142701
     38          6           0       -1.289184   -1.164250   -0.197173
     39          6           0        1.160938   -0.854183   -0.061776
     40          6           0        0.076862   -1.609902   -0.200477
     41          1           0       14.000814   -0.180746    0.345159
     42          1           0       14.071943   -0.157269   -1.501805
     43          1           0      -12.557187    1.733557    2.155256
     44          1           0      -13.916282    0.513711    1.721402
     45          1           0       13.972092   -2.445554   -0.771892
     46          1           0       12.442184   -2.044556   -1.444004
     47          1           0      -14.119766    2.909997    0.739308
     48          1           0      -14.247449    1.466361   -0.383382
     49          1           0       12.787505   -2.233451    1.403687
     50          1           0       11.797722   -3.231767    0.227448
     51          1           0      -11.829256    3.278116    0.226811
     52          1           0      -12.372228    3.371603   -1.240193
     53          1           0       11.187833   -0.409294   -2.370315
     54          1           0       12.394682    1.027503   -2.809837
     55          1           0       10.720537    1.324231   -2.238833
     56          1           0       12.759678    1.830081    0.871578
     57          1           0       11.729383    2.599297   -0.218922
     58          1           0       13.621875    2.305124   -0.342154
     59          1           0      -13.502846   -0.809051   -0.697590
     60          1           0      -13.361363   -1.901662    1.059420
     61          1           0      -12.262717   -1.938714   -0.416213
     62          1           0      -10.778404   -0.191464    2.758148
     63          1           0      -10.694107   -1.509869    1.825131
     64          1           0      -12.357826   -1.305045    2.736097
     65          1           0       10.092491    1.856240    0.552929
     66          1           0      -10.220003   -1.630730   -0.394120
     67          1           0        9.626716   -1.249187    2.443002
     68          1           0       10.688042   -2.316676    2.652799
     69          1           0        9.623392   -2.738600    1.549695
     70          1           0       -9.439213    1.224868   -2.185096
     71          1           0       -9.346920    2.863977   -1.357519
     72          1           0      -10.752561    2.598516   -2.501896
     73          1           0        8.128840   -0.475667   -0.018539
     74          1           0       -8.249895    0.730447   -0.299528
     75          1           0        8.294414    3.091653    1.591195
     76          1           0        6.837865    3.393055    0.759520
     77          1           0        8.132876    3.408149   -0.254162
     78          1           0       -8.835595   -2.902816   -1.270458
     79          1           0       -8.143123   -3.048540    0.443277
     80          1           0       -7.089380   -3.348930   -1.110901
     81          1           0        5.934544   -0.178634    0.449665
     82          1           0       -6.009656    0.005256   -0.243857
     83          1           0        4.658934    2.824276    0.167401
     84          1           0       -5.119364   -2.779871   -0.809057
     85          1           0        3.859984   -0.241673    0.008293
     86          1           0       -3.583983   -0.075026    0.025660
     87          1           0        2.388372    3.202353    1.552942
     88          1           0        0.954520    3.326029    0.679747
     89          1           0        2.533514    3.430907   -0.316035
     90          1           0       -2.792661   -3.563881   -1.675509
     91          1           0       -3.203236   -3.748597   -0.045271
     92          1           0       -1.472866   -3.508801   -0.381865
     93          1           0        0.373546    1.225666   -0.064322
     94          1           0       -1.232844   -0.032145   -0.032158
     95          1           0        2.126800   -1.299883   -0.181817
     96          1           0        0.047815   -2.668194   -0.410684
 ---------------------------------------------------------------------

 SCF Done:  E(RB3LYP) =  -1557.59355703     A.U. after   16 cycles

 Excitation energies and oscillator strengths:

 Excited State   1:      Singlet-A      2.4111 eV  514.22 nm  f=2.7696  <S**2>=0.000
     147 ->149        -0.16599
     148 ->149         0.67941
     148 ->150        -0.10602
 This state for optimization and/or second-order correction.
 Total Energy, E(TD-HF/TD-DFT) =  -1557.50495109
 Copying the excited state density for this state as the 1-particle RhoCI density.

 The electronic state is 1-A.
 Alpha  occ. eigenvalues --  -10.20792 -10.20420 -10.20083 -10.20029 -10.20008
 Alpha  occ. eigenvalues --  -10.19999 -10.19923 -10.19732 -10.19519 -10.19458
 Alpha  occ. eigenvalues --  -10.19403 -10.19318 -10.19299 -10.19246 -10.19026
 Alpha  occ. eigenvalues --  -10.18968 -10.18952 -10.18892 -10.18839 -10.18824
 Alpha  occ. eigenvalues --  -10.18745 -10.18666 -10.18634 -10.18626 -10.18526
 Alpha  occ. eigenvalues --  -10.18439 -10.18392 -10.18386 -10.18282 -10.18240
 Alpha  occ. eigenvalues --  -10.18211 -10.18037 -10.18027 -10.17777 -10.17590
 Alpha  occ. eigenvalues --  -10.17229 -10.17170 -10.16480 -10.16224 -10.15986
 Alpha  occ. eigenvalues --   -0.85154  -0.84471  -0.84029  -0.83406  -0.82460
 Alpha  occ. eigenvalues --   -0.81622  -0.79165  -0.78540  -0.78402  -0.77452
 Alpha  occ. eigenvalues --   -0.76963  -0.75374  -0.74374  -0.72540  -0.71810
 Alpha  occ. eigenvalues --   -0.69461  -0.68894  -0.68508  -0.68380  -0.68233
 Alpha  occ. eigenvalues --   -0.68143  -0.66809  -0.66608  -0.66181  -0.65845
 Alpha  occ. eigenvalues --   -0.63393  -0.62472  -0.59822  -0.59439  -0.57877
 Alpha  occ. eigenvalues --   -0.56587  -0.55770  -0.55086  -0.53952  -0.52903
 Alpha  occ. eigenvalues --   -0.52262  -0.52027  -0.50720  -0.49907  -0.48989
 Alpha  occ. eigenvalues --   -0.48427  -0.47448  -0.47253  -0.46957  -0.46359
 Alpha  occ. eigenvalues --   -0.46201  -0.45567  -0.44928  -0.44581  -0.44045
 Alpha  occ. eigenvalues --   -0.43928  -0.43666  -0.43506  -0.42999  -0.42133
 Alpha  occ. eigenvalues --   -0.42010  -0.41821  -0.41291  -0.40866  -0.40738
 Alpha  occ. eigenvalues --   -0.40559  -0.40407  -0.39760  -0.39726  -0.39531
 Alpha  occ. eigenvalues --   -0.39315  -0.39170  -0.39087  -0.38409  -0.38053
 Alpha  occ. eigenvalues --   -0.37705  -0.37496  -0.37047  -0.36906  -0.36354
 Alpha  occ. eigenvalues --   -0.36312  -0.36150  -0.35991  -0.35384  -0.35049
 Alpha  occ. eigenvalues --   -0.34620  -0.34599  -0.34277  -0.34148  -0.33291
 Alpha  occ. eigenvalues --   -0.33199  -0.32928  -0.32843  -0.32656  -0.32358
 Alpha  occ. eigenvalues --   -0.31997  -0.31961  -0.31608  -0.30986  -0.30556
 Alpha  occ. eigenvalues --   -0.30246  -0.30040  -0.29871  -0.29493  -0.29188
 Alpha  occ. eigenvalues --   -0.28542  -0.26991  -0.26604  -0.25038  -0.23225
 Alpha  occ. eigenvalues --   -0.21939  -0.19082  -0.17057
 Alpha virt. eigenvalues --   -0.07937  -0.05038  -0.01100   0.00678   0.03335
 Alpha virt. eigenvalues --    0.04906   0.06102   0.07003   0.07451   0.08098
 Alpha virt. eigenvalues --    0.08180   0.08395   0.08532   0.09087   0.09341

 Mulliken charges:
               1
     1  C    0.004527
     2  C    0.015657
     3  C   -0.178616
     4  C   -0.152061
     5  C   -0.176105
     6  C   -0.194356
     7  C    0.060888
     8  C    0.098103
     9  C   -0.218500
    10  C   -0.227194
    11  C    0.018344
    12  C    0.038839
    13  C   -0.289731
    14  C   -0.304344
    15  C   -0.287280
    16  C   -0.301480
    17  C   -0.137430
    18  C   -0.135223
    19  C   -0.348464
    20  C   -0.358327
    21  C   -0.094691
    22  C   -0.079857
    23  C    0.154932
    24  C    0.069872
    25  C   -0.361301
    26  C   -0.365521
    27  C   -0.162843
    28  C   -0.078437
    29  C   -0.074118
    30  C   -0.094604
    31  C   -0.109557
    32  C   -0.104208
    33  C    0.104307
    34  C    0.134397
    35  C   -0.367417
    36  C   -0.374728
    37  C   -0.121062
    38  C   -0.129785
    39  C   -0.103039
    40  C   -0.063456
    41  H    0.078141
    42  H    0.086247
    43  H    0.074377
    44  H    0.084174
    45  H    0.097540
    46  H    0.101671
    47  H    0.054648
    48  H    0.101700
    49  H    0.107748
    50  H    0.100091
    51  H    0.129995
    52  H    0.104733
    53  H    0.082927
    54  H    0.089191
    55  H    0.101498
    56  H    0.119049
    57  H    0.106906
    58  H    0.077327
    59  H    0.092950
    60  H    0.080371
    61  H    0.091082
    62  H    0.089657
    63  H    0.081165
    64  H    0.087199
    65  H    0.084941
    66  H    0.086205
    67  H    0.125131
    68  H    0.110367
    69  H    0.099364
    70  H    0.103903
    71  H    0.100429
    72  H    0.112664
    73  H    0.072354
    74  H    0.086093
    75  H    0.098869
    76  H    0.114529
    77  H    0.106221
    78  H    0.115095
    79  H    0.127114
    80  H    0.110089
    81  H    0.074236
    82  H    0.061016
    83  H    0.086422
    84  H    0.086011
    85  H    0.083184
    86  H    0.067912
    87  H    0.132052
    88  H    0.067756
    89  H    0.128687
    90  H    0.115219
    91  H    0.111471
    92  H    0.102422
    93  H    0.088740
    94  H    0.054678
    95  H    0.083641
    96  H    0.076672
 Sum of Mulliken charges =  -0.00000

 Dipole moment (field-independent basis, Debye):
    X=              0.5833    Y=              0.1892    Z=              0.1057  Tot=              0.6222
 Quadrupole moment (field-independent basis, Debye-Ang):
   XX=           -227.3126   YY=           -233.0915   ZZ=           -255.4498
   XY=             -3.5226   XZ=              9.0028   YZ=              1.9330

 Normal termination of Gaussian 16 at Fri Jul 26 12:44:03 2019.
