 Gaussian 16, Revision A.03,
 Gaussian 16:  ES64L-G16RevA.03 25-Dec-2016

 ---------------------------------
 # td=(NStates=1) B3LYP/6-31G(d,p)
 ---------------------------------

 --
 TD
 --
 Symbolic Z-matrix:
 Charge =  0 Multiplicity = 1

                         Standard orientation:
 ---------------------------------------------------------------------
 Center     Atomic      Atomic             Coordinates (Angstroms)
 Number     Number       Type             X           Y           Z
 ---------------------------------------------------------------------
      1          6           0      -12.175498   -0.654834   -0.654044
      2          6           0       12.138371   -0.020842    0.901134
      3          6           0      -13.496551   -0.039728   -0.577291
      4          6           0       13.009427   -1.239013    1.277274
      5          6           0      -13.427757    1.584825   -0.550107
      6          6           0       13.466339   -2.128685    0.067309
      7          6           0      -11.025875   -0.063583    0.212640
      8          6           0       11.011298   -0.484201   -0.143738
      9          6           0      -12.448554    1.925521    0.578329
     10          6           0       12.103775   -2.744988   -0.524944
     11          6           0      -11.263259    1.161426    0.822287
     12          6           0       10.947058   -1.751017   -0.757087
     13          6           0      -11.715340   -0.653687   -2.088858
     14          6           0      -12.406885   -2.150569   -0.359306
     15          6           0       13.050770    1.024403    0.290112
     16          6           0       11.465312    0.564296    2.133317
     17          6           0       -9.884666   -0.966667    0.432703
     18          6           0        9.921084    0.488783   -0.255421
     19          6           0      -10.312846    1.766351    1.847439
     20          6           0        9.987981   -2.228901   -1.631740
     21          6           0       -8.589001   -0.424320    0.361530
     22          6           0        8.573059    0.279175   -0.381181
     23          6           0       -7.349435   -1.259266    0.441196
     24          6           0        7.508984    1.306249   -0.567507
     25          6           0       -7.499457   -2.744090    0.627812
     26          6           0        7.989025    2.681289   -0.860463
     27          6           0       -6.106605   -0.604450    0.331671
     28          6           0        6.183533    0.993895   -0.326390
     29          6           0       -4.829548   -1.217713    0.378195
     30          6           0        5.027660    1.873383   -0.420023
     31          6           0       -3.661761   -0.563661    0.171721
     32          6           0        3.810509    1.236169   -0.142334
     33          6           0       -2.317195   -1.117936    0.309327
     34          6           0        2.563755    1.996588   -0.287309
     35          6           0       -2.147591   -2.571083    0.651395
     36          6           0        2.619568    3.380574   -0.582120
     37          6           0       -1.159959   -0.315688    0.123493
     38          6           0        1.330787    1.329516   -0.149813
     39          6           0       -1.150743    1.057184   -0.245070
     40          6           0       -0.018323    1.820972   -0.317173
     41          1           0      -14.009776   -0.397084    0.353981
     42          1           0      -14.448417   -0.250412   -1.341349
     43          1           0       12.403198   -1.884116    2.068368
     44          1           0       13.995955   -0.698244    1.726278
     45          1           0      -14.308023    2.197446   -0.454699
     46          1           0      -13.066039    1.705832   -1.484604
     47          1           0       14.002870   -3.031625    0.432921
     48          1           0       14.009301   -1.426369   -0.604166
     49          1           0      -12.848517    2.025263    1.591940
     50          1           0      -12.221231    2.800663    0.355166
     51          1           0       11.839574   -3.804814   -0.054369
     52          1           0       12.539398   -3.097636   -1.499975
     53          1           0      -11.912856    0.349692   -2.673495
     54          1           0      -12.436864   -1.198027   -2.828996
     55          1           0      -10.628499   -0.947825   -2.233963
     56          1           0      -12.586883   -2.235390    0.677600
     57          1           0      -11.430987   -2.793978   -0.579705
     58          1           0      -13.368668   -2.586174   -0.920184
     59          1           0       13.486268    0.517535   -0.600179
     60          1           0       13.764814    1.443061    1.065972
     61          1           0       12.511488    1.880682   -0.205646
     62          1           0       10.820055   -0.089199    2.587144
     63          1           0       10.792682    1.445288    1.838739
     64          1           0       12.134140    0.869680    3.014219
     65          1           0       -9.901631   -2.018443    0.480788
     66          1           0       10.568273    1.348643   -0.469978
     67          1           0       -9.743923    1.052048    2.248618
     68          1           0      -11.009694    2.065011    2.673784
     69          1           0       -9.688354    2.568605    1.455704
     70          1           0        9.033120   -1.528624   -2.054281
     71          1           0        9.631900   -3.081547   -0.985220
     72          1           0       10.365062   -2.716611   -2.401747
     73          1           0       -8.266613    0.687649    0.238931
     74          1           0        8.181920   -0.641129   -0.227960
     75          1           0       -7.835633   -2.716110    1.632603
     76          1           0       -6.470670   -3.214734    0.419331
     77          1           0       -8.139066   -2.979906   -0.072608
     78          1           0        8.636829    2.607913   -1.818898
     79          1           0        8.824021    3.083033   -0.222716
     80          1           0        7.342694    3.531073   -0.764173
     81          1           0       -6.084075    0.394736   -0.000376
     82          1           0        6.172508   -0.124168   -0.395067
     83          1           0       -4.768788   -2.337292    0.635883
     84          1           0        5.361812    2.866554   -0.919456
     85          1           0       -3.809058    0.447949   -0.132845
     86          1           0        3.691503    0.089694    0.206168
     87          1           0       -2.671468   -2.828694    1.720731
     88          1           0       -1.077754   -2.862409    0.608001
     89          1           0       -2.685554   -3.192696   -0.209583
     90          1           0        2.925213    3.402724   -1.520709
     91          1           0        3.337682    4.062786    0.002233
     92          1           0        1.766462    3.989825   -0.465083
     93          1           0       -0.134622   -0.736544   -0.017105
     94          1           0        1.332297    0.249233    0.173922
     95          1           0       -2.147956    1.708391   -0.286464
     96          1           0       -0.098080    2.874718   -0.585215
 ---------------------------------------------------------------------

 SCF Done:  E(RB3LYP) =  -1557.56833779     A.U. after   15 cycles

 Excitation energies and oscillator strengths:

 Excited State   1:      Singlet-A      2.0860 eV  594.36 nm  f=3.0342  <S**2>=0.000
     148 ->149         0.70817
     148 <-149        -0.10246
 This state for optimization and/or second-order correction.
 Total Energy, E(TD-HF/TD-DFT) =  -1557.49167763
 Copying the excited state density for this state as the 1-particle RhoCI density.

 The electronic state is 1-A.
 Alpha  occ. eigenvalues --  -10.20824 -10.20670 -10.20474 -10.20332 -10.20258
 Alpha  occ. eigenvalues --  -10.20125 -10.19900 -10.19860 -10.19857 -10.19551
 Alpha  occ. eigenvalues --  -10.19515 -10.19468 -10.19453 -10.19370 -10.19265
 Alpha  occ. eigenvalues --  -10.19232 -10.19230 -10.19076 -10.19004 -10.18995
 Alpha  occ. eigenvalues --  -10.18981 -10.18917 -10.18737 -10.18646 -10.18467
 Alpha  occ. eigenvalues --  -10.18380 -10.18369 -10.18362 -10.18326 -10.18172
 Alpha  occ. eigenvalues --  -10.18129 -10.17989 -10.17912 -10.17844 -10.17524
 Alpha  occ. eigenvalues --  -10.17217 -10.16934 -10.16664 -10.16627 -10.15955
 Alpha  occ. eigenvalues --   -0.85510  -0.84339  -0.83354  -0.82849  -0.81651
 Alpha  occ. eigenvalues --   -0.81082  -0.79962  -0.79774  -0.78763  -0.77101
 Alpha  occ. eigenvalues --   -0.76539  -0.75059  -0.74322  -0.72464  -0.72385
 Alpha  occ. eigenvalues --   -0.69961  -0.68956  -0.68449  -0.67963  -0.67937
 Alpha  occ. eigenvalues --   -0.67546  -0.66964  -0.66533  -0.65658  -0.65229
 Alpha  occ. eigenvalues --   -0.62939  -0.61731  -0.60126  -0.58943  -0.56952
 Alpha  occ. eigenvalues --   -0.56654  -0.55072  -0.54354  -0.53317  -0.52818
 Alpha  occ. eigenvalues --   -0.52090  -0.51803  -0.50390  -0.49379  -0.48828
 Alpha  occ. eigenvalues --   -0.47802  -0.47445  -0.47274  -0.46520  -0.46153
 Alpha  occ. eigenvalues --   -0.45815  -0.45540  -0.45423  -0.45037  -0.44760
 Alpha  occ. eigenvalues --   -0.44561  -0.43799  -0.43317  -0.43112  -0.42641
 Alpha  occ. eigenvalues --   -0.42155  -0.41910  -0.41507  -0.41411  -0.40717
 Alpha  occ. eigenvalues --   -0.40649  -0.40397  -0.40251  -0.40140  -0.39586
 Alpha  occ. eigenvalues --   -0.39090  -0.38807  -0.38742  -0.38388  -0.38036
 Alpha  occ. eigenvalues --   -0.37843  -0.37352  -0.37168  -0.36874  -0.36689
 Alpha  occ. eigenvalues --   -0.36299  -0.36082  -0.35734  -0.35495  -0.35308
 Alpha  occ. eigenvalues --   -0.34994  -0.34608  -0.34270  -0.33926  -0.33843
 Alpha  occ. eigenvalues --   -0.33679  -0.33286  -0.32685  -0.32600  -0.32352
 Alpha  occ. eigenvalues --   -0.31976  -0.31568  -0.31488  -0.31179  -0.30777
 Alpha  occ. eigenvalues --   -0.30495  -0.29468  -0.29264  -0.29085  -0.28346
 Alpha  occ. eigenvalues --   -0.27404  -0.27144  -0.25996  -0.23837  -0.22301
 Alpha  occ. eigenvalues --   -0.20466  -0.18421  -0.16005
 Alpha virt. eigenvalues --   -0.08129  -0.05246  -0.02110   0.00344   0.02773
 Alpha virt. eigenvalues --    0.04130   0.05786   0.06485   0.07105   0.07342
 Alpha virt. eigenvalues --    0.07625   0.07984   0.08352   0.08762   0.09145

 Mulliken charges:
               1
     1  C    0.010370
     2  C    0.009439
     3  C   -0.189697
     4  C   -0.155462
     5  C   -0.207221
     6  C   -0.183159
     7  C    0.079764
     8  C    0.008131
     9  C   -0.190732
    10  C   -0.251213
    11  C    0.038328
    12  C    0.102675
    13  C   -0.278147
    14  C   -0.287957
    15  C   -0.294059
    16  C   -0.294725
    17  C   -0.166328
    18  C   -0.095232
    19  C   -0.352941
    20  C   -0.350683
    21  C   -0.076400
    22  C   -0.123665
    23  C    0.054861
    24  C    0.118967
    25  C   -0.349800
    26  C   -0.389057
    27  C   -0.123129
    28  C   -0.121054
    29  C   -0.071052
    30  C   -0.106081
    31  C   -0.097676
    32  C   -0.111647
    33  C    0.105082
    34  C    0.120858
    35  C   -0.361362
    36  C   -0.381106
    37  C   -0.137333
    38  C   -0.124228
    39  C   -0.069747
    40  C   -0.093958
    41  H    0.081773
    42  H    0.063741
    43  H    0.074749
    44  H    0.056281
    45  H    0.091635
    46  H    0.117415
    47  H    0.099687
    48  H    0.105118
    49  H    0.099049
    50  H    0.115613
    51  H    0.088972
    52  H    0.097384
    53  H    0.071556
    54  H    0.081339
    55  H    0.099179
    56  H    0.106096
    57  H    0.076438
    58  H    0.089559
    59  H    0.097114
    60  H    0.101826
    61  H    0.091920
    62  H    0.113371
    63  H    0.096094
    64  H    0.082895
    65  H    0.096922
    66  H    0.085366
    67  H    0.130390
    68  H    0.090713
    69  H    0.116360
    70  H    0.096285
    71  H    0.110607
    72  H    0.122925
    73  H    0.081084
    74  H    0.079248
    75  H    0.138758
    76  H    0.101541
    77  H    0.135318
    78  H    0.110242
    79  H    0.112457
    80  H    0.105438
    81  H    0.072554
    82  H    0.071036
    83  H    0.069471
    84  H    0.110885
    85  H    0.073434
    86  H    0.093656
    87  H    0.104670
    88  H    0.111999
    89  H    0.103595
    90  H    0.141244
    91  H    0.104442
    92  H    0.114765
    93  H    0.087067
    94  H    0.064632
    95  H    0.073639
    96  H    0.076824
 Sum of Mulliken charges =  -0.00000

 Dipole moment (field-independent basis, Debye):
    X=             -0.0998    Y=              0.1580    Z=             -0.4785  Tot=              0.5137
 Quadrupole moment (field-independent basis, Debye-Ang):
   XX=           -223.5539   YY=           -232.7351   ZZ=           -256.0817
   XY=            -10.7581   XZ=             -9.9053   YZ=             -2.5865

 Normal termination of Gaussian 16 at Sat Jul 27 05:13:28 2019.
