 Gaussian 16, Revision A.03,
 Gaussian 16:  ES64L-G16RevA.03 25-Dec-2016

 ---------------------------------
 # td=(NStates=1) B3LYP/6-31G(d,p)
 ---------------------------------

 --
 TD
 --
 Symbolic Z-matrix:
 Charge =  0 Multiplicity = 1

                         Standard orientation:
 ---------------------------------------------------------------------
 Center     Atomic      Atomic             Coordinates (Angstroms)
 Number     Number       Type             X           Y           Z
 ---------------------------------------------------------------------
      1          6           0       12.177105    0.617915   -0.645940
      2          6           0      -12.129474   -0.155429    0.766919
      3          6           0       13.456548   -0.272341   -0.587642
      4          6           0      -13.010122    0.968814    1.321766
      5          6           0       13.184096   -1.789957   -0.694975
      6          6           0      -13.418416    1.950822    0.176082
      7          6           0       11.004363   -0.017355    0.260517
      8          6           0      -10.994871    0.464297   -0.070876
      9          6           0       12.441519   -2.216758    0.574308
     10          6           0      -12.246818    2.653938   -0.442672
     11          6           0       11.199554   -1.256521    0.838817
     12          6           0      -11.052052    1.653136   -0.655873
     13          6           0       11.619232    0.767297   -2.084459
     14          6           0       12.501649    2.101306   -0.127666
     15          6           0      -12.978876   -1.055600   -0.150562
     16          6           0      -11.581287   -0.892350    2.026645
     17          6           0        9.806469    0.776902    0.414927
     18          6           0       -9.902783   -0.488827   -0.289400
     19          6           0       10.111126   -1.868505    1.700019
     20          6           0       -9.993815    2.212475   -1.654747
     21          6           0        8.550145    0.389282    0.368169
     22          6           0       -8.568195   -0.279710   -0.195546
     23          6           0        7.432735    1.238636    0.444739
     24          6           0       -7.469335   -1.230911   -0.335622
     25          6           0        7.521485    2.735076    0.575415
     26          6           0       -7.973697   -2.578572   -0.637212
     27          6           0        6.192465    0.694734    0.247828
     28          6           0       -6.217504   -0.810406   -0.178525
     29          6           0        4.921891    1.331140    0.315040
     30          6           0       -4.953046   -1.503314   -0.592153
     31          6           0        3.739061    0.738920    0.189121
     32          6           0       -3.716323   -1.066961   -0.217724
     33          6           0        2.434177    1.299696    0.366893
     34          6           0       -2.507849   -1.784187   -0.358481
     35          6           0        2.294368    2.761607    0.636332
     36          6           0       -2.457039   -3.327539   -0.694568
     37          6           0        1.314962    0.467545    0.251300
     38          6           0       -1.315511   -1.126653   -0.216941
     39          6           0        1.174435   -0.875618   -0.146806
     40          6           0       -0.001566   -1.519060   -0.262539
     41          1           0       13.873656   -0.152655    0.352647
     42          1           0       14.086603    0.118802   -1.362434
     43          1           0      -12.631843    1.633418    2.208468
     44          1           0      -14.123239    0.664672    1.714261
     45          1           0       14.266603   -2.019115   -0.932204
     46          1           0       12.619152   -2.038176   -1.673111
     47          1           0      -14.337419    2.470496    0.401605
     48          1           0      -13.798420    1.181504   -0.574018
     49          1           0       13.119062   -2.319537    1.429465
     50          1           0       11.882453   -3.283517    0.528055
     51          1           0      -11.964504    3.666465    0.070095
     52          1           0      -12.535640    3.143480   -1.396225
     53          1           0       11.655176   -0.352258   -2.551560
     54          1           0       12.346194    1.376669   -2.778650
     55          1           0       10.625945    1.192016   -2.131302
     56          1           0       12.611059    2.245926    0.868133
     57          1           0       11.713128    2.810390   -0.474491
     58          1           0       13.302926    2.391029   -0.896736
     59          1           0      -13.321628   -0.578931   -1.062539
     60          1           0      -13.943003   -1.734142    0.479337
     61          1           0      -12.425005   -1.791700   -0.767550
     62          1           0      -10.722581   -0.276808    2.516932
     63          1           0      -11.097090   -2.033628    1.946692
     64          1           0      -12.475044   -1.020786    2.738332
     65          1           0        9.893411    1.895850    0.500866
     66          1           0      -10.189146   -1.570982   -0.530010
     67          1           0        9.504645   -1.092682    2.263494
     68          1           0       10.460380   -2.378464    2.717645
     69          1           0        9.452273   -2.494662    1.122193
     70          1           0       -9.257139    1.343319   -1.833261
     71          1           0       -9.266996    2.981776   -1.146019
     72          1           0      -10.333783    2.678146   -2.623831
     73          1           0        8.192619   -0.702279    0.333011
     74          1           0       -8.346321    0.801701    0.005728
     75          1           0        8.272542    2.909150    1.249908
     76          1           0        6.577502    3.207391    0.926737
     77          1           0        7.818014    3.266358   -0.330274
     78          1           0       -8.695310   -2.707836   -1.593253
     79          1           0       -8.529711   -3.186650    0.124287
     80          1           0       -7.105055   -3.407549   -0.701059
     81          1           0        6.142613   -0.416475   -0.252894
     82          1           0       -6.226226    0.140996    0.030521
     83          1           0        4.946442    2.340608    0.400076
     84          1           0       -5.206061   -2.633104   -0.959770
     85          1           0        3.733710   -0.358035    0.330852
     86          1           0       -3.430171    0.077049    0.281581
     87          1           0        2.788150    3.180793    1.548287
     88          1           0        0.976180    3.318536    0.823120
     89          1           0        2.778511    3.333669   -0.186555
     90          1           0       -2.857202   -3.387704   -1.894088
     91          1           0       -3.416458   -3.629126   -0.264652
     92          1           0       -1.505767   -3.837186   -0.549928
     93          1           0        0.419586    1.164062    0.180814
     94          1           0       -1.511890   -0.153821    0.235917
     95          1           0        2.000826   -1.617038    0.040060
     96          1           0       -0.339539   -2.601212   -0.306148
 ---------------------------------------------------------------------

 SCF Done:  E(RB3LYP) =  -1557.53875578     A.U. after   15 cycles

 Excitation energies and oscillator strengths:

 Excited State   1:      Singlet-A      2.1816 eV  568.31 nm  f=2.9844  <S**2>=0.000
     148 ->149         0.70593
     148 <-149        -0.10288
 This state for optimization and/or second-order correction.
 Total Energy, E(TD-HF/TD-DFT) =  -1557.45858200
 Copying the excited state density for this state as the 1-particle RhoCI density.

 The electronic state is 1-A.
 Alpha  occ. eigenvalues --  -10.21653 -10.21228 -10.21186 -10.21153 -10.20646
 Alpha  occ. eigenvalues --  -10.20599 -10.20514 -10.20490 -10.20356 -10.20274
 Alpha  occ. eigenvalues --  -10.19950 -10.19905 -10.19869 -10.19715 -10.19710
 Alpha  occ. eigenvalues --  -10.19570 -10.19501 -10.19377 -10.19364 -10.19340
 Alpha  occ. eigenvalues --  -10.19186 -10.19105 -10.19027 -10.18991 -10.18909
 Alpha  occ. eigenvalues --  -10.18852 -10.18808 -10.18682 -10.18562 -10.18487
 Alpha  occ. eigenvalues --  -10.18450 -10.18329 -10.18328 -10.18071 -10.17910
 Alpha  occ. eigenvalues --  -10.17890 -10.17807 -10.17435 -10.17390 -10.17120
 Alpha  occ. eigenvalues --   -0.85172  -0.84600  -0.84219  -0.83441  -0.82912
 Alpha  occ. eigenvalues --   -0.82158  -0.79563  -0.78033  -0.77494  -0.77024
 Alpha  occ. eigenvalues --   -0.76869  -0.75635  -0.74213  -0.72472  -0.71544
 Alpha  occ. eigenvalues --   -0.70054  -0.69039  -0.68864  -0.67555  -0.67380
 Alpha  occ. eigenvalues --   -0.67235  -0.67082  -0.66702  -0.66421  -0.65636
 Alpha  occ. eigenvalues --   -0.63536  -0.61958  -0.59743  -0.59051  -0.57204
 Alpha  occ. eigenvalues --   -0.56320  -0.55545  -0.54407  -0.53528  -0.52667
 Alpha  occ. eigenvalues --   -0.52483  -0.51703  -0.50543  -0.49944  -0.49689
 Alpha  occ. eigenvalues --   -0.48927  -0.48045  -0.47376  -0.47169  -0.46165
 Alpha  occ. eigenvalues --   -0.45670  -0.44922  -0.44514  -0.43940  -0.43690
 Alpha  occ. eigenvalues --   -0.43154  -0.42808  -0.42605  -0.42569  -0.42176
 Alpha  occ. eigenvalues --   -0.41653  -0.41317  -0.41166  -0.41018  -0.40872
 Alpha  occ. eigenvalues --   -0.40372  -0.40276  -0.40176  -0.39377  -0.39143
 Alpha  occ. eigenvalues --   -0.38918  -0.38727  -0.38361  -0.38190  -0.37601
 Alpha  occ. eigenvalues --   -0.37172  -0.37084  -0.37039  -0.36635  -0.36481
 Alpha  occ. eigenvalues --   -0.35989  -0.35741  -0.35346  -0.34964  -0.34611
 Alpha  occ. eigenvalues --   -0.34419  -0.34219  -0.34052  -0.33722  -0.33271
 Alpha  occ. eigenvalues --   -0.33210  -0.33141  -0.33119  -0.32802  -0.32484
 Alpha  occ. eigenvalues --   -0.32303  -0.31645  -0.31400  -0.31019  -0.30598
 Alpha  occ. eigenvalues --   -0.30501  -0.29729  -0.29349  -0.28792  -0.28753
 Alpha  occ. eigenvalues --   -0.28270  -0.28051  -0.26540  -0.24881  -0.23528
 Alpha  occ. eigenvalues --   -0.21635  -0.19490  -0.16846
 Alpha virt. eigenvalues --   -0.08670  -0.05151  -0.02093   0.00647   0.02428
 Alpha virt. eigenvalues --    0.03841   0.04170   0.04854   0.06430   0.06940
 Alpha virt. eigenvalues --    0.07321   0.07688   0.08034   0.08241   0.08577

 Mulliken charges:
               1
     1  C    0.000505
     2  C    0.028602
     3  C   -0.179840
     4  C   -0.162099
     5  C   -0.182056
     6  C   -0.202950
     7  C    0.090467
     8  C    0.050882
     9  C   -0.214617
    10  C   -0.197354
    11  C    0.040258
    12  C    0.073563
    13  C   -0.290384
    14  C   -0.306781
    15  C   -0.281852
    16  C   -0.291219
    17  C   -0.171809
    18  C   -0.119998
    19  C   -0.373778
    20  C   -0.371198
    21  C   -0.047422
    22  C   -0.120380
    23  C    0.122663
    24  C    0.175342
    25  C   -0.381072
    26  C   -0.396587
    27  C   -0.139905
    28  C   -0.100725
    29  C   -0.060820
    30  C   -0.135834
    31  C   -0.107119
    32  C   -0.080702
    33  C    0.121609
    34  C    0.130696
    35  C   -0.352839
    36  C   -0.370944
    37  C   -0.131705
    38  C   -0.120167
    39  C   -0.103877
    40  C   -0.039962
    41  H    0.106804
    42  H    0.088548
    43  H    0.085628
    44  H    0.064775
    45  H    0.092745
    46  H    0.091865
    47  H    0.087975
    48  H    0.091737
    49  H    0.114985
    50  H    0.086520
    51  H    0.086813
    52  H    0.096271
    53  H    0.076620
    54  H    0.077146
    55  H    0.117014
    56  H    0.113500
    57  H    0.093260
    58  H    0.088891
    59  H    0.115609
    60  H    0.059869
    61  H    0.099410
    62  H    0.104824
    63  H    0.069930
    64  H    0.097531
    65  H    0.076877
    66  H    0.078542
    67  H    0.117086
    68  H    0.080545
    69  H    0.126206
    70  H    0.111845
    71  H    0.099236
    72  H    0.109359
    73  H    0.075388
    74  H    0.076461
    75  H    0.122240
    76  H    0.110435
    77  H    0.127220
    78  H    0.107704
    79  H    0.130807
    80  H    0.075205
    81  H    0.061854
    82  H    0.071005
    83  H    0.065259
    84  H    0.083130
    85  H    0.079192
    86  H    0.075603
    87  H    0.126113
    88  H    0.040442
    89  H    0.127222
    90  H    0.093270
    91  H    0.129266
    92  H    0.136282
    93  H    0.083174
    94  H    0.055015
    95  H    0.091899
    96  H    0.049258
 Sum of Mulliken charges =  -0.00000

 Dipole moment (field-independent basis, Debye):
    X=              0.9702    Y=              0.2861    Z=              0.1370  Tot=              1.0207
 Quadrupole moment (field-independent basis, Debye-Ang):
   XX=           -223.9124   YY=           -236.4223   ZZ=           -256.5118
   XY=              5.5971   XZ=              6.7049   YZ=              1.4089

 Normal termination of Gaussian 16 at Thu Aug  1 05:08:52 2019.
