 Gaussian 16, Revision A.03,
 Gaussian 16:  ES64L-G16RevA.03 25-Dec-2016

 ---------------------------------
 # td=(NStates=1) B3LYP/6-31G(d,p)
 ---------------------------------

 --
 TD
 --
 Symbolic Z-matrix:
 Charge =  0 Multiplicity = 1

                         Standard orientation:
 ---------------------------------------------------------------------
 Center     Atomic      Atomic             Coordinates (Angstroms)
 Number     Number       Type             X           Y           Z
 ---------------------------------------------------------------------
      1          6           0      -12.159176   -0.632962   -0.670418
      2          6           0       12.163546    0.010883    0.845643
      3          6           0      -13.423944    0.163847   -0.650942
      4          6           0       13.087256   -1.283379    1.251023
      5          6           0      -13.313598    1.696934   -0.702218
      6          6           0       13.396256   -2.163841    0.074350
      7          6           0      -11.063459   -0.020691    0.195142
      8          6           0       11.101607   -0.484060   -0.145622
      9          6           0      -12.447627    2.006181    0.612241
     10          6           0       12.072009   -2.761599   -0.576928
     11          6           0      -11.268216    1.164947    0.831919
     12          6           0       10.926691   -1.762863   -0.701713
     13          6           0      -11.629262   -0.699531   -2.103271
     14          6           0      -12.436793   -2.156205   -0.224380
     15          6           0       13.064593    1.008772    0.108096
     16          6           0       11.576113    0.653466    2.183026
     17          6           0       -9.879970   -0.900495    0.401825
     18          6           0        9.962066    0.625428   -0.308935
     19          6           0      -10.246090    1.746800    1.833378
     20          6           0        9.889959   -2.133055   -1.700289
     21          6           0       -8.564235   -0.426467    0.327070
     22          6           0        8.612832    0.392091   -0.263379
     23          6           0       -7.433250   -1.214739    0.427898
     24          6           0        7.540005    1.274134   -0.468313
     25          6           0       -7.633273   -2.727371    0.739315
     26          6           0        7.914752    2.843495   -0.669522
     27          6           0       -6.190256   -0.715268    0.381010
     28          6           0        6.268354    0.888169   -0.150557
     29          6           0       -4.851649   -1.298130    0.500199
     30          6           0        5.011693    1.603461   -0.415106
     31          6           0       -3.671834   -0.614582    0.296279
     32          6           0        3.782750    1.179056   -0.253337
     33          6           0       -2.324533   -1.142301    0.278952
     34          6           0        2.571237    1.936636   -0.372298
     35          6           0       -2.203364   -2.640793    0.534308
     36          6           0        2.649947    3.375820   -0.520754
     37          6           0       -1.242941   -0.354234   -0.039633
     38          6           0        1.358229    1.251025   -0.303090
     39          6           0       -1.207859    1.009533   -0.138442
     40          6           0        0.083226    1.724339   -0.373159
     41          1           0      -13.806532    0.019519    0.236274
     42          1           0      -14.085461   -0.389465   -1.514427
     43          1           0       12.486270   -1.710089    1.963192
     44          1           0       13.949004   -0.854361    1.737467
     45          1           0      -14.334039    2.428815   -0.650267
     46          1           0      -12.669642    2.081507   -1.491483
     47          1           0       14.081542   -2.949827    0.259462
     48          1           0       14.095549   -1.574306   -0.483637
     49          1           0      -13.036279    2.153456    1.585302
     50          1           0      -12.129398    3.068301    0.100803
     51          1           0       11.497838   -3.345275    0.212049
     52          1           0       12.220809   -3.213167   -1.572790
     53          1           0      -11.674954    0.303373   -2.761634
     54          1           0      -12.321653   -1.281387   -2.752713
     55          1           0      -10.468463   -1.131958   -2.494367
     56          1           0      -12.775961   -2.292780    0.871045
     57          1           0      -11.596066   -2.683642   -0.761153
     58          1           0      -13.275279   -2.580166   -0.699300
     59          1           0       13.369528    0.647257   -1.103088
     60          1           0       14.211275    1.149740    0.570527
     61          1           0       12.542587    1.997298    0.249091
     62          1           0       11.045532   -0.223435    2.395486
     63          1           0       10.836203    1.559534    2.004514
     64          1           0       12.212934    0.877647    2.856333
     65          1           0      -10.132459   -1.936869    0.628979
     66          1           0       10.242311    1.646575   -0.343310
     67          1           0       -9.847652    0.731180    2.205281
     68          1           0      -10.728655    2.451360    2.618564
     69          1           0       -9.675171    2.540577    1.535249
     70          1           0        9.454189   -1.348458   -2.368406
     71          1           0        9.178884   -2.618207   -1.152692
     72          1           0       10.381746   -2.864050   -2.538231
     73          1           0       -8.455167    0.488598    0.208489
     74          1           0        8.298611   -0.607383    0.000795
     75          1           0       -8.468729   -2.757403    1.466208
     76          1           0       -6.792375   -3.392065    1.229376
     77          1           0       -8.028845   -3.416092   -0.165169
     78          1           0        8.743964    2.848889   -1.440601
     79          1           0        8.460602    3.012756    0.281357
     80          1           0        7.164184    3.655141   -0.874905
     81          1           0       -6.195529    0.341331    0.231672
     82          1           0        6.170782   -0.108666    0.125800
     83          1           0       -4.863104   -2.389413    0.587395
     84          1           0        5.111098    2.602149   -0.632025
     85          1           0       -3.690287    0.467915    0.352695
     86          1           0        3.592743    0.130240    0.079798
     87          1           0       -2.600288   -2.935083    1.490327
     88          1           0       -1.285038   -3.099527    0.765391
     89          1           0       -2.732717   -3.286546   -0.114835
     90          1           0        3.145731    3.525888   -1.601783
     91          1           0        3.306021    3.936958    0.249502
     92          1           0        1.587483    3.834398   -0.519235
     93          1           0       -0.066638   -0.803756   -0.228444
     94          1           0        1.430817    0.279720   -0.339937
     95          1           0       -2.145972    1.711677   -0.250767
     96          1           0        0.013381    2.766860   -0.659442
 ---------------------------------------------------------------------

 SCF Done:  E(RB3LYP) =  -1557.50376812     A.U. after   16 cycles

 Excitation energies and oscillator strengths:

 Excited State   1:      Singlet-A      1.9989 eV  620.26 nm  f=3.1954  <S**2>=0.000
     148 ->149         0.71028
     148 <-149        -0.14035
 This state for optimization and/or second-order correction.
 Total Energy, E(TD-HF/TD-DFT) =  -1557.43030924
 Copying the excited state density for this state as the 1-particle RhoCI density.

 The electronic state is 1-A.
 Alpha  occ. eigenvalues --  -10.20653 -10.20443 -10.20435 -10.20404 -10.20279
 Alpha  occ. eigenvalues --  -10.20241 -10.20167 -10.20135 -10.19943 -10.19937
 Alpha  occ. eigenvalues --  -10.19849 -10.19804 -10.19794 -10.19586 -10.19520
 Alpha  occ. eigenvalues --  -10.19517 -10.19463 -10.19301 -10.19237 -10.19192
 Alpha  occ. eigenvalues --  -10.18961 -10.18948 -10.18769 -10.18748 -10.18607
 Alpha  occ. eigenvalues --  -10.18368 -10.18283 -10.18261 -10.18156 -10.18135
 Alpha  occ. eigenvalues --  -10.18047 -10.18035 -10.17844 -10.17631 -10.17547
 Alpha  occ. eigenvalues --  -10.17153 -10.17098 -10.16948 -10.16854 -10.16842
 Alpha  occ. eigenvalues --   -0.85222  -0.84232  -0.83966  -0.83122  -0.82268
 Alpha  occ. eigenvalues --   -0.81701  -0.78783  -0.78537  -0.78072  -0.77094
 Alpha  occ. eigenvalues --   -0.76237  -0.75281  -0.74021  -0.72050  -0.71069
 Alpha  occ. eigenvalues --   -0.70841  -0.68357  -0.68319  -0.67905  -0.67851
 Alpha  occ. eigenvalues --   -0.67718  -0.67078  -0.66469  -0.66149  -0.65620
 Alpha  occ. eigenvalues --   -0.63511  -0.62067  -0.60856  -0.59185  -0.57730
 Alpha  occ. eigenvalues --   -0.56742  -0.55894  -0.55495  -0.54591  -0.53176
 Alpha  occ. eigenvalues --   -0.52747  -0.52036  -0.50668  -0.49388  -0.48974
 Alpha  occ. eigenvalues --   -0.48002  -0.47663  -0.47075  -0.46360  -0.46189
 Alpha  occ. eigenvalues --   -0.45763  -0.45579  -0.44828  -0.44405  -0.44053
 Alpha  occ. eigenvalues --   -0.43629  -0.43296  -0.42748  -0.42577  -0.41929
 Alpha  occ. eigenvalues --   -0.41888  -0.41660  -0.41470  -0.41290  -0.40955
 Alpha  occ. eigenvalues --   -0.40738  -0.40455  -0.40066  -0.39858  -0.39576
 Alpha  occ. eigenvalues --   -0.39137  -0.38919  -0.38638  -0.38254  -0.38000
 Alpha  occ. eigenvalues --   -0.37395  -0.37081  -0.36988  -0.36461  -0.36414
 Alpha  occ. eigenvalues --   -0.36067  -0.35899  -0.35857  -0.35338  -0.35118
 Alpha  occ. eigenvalues --   -0.35042  -0.34722  -0.34009  -0.33789  -0.33702
 Alpha  occ. eigenvalues --   -0.33065  -0.32889  -0.32714  -0.32433  -0.32221
 Alpha  occ. eigenvalues --   -0.32142  -0.31918  -0.31641  -0.31497  -0.31437
 Alpha  occ. eigenvalues --   -0.31208  -0.30332  -0.29755  -0.29406  -0.28428
 Alpha  occ. eigenvalues --   -0.27160  -0.26711  -0.26077  -0.23849  -0.23001
 Alpha  occ. eigenvalues --   -0.20674  -0.19075  -0.15911
 Alpha virt. eigenvalues --   -0.08905  -0.04922  -0.02512   0.01086   0.02319
 Alpha virt. eigenvalues --    0.04075   0.06073   0.06555   0.06695   0.07047
 Alpha virt. eigenvalues --    0.07959   0.08413   0.08454   0.08576   0.09290

 Mulliken charges:
               1
     1  C   -0.011155
     2  C   -0.033236
     3  C   -0.149163
     4  C   -0.184789
     5  C   -0.184406
     6  C   -0.181058
     7  C    0.088257
     8  C    0.073279
     9  C   -0.247537
    10  C   -0.207861
    11  C    0.076713
    12  C    0.013844
    13  C   -0.293126
    14  C   -0.320753
    15  C   -0.260246
    16  C   -0.294702
    17  C   -0.173936
    18  C   -0.147176
    19  C   -0.353598
    20  C   -0.344638
    21  C   -0.045410
    22  C   -0.089795
    23  C    0.160791
    24  C    0.119814
    25  C   -0.378329
    26  C   -0.384841
    27  C   -0.143748
    28  C   -0.129907
    29  C   -0.076408
    30  C   -0.075754
    31  C   -0.106863
    32  C   -0.093585
    33  C    0.105476
    34  C    0.135534
    35  C   -0.387447
    36  C   -0.379567
    37  C   -0.112183
    38  C   -0.060629
    39  C   -0.081004
    40  C   -0.131532
    41  H    0.108614
    42  H    0.055092
    43  H    0.092274
    44  H    0.088896
    45  H    0.070772
    46  H    0.109159
    47  H    0.096579
    48  H    0.104049
    49  H    0.101577
    50  H    0.076700
    51  H    0.113354
    52  H    0.104241
    53  H    0.085056
    54  H    0.096533
    55  H    0.074097
    56  H    0.100288
    57  H    0.115204
    58  H    0.107478
    59  H    0.070099
    60  H    0.063893
    61  H    0.098569
    62  H    0.117968
    63  H    0.086192
    64  H    0.115339
    65  H    0.101212
    66  H    0.078667
    67  H    0.121417
    68  H    0.076627
    69  H    0.124946
    70  H    0.133299
    71  H    0.134194
    72  H    0.074436
    73  H    0.061447
    74  H    0.072974
    75  H    0.116270
    76  H    0.097956
    77  H    0.095136
    78  H    0.113018
    79  H    0.128409
    80  H    0.113958
    81  H    0.061976
    82  H    0.067682
    83  H    0.077327
    84  H    0.064944
    85  H    0.081366
    86  H    0.068218
    87  H    0.117719
    88  H    0.108333
    89  H    0.125656
    90  H    0.109109
    91  H    0.117462
    92  H    0.103157
    93  H    0.073366
    94  H    0.058120
    95  H    0.087527
    96  H    0.072722
 Sum of Mulliken charges =  -0.00000

 Dipole moment (field-independent basis, Debye):
    X=              1.4291    Y=             -0.3200    Z=              0.3598  Tot=              1.5080
 Quadrupole moment (field-independent basis, Debye-Ang):
   XX=           -216.1801   YY=           -233.8772   ZZ=           -255.0937
   XY=             -3.9257   XZ=              0.7808   YZ=             -1.2999

 Normal termination of Gaussian 16 at Sun Jul 28 13:31:44 2019.
