 Gaussian 16, Revision A.03,
 Gaussian 16:  ES64L-G16RevA.03 25-Dec-2016

 ---------------------------------
 # td=(NStates=1) B3LYP/6-31G(d,p)
 ---------------------------------

 --
 TD
 --
 Symbolic Z-matrix:
 Charge =  0 Multiplicity = 1

                         Standard orientation:
 ---------------------------------------------------------------------
 Center     Atomic      Atomic             Coordinates (Angstroms)
 Number     Number       Type             X           Y           Z
 ---------------------------------------------------------------------
      1          6           0      -12.245999    0.591070    0.627384
      2          6           0       12.167075   -0.082720   -0.904356
      3          6           0      -13.594006   -0.276691    0.506212
      4          6           0       13.061810    1.020919   -1.246365
      5          6           0      -13.267039   -1.807582    0.686783
      6          6           0       13.497148    1.914640   -0.118172
      7          6           0      -11.115992   -0.024098   -0.168575
      8          6           0       11.090510    0.394376    0.139407
      9          6           0      -12.314268   -2.195226   -0.453005
     10          6           0       12.273064    2.583458    0.536437
     11          6           0      -11.176367   -1.295416   -0.720514
     12          6           0       11.189329    1.595603    0.674999
     13          6           0      -11.786505    0.466281    2.096489
     14          6           0      -12.525845    2.083613    0.278189
     15          6           0       12.983703   -1.232563   -0.124489
     16          6           0       11.612007   -0.723667   -2.167520
     17          6           0       -9.914481    0.833429   -0.414965
     18          6           0       10.040965   -0.512964    0.291863
     19          6           0      -10.145282   -1.921744   -1.684761
     20          6           0       10.212087    2.108538    1.785004
     21          6           0       -8.709369    0.432247   -0.249536
     22          6           0        8.596468   -0.333479    0.313771
     23          6           0       -7.432233    1.316187   -0.457743
     24          6           0        7.542993   -1.178878    0.522010
     25          6           0       -7.572106    2.846667   -0.671225
     26          6           0        7.950257   -2.624935    0.841715
     27          6           0       -6.202010    0.669682   -0.216028
     28          6           0        6.284317   -0.814000    0.427625
     29          6           0       -4.909929    1.368966   -0.344355
     30          6           0        5.093756   -1.574453    0.586826
     31          6           0       -3.783750    0.754300   -0.261511
     32          6           0        3.804269   -0.992105    0.293197
     33          6           0       -2.457817    1.388440   -0.369390
     34          6           0        2.579248   -1.771594    0.219006
     35          6           0       -2.364232    2.900598   -0.436466
     36          6           0        2.627381   -3.120087    0.740445
     37          6           0       -1.295246    0.620152   -0.402634
     38          6           0        1.333494   -1.118027   -0.132937
     39          6           0       -1.167886   -0.823869   -0.285917
     40          6           0       -0.030630   -1.558348   -0.046186
     41          1           0      -13.990170   -0.048586   -0.491052
     42          1           0      -14.523311    0.010868    1.244682
     43          1           0       12.490125    1.523814   -1.995728
     44          1           0       13.894540    0.614214   -1.754056
     45          1           0      -14.044156   -2.583166    0.582701
     46          1           0      -12.993255   -1.831527    1.766636
     47          1           0       14.282547    2.629726   -0.569332
     48          1           0       13.925018    1.282218    0.480230
     49          1           0      -13.251368   -2.338881   -1.269926
     50          1           0      -11.898572   -3.138043   -0.369418
     51          1           0       11.982012    3.595270    0.141389
     52          1           0       12.446828    2.738613    1.697259
     53          1           0      -11.548516   -0.536610    2.525370
     54          1           0      -12.449246    0.628862    2.830082
     55          1           0      -10.861640    1.263425    2.297086
     56          1           0      -12.841554    2.170213   -0.776669
     57          1           0      -11.710382    2.639415    0.428428
     58          1           0      -13.322812    2.261879    0.875643
     59          1           0       13.423828   -0.826523    0.883649
     60          1           0       13.607527   -1.803443   -0.683767
     61          1           0       12.087784   -2.082980    0.142466
     62          1           0       10.936285   -0.061644   -2.799416
     63          1           0       10.993778   -1.615882   -1.756926
     64          1           0       12.383242   -1.015948   -2.878334
     65          1           0      -10.226053    1.918139   -0.762828
     66          1           0       10.483769   -1.479174    0.568809
     67          1           0       -9.258608   -1.214725   -1.927271
     68          1           0      -10.764060   -2.235375   -2.590797
     69          1           0       -9.659910   -2.806276   -1.237383
     70          1           0        9.726951    1.295503    2.280707
     71          1           0        9.260710    2.888374    1.418824
     72          1           0       10.610647    2.601349    2.735715
     73          1           0       -8.421931   -0.542843    0.132189
     74          1           0        8.472179    0.641522    0.180067
     75          1           0       -8.145456    3.239854   -1.448220
     76          1           0       -6.603897    3.264199   -0.609406
     77          1           0       -8.160245    3.185266    0.045420
     78          1           0        8.732473   -2.572602    1.620548
     79          1           0        8.403660   -3.120916   -0.048073
     80          1           0        7.209903   -3.360786    1.025262
     81          1           0       -6.231710   -0.457902    0.147595
     82          1           0        6.131383    0.151136    0.241190
     83          1           0       -5.187410    2.472428   -0.661218
     84          1           0        5.116686   -2.533569    0.830106
     85          1           0       -3.761476   -0.466666   -0.178634
     86          1           0        3.795367   -0.040901   -0.118785
     87          1           0       -2.747289    3.249496   -1.392607
     88          1           0       -1.310146    3.211373   -0.491089
     89          1           0       -3.007842    3.452367    0.357155
     90          1           0        3.411530   -3.389750    1.602174
     91          1           0        3.095072   -3.893134   -0.201735
     92          1           0        1.502871   -3.582571    0.979826
     93          1           0       -0.326744    1.267648   -0.668176
     94          1           0        1.514319   -0.096324   -0.496922
     95          1           0       -2.123594   -1.378396   -0.143200
     96          1           0       -0.123008   -2.582341    0.115496
 ---------------------------------------------------------------------

 SCF Done:  E(RB3LYP) =  -1557.55490757     A.U. after   16 cycles

 Excitation energies and oscillator strengths:

 Excited State   1:      Singlet-A      2.1400 eV  579.37 nm  f=3.0287  <S**2>=0.000
     148 ->149         0.70129
     148 <-149        -0.12354
 This state for optimization and/or second-order correction.
 Total Energy, E(TD-HF/TD-DFT) =  -1557.47626404
 Copying the excited state density for this state as the 1-particle RhoCI density.

 The electronic state is 1-A.
 Alpha  occ. eigenvalues --  -10.21877 -10.21355 -10.20753 -10.20702 -10.20662
 Alpha  occ. eigenvalues --  -10.20143 -10.20125 -10.19844 -10.19634 -10.19596
 Alpha  occ. eigenvalues --  -10.19550 -10.19477 -10.19431 -10.19089 -10.19053
 Alpha  occ. eigenvalues --  -10.19034 -10.19009 -10.18982 -10.18969 -10.18957
 Alpha  occ. eigenvalues --  -10.18905 -10.18762 -10.18711 -10.18672 -10.18655
 Alpha  occ. eigenvalues --  -10.18649 -10.18585 -10.18574 -10.18525 -10.18415
 Alpha  occ. eigenvalues --  -10.17874 -10.17868 -10.17585 -10.17467 -10.17336
 Alpha  occ. eigenvalues --  -10.17326 -10.17028 -10.16882 -10.16319 -10.15716
 Alpha  occ. eigenvalues --   -0.85984  -0.84666  -0.83690  -0.82974  -0.81802
 Alpha  occ. eigenvalues --   -0.80797  -0.78914  -0.78571  -0.78425  -0.77877
 Alpha  occ. eigenvalues --   -0.77049  -0.75134  -0.74230  -0.72783  -0.71214
 Alpha  occ. eigenvalues --   -0.69721  -0.69589  -0.69172  -0.68593  -0.67408
 Alpha  occ. eigenvalues --   -0.67264  -0.67074  -0.66501  -0.66201  -0.65726
 Alpha  occ. eigenvalues --   -0.63389  -0.61559  -0.60549  -0.58886  -0.58162
 Alpha  occ. eigenvalues --   -0.56781  -0.56105  -0.55472  -0.54342  -0.53671
 Alpha  occ. eigenvalues --   -0.52319  -0.52180  -0.50560  -0.49870  -0.48985
 Alpha  occ. eigenvalues --   -0.48463  -0.47561  -0.47287  -0.46664  -0.46437
 Alpha  occ. eigenvalues --   -0.45861  -0.45574  -0.44915  -0.44521  -0.44422
 Alpha  occ. eigenvalues --   -0.43561  -0.42914  -0.42689  -0.42286  -0.41878
 Alpha  occ. eigenvalues --   -0.41492  -0.41162  -0.41000  -0.40887  -0.40721
 Alpha  occ. eigenvalues --   -0.40537  -0.40364  -0.40195  -0.39945  -0.39212
 Alpha  occ. eigenvalues --   -0.38852  -0.38656  -0.38581  -0.38338  -0.38107
 Alpha  occ. eigenvalues --   -0.37805  -0.37463  -0.37279  -0.37058  -0.36895
 Alpha  occ. eigenvalues --   -0.36462  -0.36294  -0.36210  -0.35596  -0.35355
 Alpha  occ. eigenvalues --   -0.35075  -0.34947  -0.34564  -0.34496  -0.34372
 Alpha  occ. eigenvalues --   -0.33731  -0.33067  -0.33013  -0.32899  -0.32779
 Alpha  occ. eigenvalues --   -0.32531  -0.31907  -0.31787  -0.30979  -0.30635
 Alpha  occ. eigenvalues --   -0.30298  -0.30012  -0.29958  -0.29183  -0.28822
 Alpha  occ. eigenvalues --   -0.28391  -0.27434  -0.25739  -0.24164  -0.22726
 Alpha  occ. eigenvalues --   -0.21046  -0.19181  -0.16277
 Alpha virt. eigenvalues --   -0.08578  -0.04778  -0.02193   0.00389   0.02325
 Alpha virt. eigenvalues --    0.03748   0.05757   0.06009   0.06789   0.07161
 Alpha virt. eigenvalues --    0.07488   0.08034   0.08372   0.08529   0.08921

 Mulliken charges:
               1
     1  C   -0.030025
     2  C   -0.012894
     3  C   -0.183165
     4  C   -0.168257
     5  C   -0.184837
     6  C   -0.178527
     7  C    0.070699
     8  C    0.116312
     9  C   -0.196553
    10  C   -0.215038
    11  C    0.073283
    12  C    0.050973
    13  C   -0.285094
    14  C   -0.300595
    15  C   -0.291064
    16  C   -0.295855
    17  C   -0.131103
    18  C   -0.162692
    19  C   -0.364707
    20  C   -0.360532
    21  C   -0.078355
    22  C   -0.105785
    23  C    0.069641
    24  C    0.167869
    25  C   -0.368945
    26  C   -0.381781
    27  C   -0.125410
    28  C   -0.115493
    29  C   -0.067763
    30  C   -0.060607
    31  C   -0.104857
    32  C   -0.121686
    33  C    0.117773
    34  C    0.150709
    35  C   -0.374594
    36  C   -0.365096
    37  C   -0.131843
    38  C   -0.117938
    39  C   -0.083422
    40  C   -0.082076
    41  H    0.091088
    42  H    0.063203
    43  H    0.089358
    44  H    0.084503
    45  H    0.087094
    46  H    0.089183
    47  H    0.076558
    48  H    0.108935
    49  H    0.068857
    50  H    0.103557
    51  H    0.110302
    52  H    0.088983
    53  H    0.100546
    54  H    0.105776
    55  H    0.067931
    56  H    0.099789
    57  H    0.110765
    58  H    0.116685
    59  H    0.095628
    60  H    0.113041
    61  H    0.055993
    62  H    0.096491
    63  H    0.093818
    64  H    0.102211
    65  H    0.076502
    66  H    0.077960
    67  H    0.112305
    68  H    0.108156
    69  H    0.109898
    70  H    0.123404
    71  H    0.069701
    72  H    0.095863
    73  H    0.091946
    74  H    0.068384
    75  H    0.123004
    76  H    0.107930
    77  H    0.137973
    78  H    0.117365
    79  H    0.113512
    80  H    0.106071
    81  H    0.073064
    82  H    0.063224
    83  H    0.080417
    84  H    0.065490
    85  H    0.074065
    86  H    0.078661
    87  H    0.124705
    88  H    0.110040
    89  H    0.112789
    90  H    0.116739
    91  H    0.075724
    92  H    0.091564
    93  H    0.069120
    94  H    0.073579
    95  H    0.079667
    96  H    0.080211
 Sum of Mulliken charges =  -0.00000

 Dipole moment (field-independent basis, Debye):
    X=             -1.1382    Y=              0.5345    Z=             -0.0623  Tot=              1.2590
 Quadrupole moment (field-independent basis, Debye-Ang):
   XX=           -216.1773   YY=           -234.5563   ZZ=           -255.0856
   XY=             -4.4380   XZ=             -3.9081   YZ=             -4.2956

 Normal termination of Gaussian 16 at Sat Jul 27 06:18:26 2019.
