 Gaussian 16, Revision A.03,
 Gaussian 16:  ES64L-G16RevA.03 25-Dec-2016

 ---------------------------------
 # td=(NStates=1) B3LYP/6-31G(d,p)
 ---------------------------------

 --
 TD
 --
 Symbolic Z-matrix:
 Charge =  0 Multiplicity = 1

                         Standard orientation:
 ---------------------------------------------------------------------
 Center     Atomic      Atomic             Coordinates (Angstroms)
 Number     Number       Type             X           Y           Z
 ---------------------------------------------------------------------
      1          6           0       12.197430    0.531326   -0.519937
      2          6           0      -12.130058    0.007969    0.930173
      3          6           0       13.445463   -0.329897   -0.333829
      4          6           0      -12.861712    1.226130    1.454961
      5          6           0       13.133207   -1.900627   -0.316550
      6          6           0      -13.211875    2.188878    0.210743
      7          6           0       11.013490    0.011555    0.393177
      8          6           0      -10.955467    0.434093   -0.046246
      9          6           0       12.119340   -2.108935    0.900540
     10          6           0      -11.943395    2.637641   -0.349691
     11          6           0       10.969179   -1.196794    1.003886
     12          6           0      -10.894020    1.627588   -0.635649
     13          6           0       11.699494    0.535775   -2.067667
     14          6           0       12.700168    1.874431   -0.117175
     15          6           0      -13.051390   -0.912795    0.088821
     16          6           0      -11.687354   -0.798551    2.240365
     17          6           0        9.847701    0.931250    0.406881
     18          6           0       -9.901307   -0.641665   -0.218796
     19          6           0        9.865715   -1.541022    2.036990
     20          6           0       -9.757784    2.112110   -1.467105
     21          6           0        8.501085    0.540274    0.287861
     22          6           0       -8.579745   -0.346899   -0.197136
     23          6           0        7.387538    1.329528    0.344756
     24          6           0       -7.474712   -1.402206   -0.394296
     25          6           0        7.699701    2.878257    0.454458
     26          6           0       -7.901723   -2.864607   -0.737805
     27          6           0        6.162237    0.776792    0.138750
     28          6           0       -6.187690   -0.918674   -0.381803
     29          6           0        4.879210    1.467099    0.137877
     30          6           0       -5.000521   -1.769073   -0.500746
     31          6           0        3.691969    0.744210   -0.025845
     32          6           0       -3.762180   -1.136228   -0.309008
     33          6           0        2.284516    1.278274   -0.026176
     34          6           0       -2.429616   -1.811327   -0.427506
     35          6           0        2.126849    2.682963    0.241350
     36          6           0       -2.544213   -3.265424   -0.633018
     37          6           0        1.169251    0.423928   -0.103569
     38          6           0       -1.289236   -1.080215   -0.458962
     39          6           0        1.181260   -0.962666   -0.581249
     40          6           0       -0.017022   -1.586751   -0.571743
     41          1           0       13.943101   -0.057147    0.690826
     42          1           0       14.109964   -0.300852   -1.204887
     43          1           0      -12.434324    1.791748    2.354208
     44          1           0      -13.827329    1.024749    1.985472
     45          1           0       14.065261   -2.609469    0.010197
     46          1           0       12.651422   -2.322887   -1.282987
     47          1           0      -14.048232    2.943608    0.398828
     48          1           0      -13.888439    1.527512   -0.484158
     49          1           0       12.581144   -2.186220    1.911795
     50          1           0       11.657454   -3.049916    0.755447
     51          1           0      -11.774125    3.517500    0.422253
     52          1           0      -12.334453    3.102686   -1.155806
     53          1           0       11.474287   -0.471433   -2.594772
     54          1           0       12.431912    1.163703   -2.684376
     55          1           0       10.645321    1.173986   -2.145622
     56          1           0       12.703718    1.996215    0.950949
     57          1           0       11.856267    2.594875   -0.569608
     58          1           0       13.855436    2.116635   -0.485556
     59          1           0      -13.595495   -0.365787   -0.761397
     60          1           0      -13.904311   -1.086918    0.634501
     61          1           0      -12.714839   -2.029313   -0.252603
     62          1           0      -11.002916   -0.197062    3.122288
     63          1           0      -11.396767   -1.927558    2.093723
     64          1           0      -12.567052   -1.248290    2.797182
     65          1           0        9.866313    1.933228    0.712957
     66          1           0      -10.438411   -1.506827   -0.506578
     67          1           0        9.101239   -0.703769    2.264806
     68          1           0       10.625807   -1.999598    2.813057
     69          1           0        9.318303   -2.376610    1.631714
     70          1           0       -9.208351    1.261789   -1.775186
     71          1           0       -9.254363    2.959891   -0.830145
     72          1           0      -10.097733    2.425929   -2.459254
     73          1           0        8.334647   -0.664448    0.060384
     74          1           0       -8.120216    0.684643   -0.047732
     75          1           0        7.997402    3.073023    1.278088
     76          1           0        6.619928    3.380314    0.455072
     77          1           0        8.330278    3.141104   -0.389319
     78          1           0       -8.740770   -2.527569   -1.445034
     79          1           0       -8.328960   -3.195082    0.113547
     80          1           0       -7.002913   -3.465665   -1.117165
     81          1           0        6.113875   -0.232754    0.010033
     82          1           0       -5.860566    0.032474   -0.663093
     83          1           0        4.754684    2.537849    0.506684
     84          1           0       -5.074251   -2.736524   -0.809410
     85          1           0        3.948005   -0.238461   -0.345366
     86          1           0       -4.010953   -0.125281   -0.047252
     87          1           0        2.476939    2.979045    1.328102
     88          1           0        1.060054    3.079180    0.238233
     89          1           0        2.975150    3.325539   -0.575708
     90          1           0       -2.786895   -3.644513   -1.605272
     91          1           0       -3.144192   -3.632791    0.150845
     92          1           0       -1.665717   -3.787889   -0.265995
     93          1           0        0.178484    0.930267   -0.260734
     94          1           0       -1.417189    0.164462   -0.129889
     95          1           0        2.039833   -1.495930   -0.959353
     96          1           0       -0.039174   -2.669672   -0.937437
 ---------------------------------------------------------------------

 SCF Done:  E(RB3LYP) =  -1557.49147038     A.U. after   15 cycles

 Excitation energies and oscillator strengths:

 Excited State   1:      Singlet-A      2.2966 eV  539.86 nm  f=2.7164  <S**2>=0.000
     148 ->149         0.70775
 This state for optimization and/or second-order correction.
 Total Energy, E(TD-HF/TD-DFT) =  -1557.40707184
 Copying the excited state density for this state as the 1-particle RhoCI density.

 The electronic state is 1-A.
 Alpha  occ. eigenvalues --  -10.21580 -10.20877 -10.20440 -10.20387 -10.20358
 Alpha  occ. eigenvalues --  -10.20300 -10.20270 -10.20145 -10.19742 -10.19710
 Alpha  occ. eigenvalues --  -10.19606 -10.19538 -10.19234 -10.19113 -10.19110
 Alpha  occ. eigenvalues --  -10.19024 -10.18970 -10.18918 -10.18869 -10.18850
 Alpha  occ. eigenvalues --  -10.18778 -10.18762 -10.18724 -10.18644 -10.18542
 Alpha  occ. eigenvalues --  -10.18491 -10.18450 -10.18393 -10.18356 -10.18255
 Alpha  occ. eigenvalues --  -10.18199 -10.18146 -10.18109 -10.18092 -10.17902
 Alpha  occ. eigenvalues --  -10.17809 -10.17470 -10.17412 -10.17379 -10.17045
 Alpha  occ. eigenvalues --   -0.84809  -0.84223  -0.83603  -0.82784  -0.81766
 Alpha  occ. eigenvalues --   -0.80910  -0.78794  -0.78474  -0.78382  -0.77333
 Alpha  occ. eigenvalues --   -0.76213  -0.74864  -0.74086  -0.71876  -0.70847
 Alpha  occ. eigenvalues --   -0.70354  -0.69437  -0.68459  -0.67566  -0.67354
 Alpha  occ. eigenvalues --   -0.66887  -0.66242  -0.66215  -0.65861  -0.65504
 Alpha  occ. eigenvalues --   -0.62031  -0.61434  -0.58981  -0.58271  -0.57147
 Alpha  occ. eigenvalues --   -0.55961  -0.55740  -0.55246  -0.54517  -0.53249
 Alpha  occ. eigenvalues --   -0.52663  -0.51213  -0.49589  -0.49362  -0.48335
 Alpha  occ. eigenvalues --   -0.47901  -0.46891  -0.46666  -0.45917  -0.45624
 Alpha  occ. eigenvalues --   -0.45379  -0.44929  -0.44646  -0.44362  -0.44304
 Alpha  occ. eigenvalues --   -0.44232  -0.43689  -0.42988  -0.42735  -0.42482
 Alpha  occ. eigenvalues --   -0.42049  -0.41971  -0.41698  -0.41258  -0.41159
 Alpha  occ. eigenvalues --   -0.41022  -0.39483  -0.39009  -0.38983  -0.38762
 Alpha  occ. eigenvalues --   -0.38578  -0.38463  -0.38022  -0.37548  -0.37440
 Alpha  occ. eigenvalues --   -0.37306  -0.37285  -0.36416  -0.36245  -0.36162
 Alpha  occ. eigenvalues --   -0.35918  -0.35674  -0.35354  -0.34994  -0.34969
 Alpha  occ. eigenvalues --   -0.34872  -0.34656  -0.34235  -0.34071  -0.33887
 Alpha  occ. eigenvalues --   -0.33576  -0.33405  -0.33066  -0.32830  -0.32215
 Alpha  occ. eigenvalues --   -0.31968  -0.31502  -0.31253  -0.30845  -0.30079
 Alpha  occ. eigenvalues --   -0.29641  -0.29054  -0.28804  -0.28631  -0.27985
 Alpha  occ. eigenvalues --   -0.27907  -0.27295  -0.25770  -0.23741  -0.22841
 Alpha  occ. eigenvalues --   -0.21148  -0.18743  -0.16617
 Alpha virt. eigenvalues --   -0.07699  -0.05096  -0.01866   0.00630   0.02869
 Alpha virt. eigenvalues --    0.03755   0.05533   0.06170   0.06847   0.07246
 Alpha virt. eigenvalues --    0.07555   0.07654   0.07865   0.08525   0.09151

 Mulliken charges:
               1
     1  C    0.034613
     2  C    0.031171
     3  C   -0.168557
     4  C   -0.180441
     5  C   -0.194221
     6  C   -0.212913
     7  C    0.060913
     8  C    0.049345
     9  C   -0.234041
    10  C   -0.177526
    11  C    0.061374
    12  C    0.061410
    13  C   -0.301565
    14  C   -0.292559
    15  C   -0.310939
    16  C   -0.298240
    17  C   -0.154144
    18  C   -0.127891
    19  C   -0.344942
    20  C   -0.356292
    21  C   -0.103987
    22  C   -0.087932
    23  C    0.105181
    24  C    0.056279
    25  C   -0.351383
    26  C   -0.350587
    27  C   -0.119586
    28  C   -0.148886
    29  C   -0.084848
    30  C   -0.063121
    31  C   -0.109623
    32  C   -0.120966
    33  C    0.125300
    34  C    0.087483
    35  C   -0.357426
    36  C   -0.388389
    37  C   -0.135017
    38  C   -0.070511
    39  C   -0.080490
    40  C   -0.096185
    41  H    0.085965
    42  H    0.096682
    43  H    0.088151
    44  H    0.079714
    45  H    0.072916
    46  H    0.095619
    47  H    0.079412
    48  H    0.069549
    49  H    0.100964
    50  H    0.103865
    51  H    0.086253
    52  H    0.105380
    53  H    0.099481
    54  H    0.095009
    55  H    0.082517
    56  H    0.115305
    57  H    0.078850
    58  H    0.083341
    59  H    0.102237
    60  H    0.113713
    61  H    0.084408
    62  H    0.085866
    63  H    0.078399
    64  H    0.095411
    65  H    0.085869
    66  H    0.096368
    67  H    0.127960
    68  H    0.087609
    69  H    0.117678
    70  H    0.122456
    71  H    0.106525
    72  H    0.100673
    73  H    0.054062
    74  H    0.102717
    75  H    0.137626
    76  H    0.081410
    77  H    0.130469
    78  H    0.122927
    79  H    0.144813
    80  H    0.109331
    81  H    0.075217
    82  H    0.096665
    83  H    0.081050
    84  H    0.070219
    85  H    0.075583
    86  H    0.073530
    87  H    0.111442
    88  H    0.106265
    89  H    0.071136
    90  H    0.132188
    91  H    0.130643
    92  H    0.108388
    93  H    0.088814
    94  H    0.054366
    95  H    0.095575
    96  H    0.071557
 Sum of Mulliken charges =  -0.00000

 Dipole moment (field-independent basis, Debye):
    X=             -1.3343    Y=             -1.0111    Z=             -0.0862  Tot=              1.6764
 Quadrupole moment (field-independent basis, Debye-Ang):
   XX=           -215.5066   YY=           -236.1756   ZZ=           -254.5096
   XY=             -0.5629   XZ=              4.4503   YZ=              4.6419

 Normal termination of Gaussian 16 at Wed Jul 31 08:05:52 2019.
