 Gaussian 16, Revision A.03,
 Gaussian 16:  ES64L-G16RevA.03 25-Dec-2016

 ---------------------------------
 # td=(NStates=1) B3LYP/6-31G(d,p)
 ---------------------------------

 --
 TD
 --
 Symbolic Z-matrix:
 Charge =  0 Multiplicity = 1

                         Standard orientation:
 ---------------------------------------------------------------------
 Center     Atomic      Atomic             Coordinates (Angstroms)
 Number     Number       Type             X           Y           Z
 ---------------------------------------------------------------------
      1          6           0       12.126502   -0.591755    0.780947
      2          6           0      -12.063094   -0.030099   -0.803225
      3          6           0       13.477814    0.175426    0.669476
      4          6           0      -12.953790   -1.105384   -1.268055
      5          6           0       13.297215    1.567757    0.798580
      6          6           0      -13.302829   -2.138893   -0.242832
      7          6           0       11.017721    0.029268   -0.072986
      8          6           0      -10.995159   -0.417270    0.158360
      9          6           0       12.366332    2.095833   -0.332931
     10          6           0      -12.115967   -2.669284    0.565523
     11          6           0       11.236014    1.157400   -0.777470
     12          6           0      -11.113902   -1.619558    0.912011
     13          6           0       11.602936   -0.659276    2.255402
     14          6           0       12.462099   -2.087419    0.302810
     15          6           0      -13.058644    1.106294   -0.189936
     16          6           0      -11.480521    0.668489   -2.042383
     17          6           0        9.808961   -0.874622   -0.282956
     18          6           0       -9.987741    0.589206    0.289496
     19          6           0       10.342847    1.867995   -1.862498
     20          6           0      -10.173950   -1.951588    1.990697
     21          6           0        8.594712   -0.395069   -0.492264
     22          6           0       -8.586519    0.277052    0.438358
     23          6           0        7.343070   -1.198978   -0.570642
     24          6           0       -7.588856    1.256941    0.509600
     25          6           0        7.652078   -2.700879   -0.748111
     26          6           0       -7.835296    2.783882    0.580764
     27          6           0        6.169774   -0.551566   -0.450882
     28          6           0       -6.229367    0.927525    0.352725
     29          6           0        4.875324   -1.252332   -0.581343
     30          6           0       -5.031487    1.707738    0.393276
     31          6           0        3.658261   -0.566482   -0.393591
     32          6           0       -3.815194    1.075763    0.334303
     33          6           0        2.393693   -1.240556   -0.422490
     34          6           0       -2.600350    1.788122    0.438443
     35          6           0        2.263095   -2.718553   -0.764673
     36          6           0       -2.567636    3.300784    0.402614
     37          6           0        1.186440   -0.596357   -0.272817
     38          6           0       -1.333129    1.040105    0.328695
     39          6           0        1.071659    0.809424    0.071248
     40          6           0       -0.026487    1.590645    0.226683
     41          1           0       13.920186   -0.153169   -0.152462
     42          1           0       14.098039   -0.084625    1.568778
     43          1           0      -12.376413   -1.883097   -2.046485
     44          1           0      -13.914877   -0.892098   -1.796865
     45          1           0       14.098604    2.056672    0.788410
     46          1           0       12.790665    1.836268    1.742266
     47          1           0      -13.912902   -2.995594   -0.542153
     48          1           0      -14.203659   -1.610279    0.263023
     49          1           0       12.938821    2.328622   -1.337356
     50          1           0       12.013954    3.148620    0.029806
     51          1           0      -11.755593   -3.568037   -0.036677
     52          1           0      -12.421233   -3.023404    1.534089
     53          1           0       11.559801    0.363199    2.722936
     54          1           0       12.040624   -1.450920    2.924291
     55          1           0       10.600393   -0.937146    2.025378
     56          1           0       12.725656   -2.003168   -0.696653
     57          1           0       11.818916   -2.958270    0.443147
     58          1           0       13.486991   -2.390310    0.844636
     59          1           0      -13.500245    0.802324    0.625356
     60          1           0      -13.815668    1.421834   -0.793905
     61          1           0      -12.361286    1.983383    0.018897
     62          1           0      -10.654711    0.050500   -2.505104
     63          1           0      -10.866982    1.686432   -1.710669
     64          1           0      -12.292034    0.910670   -2.748090
     65          1           0       10.123992   -2.001888   -0.290634
     66          1           0      -10.320475    1.611808    0.367927
     67          1           0        9.670312    1.057255   -2.260555
     68          1           0       10.964565    2.214155   -2.624361
     69          1           0        9.822474    2.792599   -1.613653
     70          1           0       -9.357904   -1.137417    2.127488
     71          1           0       -9.656536   -2.963031    1.823946
     72          1           0      -10.304907   -2.326666    2.946209
     73          1           0        8.509026    0.576226   -0.266917
     74          1           0       -8.374675   -0.706012    0.247069
     75          1           0        8.101424   -2.684708   -1.730715
     76          1           0        6.692426   -3.197075   -0.890464
     77          1           0        8.253145   -3.512206   -0.014813
     78          1           0       -8.470958    2.950617    1.467547
     79          1           0       -8.301999    2.982964   -0.414886
     80          1           0       -6.887098    3.337734    0.837851
     81          1           0        6.008490    0.509619   -0.232054
     82          1           0       -5.883482   -0.395253    0.194343
     83          1           0        4.689160   -2.301922   -0.842587
     84          1           0       -5.025000    2.797518    0.474834
     85          1           0        3.569247    0.467690   -0.561166
     86          1           0       -3.877732   -0.010196    0.438434
     87          1           0        2.627477   -2.815468   -1.931439
     88          1           0        1.102206   -2.837878   -0.685658
     89          1           0        2.791536   -3.355854   -0.238632
     90          1           0       -3.316491    3.762571    1.245553
     91          1           0       -2.972489    3.558125   -0.706244
     92          1           0       -1.480788    3.551246    0.526971
     93          1           0        0.150901   -1.212323   -0.454792
     94          1           0       -1.579981   -0.077762    0.352069
     95          1           0        2.043533    1.404638   -0.183567
     96          1           0        0.153767    2.624124    0.360746
 ---------------------------------------------------------------------

 SCF Done:  E(RB3LYP) =  -1557.55585738     A.U. after   16 cycles

 Excitation energies and oscillator strengths:

 Excited State   1:      Singlet-A      1.9692 eV  629.62 nm  f=2.8582  <S**2>=0.000
     148 ->149         0.69963
     148 ->150         0.12873
     148 <-149        -0.12533
 This state for optimization and/or second-order correction.
 Total Energy, E(TD-HF/TD-DFT) =  -1557.48349085
 Copying the excited state density for this state as the 1-particle RhoCI density.

 The electronic state is 1-A.
 Alpha  occ. eigenvalues --  -10.20913 -10.20809 -10.20804 -10.20294 -10.20070
 Alpha  occ. eigenvalues --  -10.20047 -10.20008 -10.19986 -10.19951 -10.19948
 Alpha  occ. eigenvalues --  -10.19895 -10.19892 -10.19764 -10.19615 -10.19409
 Alpha  occ. eigenvalues --  -10.19400 -10.19153 -10.19061 -10.19058 -10.18996
 Alpha  occ. eigenvalues --  -10.18949 -10.18892 -10.18875 -10.18774 -10.18643
 Alpha  occ. eigenvalues --  -10.18622 -10.18602 -10.18466 -10.18385 -10.18378
 Alpha  occ. eigenvalues --  -10.18133 -10.17903 -10.17843 -10.17613 -10.17575
 Alpha  occ. eigenvalues --  -10.17246 -10.16811 -10.15842 -10.15813 -10.15486
 Alpha  occ. eigenvalues --   -0.85402  -0.85055  -0.83428  -0.82800  -0.82088
 Alpha  occ. eigenvalues --   -0.81116  -0.79034  -0.78705  -0.78128  -0.77096
 Alpha  occ. eigenvalues --   -0.76990  -0.75308  -0.74108  -0.72211  -0.71863
 Alpha  occ. eigenvalues --   -0.69324  -0.68739  -0.68715  -0.68365  -0.68168
 Alpha  occ. eigenvalues --   -0.67685  -0.67060  -0.66709  -0.66279  -0.65267
 Alpha  occ. eigenvalues --   -0.63029  -0.62171  -0.59892  -0.58940  -0.57270
 Alpha  occ. eigenvalues --   -0.56675  -0.56001  -0.55186  -0.54291  -0.53216
 Alpha  occ. eigenvalues --   -0.52445  -0.51912  -0.50351  -0.49525  -0.48624
 Alpha  occ. eigenvalues --   -0.48104  -0.47593  -0.46698  -0.46252  -0.46139
 Alpha  occ. eigenvalues --   -0.45967  -0.45357  -0.44967  -0.44403  -0.44094
 Alpha  occ. eigenvalues --   -0.43390  -0.43067  -0.42742  -0.42265  -0.42122
 Alpha  occ. eigenvalues --   -0.41992  -0.41708  -0.41586  -0.40894  -0.40721
 Alpha  occ. eigenvalues --   -0.40657  -0.40464  -0.40383  -0.40259  -0.39617
 Alpha  occ. eigenvalues --   -0.39241  -0.38775  -0.38582  -0.38449  -0.38168
 Alpha  occ. eigenvalues --   -0.37889  -0.37384  -0.37233  -0.37109  -0.36565
 Alpha  occ. eigenvalues --   -0.36019  -0.35970  -0.35811  -0.35665  -0.35561
 Alpha  occ. eigenvalues --   -0.35188  -0.34559  -0.34207  -0.34019  -0.33792
 Alpha  occ. eigenvalues --   -0.33494  -0.33462  -0.33115  -0.32594  -0.32583
 Alpha  occ. eigenvalues --   -0.32198  -0.31744  -0.31499  -0.31179  -0.30842
 Alpha  occ. eigenvalues --   -0.30740  -0.30426  -0.29563  -0.28998  -0.28136
 Alpha  occ. eigenvalues --   -0.27934  -0.26690  -0.26361  -0.23955  -0.22580
 Alpha  occ. eigenvalues --   -0.20815  -0.18776  -0.15717
 Alpha virt. eigenvalues --   -0.08636  -0.05663  -0.02468   0.00006   0.02029
 Alpha virt. eigenvalues --    0.03636   0.05185   0.05881   0.06515   0.06768
 Alpha virt. eigenvalues --    0.06994   0.07612   0.08469   0.08505   0.08927

 Mulliken charges:
               1
     1  C   -0.011130
     2  C   -0.007530
     3  C   -0.152639
     4  C   -0.159705
     5  C   -0.160398
     6  C   -0.189022
     7  C    0.056519
     8  C    0.081007
     9  C   -0.225013
    10  C   -0.219365
    11  C    0.044667
    12  C    0.104630
    13  C   -0.301538
    14  C   -0.328275
    15  C   -0.299302
    16  C   -0.270278
    17  C   -0.101000
    18  C   -0.155823
    19  C   -0.362576
    20  C   -0.391042
    21  C   -0.106475
    22  C   -0.099566
    23  C    0.106550
    24  C    0.077128
    25  C   -0.365757
    26  C   -0.364146
    27  C   -0.123683
    28  C   -0.106599
    29  C   -0.098620
    30  C   -0.067703
    31  C   -0.100146
    32  C   -0.096658
    33  C    0.106669
    34  C    0.085066
    35  C   -0.351227
    36  C   -0.352235
    37  C   -0.130111
    38  C   -0.104454
    39  C   -0.093578
    40  C   -0.096991
    41  H    0.096000
    42  H    0.078524
    43  H    0.043676
    44  H    0.090120
    45  H    0.094547
    46  H    0.090372
    47  H    0.086807
    48  H    0.068905
    49  H    0.071224
    50  H    0.085455
    51  H    0.107497
    52  H    0.108031
    53  H    0.093651
    54  H    0.092665
    55  H    0.111946
    56  H    0.116494
    57  H    0.103479
    58  H    0.077912
    59  H    0.114384
    60  H    0.106892
    61  H    0.083092
    62  H    0.099923
    63  H    0.061763
    64  H    0.096684
    65  H    0.083562
    66  H    0.096648
    67  H    0.111403
    68  H    0.112535
    69  H    0.114951
    70  H    0.115171
    71  H    0.088930
    72  H    0.120624
    73  H    0.088572
    74  H    0.100606
    75  H    0.136215
    76  H    0.104843
    77  H    0.105514
    78  H    0.118425
    79  H    0.131112
    80  H    0.108895
    81  H    0.094983
    82  H    0.019375
    83  H    0.087576
    84  H    0.083612
    85  H    0.085183
    86  H    0.080396
    87  H    0.091626
    88  H    0.097634
    89  H    0.133083
    90  H    0.099565
    91  H    0.114820
    92  H    0.109430
    93  H    0.077303
    94  H    0.080218
    95  H    0.066656
    96  H    0.090838
 Sum of Mulliken charges =  -0.00000

 Dipole moment (field-independent basis, Debye):
    X=              0.7377    Y=             -0.1464    Z=             -0.1399  Tot=              0.7650
 Quadrupole moment (field-independent basis, Debye-Ang):
   XX=           -219.7412   YY=           -232.8497   ZZ=           -256.6530
   XY=              2.8995   XZ=             -5.4447   YZ=              0.0443

 Normal termination of Gaussian 16 at Mon Jul 29 00:57:42 2019.
