 Gaussian 16, Revision A.03,
 Gaussian 16:  ES64L-G16RevA.03 25-Dec-2016

 ---------------------------------
 # td=(NStates=1) B3LYP/6-31G(d,p)
 ---------------------------------

 --
 TD
 --
 Symbolic Z-matrix:
 Charge =  0 Multiplicity = 1

                         Standard orientation:
 ---------------------------------------------------------------------
 Center     Atomic      Atomic             Coordinates (Angstroms)
 Number     Number       Type             X           Y           Z
 ---------------------------------------------------------------------
      1          6           0       12.030913    0.442128   -0.869532
      2          6           0      -12.025708   -0.109628    0.871247
      3          6           0       13.334285   -0.444908   -0.845829
      4          6           0      -12.979790    1.107170    1.298565
      5          6           0       12.987727   -1.970617   -0.698606
      6          6           0      -13.391754    1.999242    0.130937
      7          6           0       11.092964    0.014915    0.198940
      8          6           0      -11.024197    0.398344   -0.116815
      9          6           0       12.331979   -2.128201    0.698677
     10          6           0      -12.157164    2.607340   -0.571640
     11          6           0       11.157298   -1.230077    0.961673
     12          6           0      -11.097229    1.575894   -0.810379
     13          6           0       11.354486    0.301919   -2.200176
     14          6           0       12.425930    1.923202   -0.578226
     15          6           0      -12.858761   -1.225346    0.177113
     16          6           0      -11.382233   -0.591707    2.230336
     17          6           0        9.939109    0.941326    0.375465
     18          6           0       -9.931849   -0.547793   -0.314635
     19          6           0       10.315241   -1.658268    2.169533
     20          6           0      -10.101557    1.951867   -1.859871
     21          6           0        8.650144    0.507635    0.252817
     22          6           0       -8.619411   -0.320523   -0.343121
     23          6           0        7.376876    1.363912    0.520623
     24          6           0       -7.560335   -1.329273   -0.461194
     25          6           0        7.667763    2.827157    0.712194
     26          6           0       -7.947329   -2.717094   -0.564418
     27          6           0        6.203479    0.832515    0.416137
     28          6           0       -6.310266   -0.903005   -0.389704
     29          6           0        4.932446    1.487048    0.529516
     30          6           0       -5.073003   -1.652605   -0.363154
     31          6           0        3.719724    0.831155    0.302472
     32          6           0       -3.803360   -1.103909   -0.322781
     33          6           0        2.419550    1.353089    0.396891
     34          6           0       -2.453908   -1.796376   -0.358161
     35          6           0        2.241439    2.853793    0.481893
     36          6           0       -2.470140   -3.209697   -0.824889
     37          6           0        1.304543    0.552499    0.170394
     38          6           0       -1.320293   -0.969946   -0.129836
     39          6           0        1.107166   -0.799631    0.013548
     40          6           0       -0.021524   -1.529482   -0.136089
     41          1           0       13.929978   -0.146305    0.078459
     42          1           0       13.779025   -0.525613   -2.035952
     43          1           0      -12.571157    1.779838    1.976320
     44          1           0      -13.844446    0.960000    1.809284
     45          1           0       13.862555   -2.502442   -0.741711
     46          1           0       12.445401   -2.099485   -1.504128
     47          1           0      -13.990408    2.778537    0.455474
     48          1           0      -13.975711    1.319845   -0.523821
     49          1           0       13.084086   -1.846950    1.599751
     50          1           0       11.977362   -3.034237    0.948647
     51          1           0      -11.679145    3.331602   -0.058667
     52          1           0      -12.497627    2.863385   -1.570443
     53          1           0       10.908106   -0.695376   -2.397118
     54          1           0       12.102735    0.729788   -2.963190
     55          1           0       10.450515    1.017889   -2.101648
     56          1           0       12.577602    2.128358    0.493695
     57          1           0       11.641516    2.741664   -0.952621
     58          1           0       13.370159    2.266949   -1.091293
     59          1           0      -13.288669   -1.023981   -0.716247
     60          1           0      -13.546412   -1.775999    0.605024
     61          1           0      -12.133652   -2.024010   -0.078334
     62          1           0      -10.871527    0.035773    2.854722
     63          1           0      -10.789895   -1.439210    2.181820
     64          1           0      -12.299876   -0.870858    2.911879
     65          1           0       10.162507    2.068459    0.438375
     66          1           0      -10.244254   -1.586453   -0.132779
     67          1           0        9.758916   -0.812962    2.452212
     68          1           0       11.171435   -1.963273    2.815707
     69          1           0        9.940700   -2.568508    1.890828
     70          1           0       -9.460091    1.275691   -2.368110
     71          1           0       -9.475022    2.800166   -1.589294
     72          1           0      -10.493419    2.188702   -2.856397
     73          1           0        8.518765   -0.689638    0.274641
     74          1           0       -8.219153    0.789398   -0.248303
     75          1           0        8.292454    3.201531    1.653393
     76          1           0        6.819472    3.618462    0.902861
     77          1           0        8.151070    3.352075   -0.128465
     78          1           0       -7.980636   -3.052246   -1.765592
     79          1           0       -8.903368   -2.847396    0.053215
     80          1           0       -7.087020   -3.495734    0.003028
     81          1           0        6.274981   -0.213833    0.193198
     82          1           0       -6.358049    0.175570   -0.252509
     83          1           0        4.987348    2.601511    0.707513
     84          1           0       -5.310173   -2.708626   -0.539745
     85          1           0        4.094291   -0.096967   -0.131198
     86          1           0       -4.020405    0.110288   -0.332519
     87          1           0        2.989713    3.227092    1.224965
     88          1           0        1.212700    3.290332    0.691103
     89          1           0        2.712762    3.274130   -0.493064
     90          1           0       -2.886811   -3.361670   -1.908536
     91          1           0       -3.281719   -3.986656   -0.225298
     92          1           0       -1.501964   -3.684068   -0.566540
     93          1           0        0.482575    0.986257   -0.006294
     94          1           0       -1.525931    0.033975    0.411316
     95          1           0        2.092198   -1.170898   -0.126933
     96          1           0        0.066135   -2.528268   -0.120186
 ---------------------------------------------------------------------

 SCF Done:  E(RB3LYP) =  -1557.53522490     A.U. after   15 cycles

 Excitation energies and oscillator strengths:

 Excited State   1:      Singlet-A      2.2089 eV  561.29 nm  f=2.9009  <S**2>=0.000
     148 ->149         0.70272
     148 <-149        -0.10005
 This state for optimization and/or second-order correction.
 Total Energy, E(TD-HF/TD-DFT) =  -1557.45404901
 Copying the excited state density for this state as the 1-particle RhoCI density.

 The electronic state is 1-A.
 Alpha  occ. eigenvalues --  -10.21490 -10.21030 -10.21023 -10.20930 -10.20399
 Alpha  occ. eigenvalues --  -10.20269 -10.20061 -10.19913 -10.19865 -10.19818
 Alpha  occ. eigenvalues --  -10.19728 -10.19713 -10.19687 -10.19531 -10.19370
 Alpha  occ. eigenvalues --  -10.18962 -10.18776 -10.18697 -10.18694 -10.18682
 Alpha  occ. eigenvalues --  -10.18678 -10.18673 -10.18471 -10.18374 -10.17918
 Alpha  occ. eigenvalues --  -10.17892 -10.17865 -10.17731 -10.17565 -10.17494
 Alpha  occ. eigenvalues --  -10.17304 -10.17283 -10.16779 -10.16736 -10.16674
 Alpha  occ. eigenvalues --  -10.16579 -10.16518 -10.16227 -10.15691 -10.15490
 Alpha  occ. eigenvalues --   -0.84916  -0.84751  -0.83864  -0.83022  -0.82482
 Alpha  occ. eigenvalues --   -0.81065  -0.79087  -0.78623  -0.78358  -0.77464
 Alpha  occ. eigenvalues --   -0.76915  -0.75052  -0.74137  -0.72420  -0.71884
 Alpha  occ. eigenvalues --   -0.70221  -0.69817  -0.68449  -0.68250  -0.67701
 Alpha  occ. eigenvalues --   -0.67639  -0.67350  -0.67343  -0.66019  -0.65786
 Alpha  occ. eigenvalues --   -0.62728  -0.61474  -0.60230  -0.59356  -0.58373
 Alpha  occ. eigenvalues --   -0.56936  -0.56016  -0.54916  -0.53707  -0.53152
 Alpha  occ. eigenvalues --   -0.52186  -0.50903  -0.50343  -0.49312  -0.49069
 Alpha  occ. eigenvalues --   -0.48734  -0.47427  -0.47055  -0.46647  -0.46167
 Alpha  occ. eigenvalues --   -0.45819  -0.45635  -0.45096  -0.44501  -0.44011
 Alpha  occ. eigenvalues --   -0.43539  -0.43181  -0.42756  -0.42603  -0.42196
 Alpha  occ. eigenvalues --   -0.41951  -0.41526  -0.41288  -0.41026  -0.40939
 Alpha  occ. eigenvalues --   -0.40815  -0.40429  -0.40232  -0.39963  -0.39746
 Alpha  occ. eigenvalues --   -0.39182  -0.39029  -0.38516  -0.38387  -0.37824
 Alpha  occ. eigenvalues --   -0.37612  -0.37286  -0.36903  -0.36443  -0.36389
 Alpha  occ. eigenvalues --   -0.36176  -0.36138  -0.36040  -0.35185  -0.34786
 Alpha  occ. eigenvalues --   -0.34708  -0.34465  -0.34374  -0.33957  -0.33810
 Alpha  occ. eigenvalues --   -0.33682  -0.33191  -0.33140  -0.32524  -0.32312
 Alpha  occ. eigenvalues --   -0.32116  -0.32036  -0.31807  -0.31322  -0.30788
 Alpha  occ. eigenvalues --   -0.30130  -0.29985  -0.29413  -0.28794  -0.28551
 Alpha  occ. eigenvalues --   -0.28406  -0.27642  -0.26113  -0.24042  -0.22277
 Alpha  occ. eigenvalues --   -0.20263  -0.18850  -0.16423
 Alpha virt. eigenvalues --   -0.08113  -0.04456  -0.01633   0.00258   0.02504
 Alpha virt. eigenvalues --    0.03546   0.05390   0.06839   0.06963   0.07115
 Alpha virt. eigenvalues --    0.07945   0.08013   0.08360   0.08792   0.09390

 Mulliken charges:
               1
     1  C    0.026316
     2  C   -0.016666
     3  C   -0.179062
     4  C   -0.177956
     5  C   -0.169845
     6  C   -0.207558
     7  C    0.044538
     8  C    0.099860
     9  C   -0.211570
    10  C   -0.201676
    11  C    0.021387
    12  C    0.041568
    13  C   -0.287306
    14  C   -0.320879
    15  C   -0.306963
    16  C   -0.305336
    17  C   -0.132908
    18  C   -0.145245
    19  C   -0.343743
    20  C   -0.377650
    21  C   -0.119366
    22  C   -0.088191
    23  C    0.139274
    24  C    0.164852
    25  C   -0.391963
    26  C   -0.361133
    27  C   -0.115407
    28  C   -0.119725
    29  C   -0.089187
    30  C   -0.072468
    31  C   -0.117468
    32  C   -0.122407
    33  C    0.106448
    34  C    0.099290
    35  C   -0.372002
    36  C   -0.359510
    37  C   -0.088565
    38  C   -0.111780
    39  C   -0.073969
    40  C   -0.077455
    41  H    0.089242
    42  H    0.051951
    43  H    0.089900
    44  H    0.088529
    45  H    0.100218
    46  H    0.109817
    47  H    0.090019
    48  H    0.091924
    49  H    0.082116
    50  H    0.095519
    51  H    0.116953
    52  H    0.101996
    53  H    0.107323
    54  H    0.090937
    55  H    0.097927
    56  H    0.111163
    57  H    0.082854
    58  H    0.097500
    59  H    0.114747
    60  H    0.109067
    61  H    0.087607
    62  H    0.118437
    63  H    0.100303
    64  H    0.076463
    65  H    0.089632
    66  H    0.069371
    67  H    0.133414
    68  H    0.104658
    69  H    0.130151
    70  H    0.122577
    71  H    0.108860
    72  H    0.093489
    73  H    0.072857
    74  H    0.073498
    75  H    0.100629
    76  H    0.092183
    77  H    0.127131
    78  H    0.104561
    79  H    0.112219
    80  H    0.073381
    81  H    0.073626
    82  H    0.057787
    83  H    0.073991
    84  H    0.068604
    85  H    0.092225
    86  H    0.068384
    87  H    0.117554
    88  H    0.112310
    89  H    0.117218
    90  H    0.128927
    91  H    0.085652
    92  H    0.116383
    93  H    0.047484
    94  H    0.102225
    95  H    0.065798
    96  H    0.082135
 Sum of Mulliken charges =  -0.00000

 Dipole moment (field-independent basis, Debye):
    X=              0.3181    Y=             -0.0017    Z=              0.0129  Tot=              0.3183
 Quadrupole moment (field-independent basis, Debye-Ang):
   XX=           -213.6487   YY=           -232.4801   ZZ=           -253.5070
   XY=             -4.5284   XZ=              2.0360   YZ=              2.7465

 Normal termination of Gaussian 16 at Sun Jul 28 02:21:48 2019.
