 Gaussian 16, Revision A.03,
 Gaussian 16:  ES64L-G16RevA.03 25-Dec-2016

 ---------------------------------
 # td=(NStates=1) B3LYP/6-31G(d,p)
 ---------------------------------

 --
 TD
 --
 Symbolic Z-matrix:
 Charge =  0 Multiplicity = 1

                         Standard orientation:
 ---------------------------------------------------------------------
 Center     Atomic      Atomic             Coordinates (Angstroms)
 Number     Number       Type             X           Y           Z
 ---------------------------------------------------------------------
      1          6           0      -12.171081   -0.532203   -0.538854
      2          6           0       12.045497   -0.042557    0.979663
      3          6           0      -13.461200    0.322854   -0.291196
      4          6           0       12.863992   -1.321904    1.383105
      5          6           0      -13.216621    1.831099   -0.250447
      6          6           0       13.251237   -2.209449    0.217256
      7          6           0      -10.992690   -0.062984    0.308063
      8          6           0       11.008735   -0.410312   -0.115113
      9          6           0      -12.132007    2.004295    0.858778
     10          6           0       12.017378   -2.736459   -0.532105
     11          6           0      -10.962483    1.168597    0.985562
     12          6           0       10.983271   -1.606805   -0.706129
     13          6           0      -11.879569   -0.484903   -2.046227
     14          6           0      -12.496411   -1.976969   -0.250148
     15          6           0       13.106639    0.983361    0.445751
     16          6           0       11.475601    0.532789    2.288126
     17          6           0       -9.842622   -0.902233    0.343444
     18          6           0        9.912488    0.510777   -0.158611
     19          6           0       -9.927635    1.516119    2.059399
     20          6           0        9.868024   -2.150499   -1.658294
     21          6           0       -8.553690   -0.554377    0.336366
     22          6           0        8.543580    0.333266   -0.322917
     23          6           0       -7.352859   -1.351830    0.339073
     24          6           0        7.534934    1.422320   -0.319934
     25          6           0       -7.500527   -2.805600    0.639166
     26          6           0        7.983466    2.856796   -0.459428
     27          6           0       -6.187921   -0.784904    0.243939
     28          6           0        6.189272    1.051739   -0.375091
     29          6           0       -4.871939   -1.422466    0.154445
     30          6           0        5.088549    1.797569   -0.544824
     31          6           0       -3.695008   -0.762309   -0.001707
     32          6           0        3.802217    1.268177   -0.583858
     33          6           0       -2.388002   -1.260836    0.002434
     34          6           0        2.523842    1.981268   -0.684647
     35          6           0       -2.232877   -2.715827    0.224774
     36          6           0        2.565418    3.485134   -0.720530
     37          6           0       -1.198830   -0.542503   -0.149364
     38          6           0        1.424419    1.243209   -0.534218
     39          6           0       -1.097445    0.949163   -0.412159
     40          6           0        0.052754    1.626903   -0.642045
     41          1           0      -14.016868    0.176666    0.570421
     42          1           0      -14.336627    0.113538   -1.096111
     43          1           0       12.389176   -1.972908    2.295347
     44          1           0       13.744301   -1.014613    2.035772
     45          1           0      -14.061278    2.451751   -0.104347
     46          1           0      -12.933073    2.103783   -1.166423
     47          1           0       13.913852   -3.138451    0.510180
     48          1           0       13.925965   -1.557494   -0.414188
     49          1           0      -12.507963    2.352198    1.900362
     50          1           0      -11.729986    3.010752    0.463803
     51          1           0       11.380847   -3.603180    0.019674
     52          1           0       12.107265   -3.206303   -1.480342
     53          1           0      -11.516219    0.384419   -2.312052
     54          1           0      -12.578676   -0.707144   -2.775056
     55          1           0      -10.928662   -1.084448   -2.249490
     56          1           0      -12.928139   -2.183078    0.783879
     57          1           0      -11.801463   -2.775384   -0.142225
     58          1           0      -13.253780   -2.388102   -0.977041
     59          1           0       13.793820    0.540539   -0.401743
     60          1           0       13.552482    1.703659    1.469838
     61          1           0       12.495264    1.888343    0.103180
     62          1           0       10.611772   -0.240447    2.751050
     63          1           0       10.938919    1.547263    2.199836
     64          1           0       12.273534    0.910804    2.991451
     65          1           0      -10.084406   -2.140046    0.335343
     66          1           0       10.339620    1.474893   -0.083062
     67          1           0       -9.443862    0.859957    2.621916
     68          1           0      -10.554785    2.165796    2.572926
     69          1           0       -9.253756    2.233246    1.686595
     70          1           0        9.243872   -1.246311   -1.778877
     71          1           0        9.085348   -2.846792   -1.064608
     72          1           0       10.253759   -2.480840   -2.570121
     73          1           0       -8.555250    0.556856    0.437734
     74          1           0        8.025760   -0.725336   -0.274871
     75          1           0       -7.974326   -3.019450    1.738412
     76          1           0       -6.589517   -3.403352    0.500336
     77          1           0       -8.176672   -3.357500    0.051312
     78          1           0        8.630811    2.769857   -1.386690
     79          1           0        8.318574    3.456051    0.295380
     80          1           0        6.991553    3.419090   -0.714762
     81          1           0       -6.223406    0.320339    0.017355
     82          1           0        6.121198    0.075102   -0.338200
     83          1           0       -4.729925   -2.442451    0.349735
     84          1           0        5.185806    2.948569   -0.980967
     85          1           0       -3.634889    0.370073   -0.016546
     86          1           0        3.727343    0.220534   -0.158512
     87          1           0       -2.593188   -2.920682    1.188228
     88          1           0       -1.199794   -3.025412    0.073661
     89          1           0       -2.966144   -3.214218   -0.492907
     90          1           0        3.121124    3.768595   -1.593668
     91          1           0        3.009826    4.138326    0.087715
     92          1           0        1.473226    3.878755   -0.733585
     93          1           0       -0.060431   -1.098269   -0.171494
     94          1           0        1.607670    0.172350   -0.363243
     95          1           0       -2.042703    1.544302   -0.620792
     96          1           0       -0.066279    2.750773   -0.658515
 ---------------------------------------------------------------------

 SCF Done:  E(RB3LYP) =  -1557.56652225     A.U. after   16 cycles

 Excitation energies and oscillator strengths:

 Excited State   1:      Singlet-A      2.2262 eV  556.93 nm  f=2.9719  <S**2>=0.000
     148 ->149         0.70336
 This state for optimization and/or second-order correction.
 Total Energy, E(TD-HF/TD-DFT) =  -1557.48471003
 Copying the excited state density for this state as the 1-particle RhoCI density.

 The electronic state is 1-A.
 Alpha  occ. eigenvalues --  -10.21165 -10.21062 -10.20989 -10.20594 -10.20250
 Alpha  occ. eigenvalues --  -10.20020 -10.20000 -10.19971 -10.19889 -10.19648
 Alpha  occ. eigenvalues --  -10.19590 -10.19562 -10.19473 -10.19469 -10.19268
 Alpha  occ. eigenvalues --  -10.19252 -10.19224 -10.19154 -10.19060 -10.18991
 Alpha  occ. eigenvalues --  -10.18934 -10.18867 -10.18849 -10.18627 -10.18585
 Alpha  occ. eigenvalues --  -10.18571 -10.18487 -10.18484 -10.18377 -10.18363
 Alpha  occ. eigenvalues --  -10.18252 -10.18087 -10.17818 -10.17785 -10.17377
 Alpha  occ. eigenvalues --  -10.17308 -10.16959 -10.16951 -10.16580 -10.15392
 Alpha  occ. eigenvalues --   -0.85494  -0.84821  -0.83808  -0.83463  -0.82347
 Alpha  occ. eigenvalues --   -0.81780  -0.79486  -0.78523  -0.78142  -0.77825
 Alpha  occ. eigenvalues --   -0.77041  -0.75282  -0.74595  -0.73046  -0.71455
 Alpha  occ. eigenvalues --   -0.69706  -0.69531  -0.68921  -0.68707  -0.68578
 Alpha  occ. eigenvalues --   -0.67945  -0.67005  -0.66414  -0.66319  -0.65789
 Alpha  occ. eigenvalues --   -0.63172  -0.62285  -0.60531  -0.58885  -0.57516
 Alpha  occ. eigenvalues --   -0.57333  -0.55825  -0.55202  -0.53249  -0.52783
 Alpha  occ. eigenvalues --   -0.52678  -0.52269  -0.50396  -0.49460  -0.49098
 Alpha  occ. eigenvalues --   -0.48055  -0.47697  -0.47198  -0.47011  -0.46035
 Alpha  occ. eigenvalues --   -0.45610  -0.45327  -0.44816  -0.44463  -0.43998
 Alpha  occ. eigenvalues --   -0.43315  -0.42802  -0.42660  -0.42433  -0.42256
 Alpha  occ. eigenvalues --   -0.42091  -0.42010  -0.41728  -0.41362  -0.41095
 Alpha  occ. eigenvalues --   -0.40679  -0.40491  -0.40216  -0.39960  -0.39656
 Alpha  occ. eigenvalues --   -0.39187  -0.38976  -0.38706  -0.38558  -0.38380
 Alpha  occ. eigenvalues --   -0.37944  -0.37489  -0.37041  -0.36598  -0.36534
 Alpha  occ. eigenvalues --   -0.36143  -0.35946  -0.35546  -0.35341  -0.35237
 Alpha  occ. eigenvalues --   -0.34807  -0.34436  -0.34050  -0.33703  -0.33557
 Alpha  occ. eigenvalues --   -0.33509  -0.33185  -0.33095  -0.32581  -0.32455
 Alpha  occ. eigenvalues --   -0.32262  -0.31832  -0.31650  -0.31543  -0.31254
 Alpha  occ. eigenvalues --   -0.29848  -0.29702  -0.29641  -0.29427  -0.28755
 Alpha  occ. eigenvalues --   -0.28316  -0.27257  -0.26759  -0.24833  -0.23090
 Alpha  occ. eigenvalues --   -0.21069  -0.18641  -0.16530
 Alpha virt. eigenvalues --   -0.07986  -0.05333  -0.01935   0.00117   0.02458
 Alpha virt. eigenvalues --    0.04568   0.05192   0.06118   0.06643   0.07592
 Alpha virt. eigenvalues --    0.07791   0.08113   0.08366   0.08751   0.09159

 Mulliken charges:
               1
     1  C    0.006980
     2  C    0.009150
     3  C   -0.176368
     4  C   -0.154394
     5  C   -0.187663
     6  C   -0.190144
     7  C    0.060743
     8  C    0.099787
     9  C   -0.257574
    10  C   -0.186111
    11  C    0.066196
    12  C    0.024200
    13  C   -0.296092
    14  C   -0.303548
    15  C   -0.283426
    16  C   -0.296199
    17  C   -0.111179
    18  C   -0.116439
    19  C   -0.353678
    20  C   -0.365040
    21  C   -0.117278
    22  C   -0.125862
    23  C    0.170197
    24  C    0.095302
    25  C   -0.377512
    26  C   -0.367784
    27  C   -0.131860
    28  C   -0.072802
    29  C   -0.099674
    30  C   -0.074319
    31  C   -0.084326
    32  C   -0.142480
    33  C    0.123795
    34  C    0.139053
    35  C   -0.376617
    36  C   -0.373309
    37  C   -0.144409
    38  C   -0.102028
    39  C   -0.092604
    40  C   -0.102572
    41  H    0.103904
    42  H    0.051735
    43  H    0.062969
    44  H    0.087237
    45  H    0.099916
    46  H    0.115264
    47  H    0.078530
    48  H    0.093369
    49  H    0.095374
    50  H    0.094280
    51  H    0.087295
    52  H    0.104039
    53  H    0.108860
    54  H    0.109553
    55  H    0.089523
    56  H    0.081951
    57  H    0.107962
    58  H    0.091690
    59  H    0.108036
    60  H    0.055353
    61  H    0.097715
    62  H    0.088323
    63  H    0.087124
    64  H    0.103311
    65  H    0.046047
    66  H    0.083666
    67  H    0.140201
    68  H    0.103967
    69  H    0.124184
    70  H    0.118646
    71  H    0.097688
    72  H    0.117239
    73  H    0.071654
    74  H    0.081671
    75  H    0.097071
    76  H    0.105367
    77  H    0.125942
    78  H    0.118886
    79  H    0.132386
    80  H    0.085918
    81  H    0.075628
    82  H    0.061972
    83  H    0.080599
    84  H    0.066064
    85  H    0.065954
    86  H    0.075985
    87  H    0.131001
    88  H    0.106341
    89  H    0.105172
    90  H    0.125300
    91  H    0.122741
    92  H    0.095620
    93  H    0.072953
    94  H    0.070242
    95  H    0.088561
    96  H    0.069908
 Sum of Mulliken charges =  -0.00000

 Dipole moment (field-independent basis, Debye):
    X=             -0.7462    Y=              0.6997    Z=              0.3716  Tot=              1.0884
 Quadrupole moment (field-independent basis, Debye-Ang):
   XX=           -217.4713   YY=           -233.4433   ZZ=           -254.8043
   XY=             -8.0809   XZ=             -3.3675   YZ=              1.1969

 Normal termination of Gaussian 16 at Wed Jul 31 10:41:11 2019.
