 Gaussian 16, Revision A.03,
 Gaussian 16:  ES64L-G16RevA.03 25-Dec-2016

 ---------------------------------
 # td=(NStates=1) B3LYP/6-31G(d,p)
 ---------------------------------

 --
 TD
 --
 Symbolic Z-matrix:
 Charge =  0 Multiplicity = 1

                         Standard orientation:
 ---------------------------------------------------------------------
 Center     Atomic      Atomic             Coordinates (Angstroms)
 Number     Number       Type             X           Y           Z
 ---------------------------------------------------------------------
      1          6           0      -12.178743   -0.610803   -0.570798
      2          6           0       12.097098    0.131960    0.843835
      3          6           0      -13.531719    0.247631   -0.577682
      4          6           0       13.053740   -1.043209    1.287316
      5          6           0      -13.177938    1.770763   -0.804333
      6          6           0       13.500816   -2.008712    0.064774
      7          6           0      -11.047190    0.132224    0.153950
      8          6           0       11.003783   -0.391356   -0.124698
      9          6           0      -12.288253    2.235699    0.372419
     10          6           0       12.347118   -2.537943   -0.772169
     11          6           0      -11.071729    1.375223    0.702990
     12          6           0       11.160642   -1.554652   -0.790685
     13          6           0      -11.882076   -0.820442   -2.050970
     14          6           0      -12.622597   -1.933207    0.018101
     15          6           0       12.948695    1.167717    0.125751
     16          6           0       11.442557    0.676615    2.179344
     17          6           0       -9.828376   -0.786851    0.321902
     18          6           0        9.951635    0.633950   -0.362124
     19          6           0      -10.040969    2.045990    1.574435
     20          6           0       10.072955   -2.095796   -1.714189
     21          6           0       -8.525402   -0.477346    0.176964
     22          6           0        8.552113    0.277643   -0.236824
     23          6           0       -7.351238   -1.290739    0.388228
     24          6           0        7.483127    1.194944   -0.460544
     25          6           0       -7.701591   -2.746651    0.908190
     26          6           0        7.814277    2.726950   -0.664128
     27          6           0       -6.132193   -0.803575    0.269576
     28          6           0        6.200748    0.762258   -0.322821
     29          6           0       -4.923115   -1.557865    0.292555
     30          6           0        5.015875    1.636017   -0.279368
     31          6           0       -3.716536   -0.887492    0.159079
     32          6           0        3.768898    1.031525   -0.297839
     33          6           0       -2.376258   -1.365597    0.285765
     34          6           0        2.563538    1.691452   -0.262552
     35          6           0       -2.201207   -2.810963    0.623485
     36          6           0        2.513546    3.217833   -0.657039
     37          6           0       -1.204412   -0.604995    0.282753
     38          6           0        1.343440    1.106175   -0.006081
     39          6           0       -1.121206    0.839197    0.034564
     40          6           0        0.029499    1.656687   -0.005455
     41          1           0      -14.036928    0.173514    0.463100
     42          1           0      -14.290617   -0.199807   -1.225330
     43          1           0       12.490471   -1.759953    2.025285
     44          1           0       13.718652   -0.770352    2.003294
     45          1           0      -14.093607    2.380937   -0.752859
     46          1           0      -12.686225    1.733135   -1.836818
     47          1           0       14.121464   -2.760459    0.309230
     48          1           0       14.250498   -1.148422   -0.570129
     49          1           0      -13.021146    2.393695    1.130179
     50          1           0      -11.822514    3.214088    0.129586
     51          1           0       11.819334   -3.588752   -0.391229
     52          1           0       12.485608   -2.685306   -1.843671
     53          1           0      -11.575713    0.036563   -2.704164
     54          1           0      -12.516923   -1.513777   -2.766413
     55          1           0      -10.920025   -1.361299   -2.145781
     56          1           0      -12.529191   -1.838224    1.155823
     57          1           0      -11.701320   -2.533089   -0.061658
     58          1           0      -13.473356   -2.467335   -0.428843
     59          1           0       13.437081    0.808443   -0.787723
     60          1           0       13.728652    1.486398    0.801261
     61          1           0       12.364129    2.122830   -0.195845
     62          1           0       10.945319   -0.379873    2.547527
     63          1           0       10.651375    1.405081    1.972730
     64          1           0       12.184343    0.948971    2.801726
     65          1           0      -10.207040   -1.577347    0.538239
     66          1           0       10.103242    1.705192   -0.781932
     67          1           0       -9.204425    1.269818    1.902255
     68          1           0      -10.672952    2.528096    2.467468
     69          1           0       -9.598894    2.899604    1.131139
     70          1           0        9.591873   -1.259527   -2.313442
     71          1           0        9.316823   -2.745501   -1.214424
     72          1           0       10.399868   -2.646811   -2.543883
     73          1           0       -8.393039    0.605181   -0.067634
     74          1           0        8.495811   -0.793852   -0.079216
     75          1           0       -8.085345   -2.790949    1.716816
     76          1           0       -6.653556   -3.246391    0.847761
     77          1           0       -8.337981   -3.203275    0.166999
     78          1           0        8.479310    2.988408   -1.524699
     79          1           0        8.315799    3.291810    0.080391
     80          1           0        6.992740    3.309192   -0.904244
     81          1           0       -6.039984    0.192643    0.090757
     82          1           0        6.057218   -0.434698   -0.277248
     83          1           0       -5.008420   -2.586994    0.396378
     84          1           0        5.203976    2.909430   -0.227344
     85          1           0       -3.705894    0.219721    0.073252
     86          1           0        3.636234   -0.043439   -0.187802
     87          1           0       -3.083351   -3.138340    1.517897
     88          1           0       -1.202512   -3.127951    1.013280
     89          1           0       -2.334424   -3.298858   -0.308582
     90          1           0        3.118201    3.390787   -1.637125
     91          1           0        2.940700    3.864607    0.205356
     92          1           0        1.595379    3.657400   -0.808180
     93          1           0       -0.236104   -0.995867    0.551395
     94          1           0        1.372755   -0.014214    0.117375
     95          1           0       -2.066811    1.307885   -0.230894
     96          1           0        0.033325    2.685688    0.026553
 ---------------------------------------------------------------------

 SCF Done:  E(RB3LYP) =  -1557.57299429     A.U. after   15 cycles

 Excitation energies and oscillator strengths:

 Excited State   1:      Singlet-A      2.0880 eV  593.81 nm  f=2.9954  <S**2>=0.000
     148 ->149         0.70737
     148 <-149        -0.11890
 This state for optimization and/or second-order correction.
 Total Energy, E(TD-HF/TD-DFT) =  -1557.49626339
 Copying the excited state density for this state as the 1-particle RhoCI density.

 The electronic state is 1-A.
 Alpha  occ. eigenvalues --  -10.21238 -10.20418 -10.20280 -10.20232 -10.20226
 Alpha  occ. eigenvalues --  -10.19954 -10.19803 -10.19756 -10.19720 -10.19628
 Alpha  occ. eigenvalues --  -10.19602 -10.19585 -10.19560 -10.19545 -10.19422
 Alpha  occ. eigenvalues --  -10.19410 -10.19371 -10.19158 -10.19108 -10.19023
 Alpha  occ. eigenvalues --  -10.19002 -10.18755 -10.18657 -10.18656 -10.18632
 Alpha  occ. eigenvalues --  -10.18577 -10.18363 -10.18242 -10.18150 -10.18056
 Alpha  occ. eigenvalues --  -10.17984 -10.17912 -10.17832 -10.17759 -10.17553
 Alpha  occ. eigenvalues --  -10.17207 -10.17191 -10.17188 -10.17142 -10.16858
 Alpha  occ. eigenvalues --   -0.84708  -0.83821  -0.83657  -0.83016  -0.81890
 Alpha  occ. eigenvalues --   -0.81014  -0.78661  -0.78454  -0.77921  -0.77307
 Alpha  occ. eigenvalues --   -0.75857  -0.74836  -0.73391  -0.72175  -0.71092
 Alpha  occ. eigenvalues --   -0.69965  -0.69407  -0.68678  -0.67935  -0.67852
 Alpha  occ. eigenvalues --   -0.67690  -0.67478  -0.66581  -0.66123  -0.65690
 Alpha  occ. eigenvalues --   -0.63647  -0.61992  -0.60024  -0.59385  -0.57381
 Alpha  occ. eigenvalues --   -0.56862  -0.55893  -0.55698  -0.54677  -0.53865
 Alpha  occ. eigenvalues --   -0.52497  -0.51786  -0.50859  -0.49591  -0.48806
 Alpha  occ. eigenvalues --   -0.47865  -0.47238  -0.46632  -0.46272  -0.45812
 Alpha  occ. eigenvalues --   -0.45584  -0.44650  -0.44464  -0.44227  -0.44019
 Alpha  occ. eigenvalues --   -0.43889  -0.43494  -0.42574  -0.42016  -0.41825
 Alpha  occ. eigenvalues --   -0.41766  -0.41468  -0.41124  -0.40975  -0.40747
 Alpha  occ. eigenvalues --   -0.40392  -0.40306  -0.40113  -0.39795  -0.39532
 Alpha  occ. eigenvalues --   -0.39041  -0.38818  -0.38765  -0.38731  -0.38513
 Alpha  occ. eigenvalues --   -0.38431  -0.37991  -0.37856  -0.37727  -0.36923
 Alpha  occ. eigenvalues --   -0.36630  -0.35841  -0.35766  -0.35025  -0.34867
 Alpha  occ. eigenvalues --   -0.34609  -0.34479  -0.34384  -0.33963  -0.33597
 Alpha  occ. eigenvalues --   -0.33338  -0.33205  -0.32945  -0.32822  -0.32372
 Alpha  occ. eigenvalues --   -0.32133  -0.32050  -0.31542  -0.31046  -0.30781
 Alpha  occ. eigenvalues --   -0.30498  -0.30039  -0.29517  -0.29245  -0.28181
 Alpha  occ. eigenvalues --   -0.27952  -0.26763  -0.26049  -0.24000  -0.22977
 Alpha  occ. eigenvalues --   -0.21384  -0.19137  -0.16178
 Alpha virt. eigenvalues --   -0.08580  -0.05102  -0.01768   0.00675   0.02627
 Alpha virt. eigenvalues --    0.03643   0.05458   0.06281   0.07116   0.07523
 Alpha virt. eigenvalues --    0.08200   0.08460   0.08781   0.09175   0.09531

 Mulliken charges:
               1
     1  C   -0.000378
     2  C   -0.012717
     3  C   -0.162410
     4  C   -0.178368
     5  C   -0.196301
     6  C   -0.166479
     7  C    0.020125
     8  C    0.059695
     9  C   -0.215642
    10  C   -0.195556
    11  C    0.088093
    12  C    0.062810
    13  C   -0.303446
    14  C   -0.310219
    15  C   -0.289329
    16  C   -0.290575
    17  C   -0.059203
    18  C   -0.149001
    19  C   -0.364035
    20  C   -0.376553
    21  C   -0.107938
    22  C   -0.098383
    23  C    0.082850
    24  C    0.121334
    25  C   -0.340511
    26  C   -0.386472
    27  C   -0.085485
    28  C   -0.118447
    29  C   -0.074593
    30  C   -0.093765
    31  C   -0.114371
    32  C   -0.113664
    33  C    0.106367
    34  C    0.134245
    35  C   -0.356330
    36  C   -0.370939
    37  C   -0.118814
    38  C   -0.120620
    39  C   -0.097245
    40  C   -0.087775
    41  H    0.063031
    42  H    0.086195
    43  H    0.064120
    44  H    0.097705
    45  H    0.086868
    46  H    0.093244
    47  H    0.103720
    48  H    0.050023
    49  H    0.109175
    50  H    0.092804
    51  H    0.081030
    52  H    0.121792
    53  H    0.101829
    54  H    0.085825
    55  H    0.095252
    56  H    0.098820
    57  H    0.096085
    58  H    0.115301
    59  H    0.106054
    60  H    0.094913
    61  H    0.081644
    62  H    0.080340
    63  H    0.110597
    64  H    0.106348
    65  H    0.035293
    66  H    0.089316
    67  H    0.112718
    68  H    0.094491
    69  H    0.127718
    70  H    0.113522
    71  H    0.112167
    72  H    0.100632
    73  H    0.071945
    74  H    0.086654
    75  H    0.134080
    76  H    0.082978
    77  H    0.118649
    78  H    0.107695
    79  H    0.127577
    80  H    0.110278
    81  H    0.072088
    82  H    0.077776
    83  H    0.088078
    84  H    0.087974
    85  H    0.074208
    86  H    0.082432
    87  H    0.072504
    88  H    0.108753
    89  H    0.134238
    90  H    0.106190
    91  H    0.100387
    92  H    0.115088
    93  H    0.086554
    94  H    0.059509
    95  H    0.080274
    96  H    0.085562
 Sum of Mulliken charges =  -0.00000

 Dipole moment (field-independent basis, Debye):
    X=             -0.0773    Y=             -0.0296    Z=             -0.1634  Tot=              0.1832
 Quadrupole moment (field-independent basis, Debye-Ang):
   XX=           -225.8499   YY=           -232.8460   ZZ=           -255.0648
   XY=             -0.6606   XZ=             -4.1271   YZ=             -0.2756

 Normal termination of Gaussian 16 at Sun Jul 28 00:53:41 2019.
