 Gaussian 16, Revision A.03,
 Gaussian 16:  ES64L-G16RevA.03 25-Dec-2016

 ---------------------------------
 # td=(NStates=1) B3LYP/6-31G(d,p)
 ---------------------------------

 --
 TD
 --
 Symbolic Z-matrix:
 Charge =  0 Multiplicity = 1

                         Standard orientation:
 ---------------------------------------------------------------------
 Center     Atomic      Atomic             Coordinates (Angstroms)
 Number     Number       Type             X           Y           Z
 ---------------------------------------------------------------------
      1          6           0       12.158065    0.463960   -0.648012
      2          6           0      -12.310974   -0.145135    0.862344
      3          6           0       13.460963   -0.315738   -0.551503
      4          6           0      -13.104880    0.957596    1.392599
      5          6           0       13.375607   -1.826655   -0.498275
      6          6           0      -13.454277    1.977743    0.289112
      7          6           0       11.165030   -0.036015    0.332854
      8          6           0      -11.156836    0.427172   -0.115380
      9          6           0       12.456352   -2.124485    0.753932
     10          6           0      -12.273558    2.591894   -0.462962
     11          6           0       11.238414   -1.177187    0.956155
     12          6           0      -11.093195    1.644523   -0.595287
     13          6           0       11.555479    0.580884   -2.055968
     14          6           0       12.512094    2.021213   -0.337315
     15          6           0      -13.091823   -1.146660    0.043564
     16          6           0      -11.657072   -0.945873    2.016987
     17          6           0        9.910910    0.827680    0.485570
     18          6           0       -9.976089   -0.500223   -0.252442
     19          6           0       10.287496   -1.663078    1.939140
     20          6           0      -10.119216    2.304004   -1.489098
     21          6           0        8.687476    0.441321    0.282918
     22          6           0       -8.620444   -0.256375   -0.194659
     23          6           0        7.382987    1.273361    0.408062
     24          6           0       -7.574258   -1.152364   -0.313372
     25          6           0        7.638488    2.737712    0.552461
     26          6           0       -7.825602   -2.649484   -0.654793
     27          6           0        6.240243    0.645416    0.190740
     28          6           0       -6.203248   -0.831729   -0.283296
     29          6           0        4.976311    1.302570    0.201052
     30          6           0       -5.021434   -1.536509   -0.469842
     31          6           0        3.711974    0.664558    0.204989
     32          6           0       -3.793466   -1.019853   -0.290437
     33          6           0        2.534058    1.245975    0.244164
     34          6           0       -2.604915   -1.739066   -0.492020
     35          6           0        2.355423    2.859840    0.526346
     36          6           0       -2.566666   -3.256018   -0.882365
     37          6           0        1.346876    0.552431    0.046999
     38          6           0       -1.403254   -1.035413   -0.315734
     39          6           0        1.051366   -0.823372   -0.335298
     40          6           0       -0.058738   -1.528119   -0.487856
     41          1           0       14.106414    0.203595    0.238810
     42          1           0       14.216428    0.139406   -1.432930
     43          1           0      -12.549297    1.366487    2.184423
     44          1           0      -14.116688    0.710022    1.979529
     45          1           0       14.228712   -2.235873   -0.170103
     46          1           0       13.058761   -2.457527   -1.444177
     47          1           0      -13.967687    2.727171    0.677131
     48          1           0      -14.018128    1.427896   -0.528693
     49          1           0       13.173724   -2.259473    1.646126
     50          1           0       12.142227   -3.224220    0.707311
     51          1           0      -11.991420    3.403319    0.243047
     52          1           0      -12.624447    2.918077   -1.480378
     53          1           0       11.263547   -0.430619   -2.451392
     54          1           0       12.251479    1.216768   -2.647477
     55          1           0       10.587983    1.271913   -1.951707
     56          1           0       12.879987    2.030973    0.626423
     57          1           0       11.679672    2.682350   -0.303226
     58          1           0       13.363930    2.205534   -0.742201
     59          1           0      -13.714398   -0.738491   -0.766609
     60          1           0      -13.751725   -1.720806    0.601675
     61          1           0      -12.371897   -1.870324   -0.648053
     62          1           0      -11.135372   -0.257857    2.616190
     63          1           0      -10.932157   -1.819431    1.590543
     64          1           0      -12.367021   -1.440278    2.596830
     65          1           0       10.197932    1.832596    0.810796
     66          1           0      -10.459410   -1.581378   -0.214087
     67          1           0        9.312989   -1.102142    2.278804
     68          1           0       10.702460   -1.795817    2.911867
     69          1           0        9.708432   -2.678103    1.568008
     70          1           0       -9.449274    1.424067   -1.828536
     71          1           0       -9.467328    2.784740   -0.783302
     72          1           0      -10.508780    2.792431   -2.385945
     73          1           0        8.465493   -0.364445   -0.179175
     74          1           0       -8.448381    0.763372   -0.219635
     75          1           0        8.216473    3.054310    1.285669
     76          1           0        6.669438    3.372022    0.568198
     77          1           0        8.135841    3.056309   -0.401714
     78          1           0       -8.356079   -2.882963   -1.560982
     79          1           0       -8.193356   -3.096030    0.181061
     80          1           0       -6.941537   -3.107091   -0.745297
     81          1           0        6.157925   -0.391073   -0.088209
     82          1           0       -5.902797    0.218361    0.145407
     83          1           0        4.909730    2.378529    0.338535
     84          1           0       -5.133144   -2.560722   -0.547247
     85          1           0        3.727935   -0.523488    0.090663
     86          1           0       -3.646126    0.000136    0.141745
     87          1           0        2.906348    3.155508    1.423233
     88          1           0        1.280339    3.040853    0.617913
     89          1           0        2.760056    3.579053   -0.337439
     90          1           0       -3.424987   -3.303654   -1.582291
     91          1           0       -2.677327   -4.148525   -0.031151
     92          1           0       -1.611252   -3.510064   -1.354766
     93          1           0        0.255890    1.172579   -0.107956
     94          1           0       -1.580171   -0.030740   -0.215819
     95          1           0        2.115442   -1.584544   -0.217451
     96          1           0        0.050585   -2.675723   -0.726424
 ---------------------------------------------------------------------

 SCF Done:  E(RB3LYP) =  -1557.54733136     A.U. after   16 cycles

 Excitation energies and oscillator strengths:

 Excited State   1:      Singlet-A      2.1107 eV  587.40 nm  f=3.2077  <S**2>=0.000
     148 ->149         0.71183
     148 <-149        -0.12880
 This state for optimization and/or second-order correction.
 Total Energy, E(TD-HF/TD-DFT) =  -1557.46976398
 Copying the excited state density for this state as the 1-particle RhoCI density.

 The electronic state is 1-A.
 Alpha  occ. eigenvalues --  -10.20817 -10.20575 -10.20366 -10.20132 -10.20100
 Alpha  occ. eigenvalues --  -10.20036 -10.19922 -10.19864 -10.19862 -10.19716
 Alpha  occ. eigenvalues --  -10.19660 -10.19602 -10.19573 -10.19414 -10.19173
 Alpha  occ. eigenvalues --  -10.18976 -10.18843 -10.18707 -10.18574 -10.18457
 Alpha  occ. eigenvalues --  -10.18443 -10.18369 -10.18308 -10.18265 -10.18224
 Alpha  occ. eigenvalues --  -10.18157 -10.18045 -10.18010 -10.18007 -10.17918
 Alpha  occ. eigenvalues --  -10.17892 -10.17718 -10.17698 -10.17657 -10.17529
 Alpha  occ. eigenvalues --  -10.16987 -10.16947 -10.16648 -10.15770 -10.15289
 Alpha  occ. eigenvalues --   -0.85383  -0.85330  -0.83716  -0.83404  -0.82092
 Alpha  occ. eigenvalues --   -0.81464  -0.79693  -0.79011  -0.78466  -0.77594
 Alpha  occ. eigenvalues --   -0.76834  -0.75258  -0.74440  -0.72517  -0.72187
 Alpha  occ. eigenvalues --   -0.69468  -0.69225  -0.69083  -0.68529  -0.68205
 Alpha  occ. eigenvalues --   -0.67895  -0.67377  -0.67367  -0.66301  -0.66179
 Alpha  occ. eigenvalues --   -0.63605  -0.62339  -0.60116  -0.59272  -0.57464
 Alpha  occ. eigenvalues --   -0.56940  -0.55822  -0.55116  -0.53810  -0.53575
 Alpha  occ. eigenvalues --   -0.53205  -0.52233  -0.49971  -0.49467  -0.48616
 Alpha  occ. eigenvalues --   -0.48104  -0.47295  -0.46841  -0.46562  -0.46471
 Alpha  occ. eigenvalues --   -0.46140  -0.45545  -0.45415  -0.44765  -0.44377
 Alpha  occ. eigenvalues --   -0.43341  -0.43114  -0.42941  -0.42744  -0.42610
 Alpha  occ. eigenvalues --   -0.42403  -0.42181  -0.41039  -0.41026  -0.40753
 Alpha  occ. eigenvalues --   -0.40554  -0.40526  -0.40302  -0.39883  -0.39775
 Alpha  occ. eigenvalues --   -0.39643  -0.39229  -0.38867  -0.38760  -0.38414
 Alpha  occ. eigenvalues --   -0.38045  -0.37588  -0.37510  -0.37295  -0.36588
 Alpha  occ. eigenvalues --   -0.36336  -0.36090  -0.36003  -0.35152  -0.35100
 Alpha  occ. eigenvalues --   -0.34851  -0.34522  -0.34381  -0.33789  -0.33642
 Alpha  occ. eigenvalues --   -0.33540  -0.33391  -0.32914  -0.32864  -0.32410
 Alpha  occ. eigenvalues --   -0.31785  -0.31654  -0.31252  -0.30889  -0.30798
 Alpha  occ. eigenvalues --   -0.30015  -0.29665  -0.29426  -0.28964  -0.28629
 Alpha  occ. eigenvalues --   -0.27865  -0.27459  -0.26253  -0.24996  -0.23199
 Alpha  occ. eigenvalues --   -0.22303  -0.19123  -0.16100
 Alpha virt. eigenvalues --   -0.08611  -0.05116  -0.00811   0.01362   0.03542
 Alpha virt. eigenvalues --    0.04658   0.04992   0.06749   0.07182   0.07412
 Alpha virt. eigenvalues --    0.07491   0.08341   0.08375   0.08510   0.09279

 Mulliken charges:
               1
     1  C   -0.009388
     2  C    0.016532
     3  C   -0.180419
     4  C   -0.170494
     5  C   -0.176641
     6  C   -0.183122
     7  C    0.087403
     8  C    0.079485
     9  C   -0.245712
    10  C   -0.220316
    11  C    0.103591
    12  C    0.039789
    13  C   -0.268080
    14  C   -0.325686
    15  C   -0.290034
    16  C   -0.293054
    17  C   -0.151010
    18  C   -0.133937
    19  C   -0.369542
    20  C   -0.367342
    21  C   -0.040641
    22  C   -0.090292
    23  C    0.101038
    24  C    0.089039
    25  C   -0.369609
    26  C   -0.365597
    27  C   -0.110175
    28  C   -0.130324
    29  C   -0.098064
    30  C   -0.069918
    31  C   -0.114677
    32  C   -0.111397
    33  C    0.139073
    34  C    0.117374
    35  C   -0.364328
    36  C   -0.358557
    37  C   -0.138056
    38  C   -0.107948
    39  C   -0.053564
    40  C   -0.098651
    41  H    0.092897
    42  H    0.044838
    43  H    0.095126
    44  H    0.067890
    45  H    0.112636
    46  H    0.091876
    47  H    0.093347
    48  H    0.088366
    49  H    0.092567
    50  H    0.088911
    51  H    0.097256
    52  H    0.097228
    53  H    0.094186
    54  H    0.099120
    55  H    0.085014
    56  H    0.100599
    57  H    0.107585
    58  H    0.106135
    59  H    0.098647
    60  H    0.106230
    61  H    0.073069
    62  H    0.106426
    63  H    0.080585
    64  H    0.105091
    65  H    0.079933
    66  H    0.066236
    67  H    0.105709
    68  H    0.116172
    69  H    0.079544
    70  H    0.103621
    71  H    0.133751
    72  H    0.115513
    73  H    0.069403
    74  H    0.072349
    75  H    0.133446
    76  H    0.092767
    77  H    0.123356
    78  H    0.116670
    79  H    0.126455
    80  H    0.106413
    81  H    0.084497
    82  H    0.050957
    83  H    0.077328
    84  H    0.086793
    85  H    0.068246
    86  H    0.084521
    87  H    0.123431
    88  H    0.116871
    89  H    0.100012
    90  H    0.117144
    91  H    0.094351
    92  H    0.116100
    93  H    0.054849
    94  H    0.072366
    95  H    0.034429
    96  H    0.084393
 Sum of Mulliken charges =  -0.00000

 Dipole moment (field-independent basis, Debye):
    X=              0.2352    Y=              0.7340    Z=              0.6351  Tot=              0.9988
 Quadrupole moment (field-independent basis, Debye-Ang):
   XX=           -203.8990   YY=           -233.5912   ZZ=           -254.8151
   XY=             -1.7363   XZ=              2.3946   YZ=              2.9178

 Normal termination of Gaussian 16 at Sat Jul 27 15:13:31 2019.
