 Gaussian 16, Revision A.03,
 Gaussian 16:  ES64L-G16RevA.03 25-Dec-2016

 ---------------------------------
 # td=(NStates=1) B3LYP/6-31G(d,p)
 ---------------------------------

 --
 TD
 --
 Symbolic Z-matrix:
 Charge =  0 Multiplicity = 1

                         Standard orientation:
 ---------------------------------------------------------------------
 Center     Atomic      Atomic             Coordinates (Angstroms)
 Number     Number       Type             X           Y           Z
 ---------------------------------------------------------------------
      1          6           0      -12.107399   -0.704530   -0.715377
      2          6           0       11.918392   -0.097441    0.954808
      3          6           0      -13.367122    0.302375   -0.718768
      4          6           0       12.763865   -1.359923    1.402964
      5          6           0      -13.101584    1.765638   -0.581219
      6          6           0       13.283114   -2.156904    0.155737
      7          6           0      -11.028071   -0.029497    0.265359
      8          6           0       10.885238   -0.504217   -0.110565
      9          6           0      -12.318804    2.208986    0.646606
     10          6           0       12.061938   -2.634672   -0.570862
     11          6           0      -11.142661    1.178140    0.876117
     12          6           0       10.950698   -1.631298   -0.899710
     13          6           0      -11.573407   -0.829973   -2.176352
     14          6           0      -12.619862   -2.045903   -0.140014
     15          6           0       12.979015    0.914459    0.399666
     16          6           0       11.413150    0.477690    2.128678
     17          6           0       -9.797081   -1.012838    0.424554
     18          6           0        9.929305    0.517494   -0.287920
     19          6           0      -10.220387    1.837671    1.926514
     20          6           0       10.024825   -1.871296   -2.011333
     21          6           0       -8.499930   -0.566604    0.273557
     22          6           0        8.566441    0.432886   -0.279127
     23          6           0       -7.366122   -1.378290    0.353005
     24          6           0        7.554774    1.398167   -0.427309
     25          6           0       -7.509543   -2.891413    0.602538
     26          6           0        7.924084    2.855372   -0.667487
     27          6           0       -6.108548   -0.758129    0.454483
     28          6           0        6.210440    1.036600   -0.234274
     29          6           0       -4.822104   -1.274989    0.493570
     30          6           0        5.053021    1.809885   -0.376028
     31          6           0       -3.638098   -0.631846    0.268518
     32          6           0        3.830989    1.296601   -0.355266
     33          6           0       -2.346956   -1.217133    0.214168
     34          6           0        2.504697    2.023634   -0.354375
     35          6           0       -2.184591   -2.718449    0.535101
     36          6           0        2.545603    3.537573   -0.596859
     37          6           0       -1.196976   -0.515566    0.028852
     38          6           0        1.450875    1.199132   -0.344062
     39          6           0       -1.068502    0.920343   -0.232667
     40          6           0        0.063104    1.646370   -0.431044
     41          1           0      -13.928441    0.087593    0.321092
     42          1           0      -13.759435    0.189560   -1.851898
     43          1           0       12.171318   -2.135297    1.795719
     44          1           0       13.672919   -1.121122    2.132572
     45          1           0      -14.021768    2.423976   -0.686353
     46          1           0      -12.775668    2.089740   -1.485069
     47          1           0       13.644498   -3.079675    0.551921
     48          1           0       13.967618   -1.443599   -0.393294
     49          1           0      -12.918324    2.299892    1.605729
     50          1           0      -11.949399    3.297239    0.673714
     51          1           0       11.607249   -3.618093   -0.089378
     52          1           0       12.442767   -3.096534   -1.481880
     53          1           0      -11.240334    0.320630   -2.660312
     54          1           0      -12.491394   -1.157973   -2.794936
     55          1           0      -10.859647   -1.760880   -2.280812
     56          1           0      -13.130560   -1.959490    0.952896
     57          1           0      -11.672873   -2.710298    0.137670
     58          1           0      -13.295754   -2.565856   -1.023047
     59          1           0       13.453016    0.613483   -0.546655
     60          1           0       13.971590    1.168218    1.002197
     61          1           0       12.517298    1.892657    0.233437
     62          1           0       10.901757   -0.212595    2.843274
     63          1           0       10.639873    1.343526    2.081009
     64          1           0       12.092802    0.733935    2.738754
     65          1           0       -9.919037   -1.935924    0.712364
     66          1           0       10.167786    1.666515   -0.246542
     67          1           0       -9.066483    1.242053    2.174233
     68          1           0      -10.956629    1.988776    2.814045
     69          1           0       -9.846320    2.886749    1.347266
     70          1           0        9.328051   -1.168503   -2.146052
     71          1           0        9.727645   -3.011296   -1.634484
     72          1           0       10.780374   -2.228495   -2.911728
     73          1           0       -8.466736    0.557693    0.166535
     74          1           0        8.199095   -0.634916   -0.387995
     75          1           0       -8.028347   -3.240469    1.661826
     76          1           0       -6.536808   -3.350307    0.549545
     77          1           0       -8.196351   -3.513236   -0.147766
     78          1           0        8.421204    2.816349   -1.567415
     79          1           0        8.454327    3.355129    0.240319
     80          1           0        7.183227    3.668448   -0.685771
     81          1           0       -6.140255    0.282637    0.194121
     82          1           0        6.057960   -0.165262   -0.426304
     83          1           0       -4.495219   -2.481018    0.575850
     84          1           0        4.933741    2.779383   -0.398477
     85          1           0       -3.754348    0.366024    0.056899
     86          1           0        3.697915    0.342016    0.042199
     87          1           0       -2.714030   -2.939096    1.476051
     88          1           0       -1.140753   -3.004319    0.657969
     89          1           0       -2.631363   -3.460754   -0.228379
     90          1           0        2.760308    3.422442   -1.669812
     91          1           0        3.210766    3.975197   -0.043215
     92          1           0        1.295575    3.909622   -0.450607
     93          1           0       -0.133038   -0.986621    0.104301
     94          1           0        1.713435   -0.033747   -0.204412
     95          1           0       -2.171421    1.495689   -0.136512
     96          1           0       -0.148303    2.631571   -0.629471
 ---------------------------------------------------------------------

 SCF Done:  E(RB3LYP) =  -1557.43868591     A.U. after   15 cycles

 Excitation energies and oscillator strengths:

 Excited State   1:      Singlet-A      2.2206 eV  558.32 nm  f=2.7111  <S**2>=0.000
     148 ->149         0.70269
 This state for optimization and/or second-order correction.
 Total Energy, E(TD-HF/TD-DFT) =  -1557.35707856
 Copying the excited state density for this state as the 1-particle RhoCI density.

 The electronic state is 1-A.
 Alpha  occ. eigenvalues --  -10.21957 -10.21071 -10.20827 -10.20772 -10.20567
 Alpha  occ. eigenvalues --  -10.20313 -10.20226 -10.20214 -10.20207 -10.20148
 Alpha  occ. eigenvalues --  -10.20096 -10.20085 -10.19948 -10.19871 -10.19860
 Alpha  occ. eigenvalues --  -10.19811 -10.19788 -10.19781 -10.19712 -10.19620
 Alpha  occ. eigenvalues --  -10.19616 -10.19511 -10.19270 -10.18996 -10.18764
 Alpha  occ. eigenvalues --  -10.18739 -10.18727 -10.18436 -10.18363 -10.18362
 Alpha  occ. eigenvalues --  -10.18258 -10.18086 -10.18083 -10.18002 -10.17867
 Alpha  occ. eigenvalues --  -10.17861 -10.17679 -10.17197 -10.17067 -10.14899
 Alpha  occ. eigenvalues --   -0.85653  -0.83811  -0.83569  -0.83085  -0.81987
 Alpha  occ. eigenvalues --   -0.81511  -0.79793  -0.79144  -0.77822  -0.77257
 Alpha  occ. eigenvalues --   -0.76892  -0.75665  -0.74583  -0.72864  -0.71504
 Alpha  occ. eigenvalues --   -0.70160  -0.68964  -0.68349  -0.67921  -0.67681
 Alpha  occ. eigenvalues --   -0.66902  -0.66672  -0.66410  -0.65892  -0.64964
 Alpha  occ. eigenvalues --   -0.62819  -0.61879  -0.59285  -0.58492  -0.57251
 Alpha  occ. eigenvalues --   -0.56875  -0.55724  -0.54522  -0.53569  -0.52764
 Alpha  occ. eigenvalues --   -0.52573  -0.51688  -0.50618  -0.50397  -0.48571
 Alpha  occ. eigenvalues --   -0.48047  -0.47265  -0.47210  -0.46917  -0.46617
 Alpha  occ. eigenvalues --   -0.46135  -0.45379  -0.44592  -0.44291  -0.44179
 Alpha  occ. eigenvalues --   -0.43766  -0.43283  -0.42891  -0.42675  -0.41790
 Alpha  occ. eigenvalues --   -0.41565  -0.41450  -0.41028  -0.40752  -0.40642
 Alpha  occ. eigenvalues --   -0.40548  -0.40412  -0.39474  -0.39184  -0.38655
 Alpha  occ. eigenvalues --   -0.38458  -0.38233  -0.38164  -0.37782  -0.37618
 Alpha  occ. eigenvalues --   -0.37386  -0.37097  -0.36656  -0.36482  -0.36330
 Alpha  occ. eigenvalues --   -0.36077  -0.35773  -0.35466  -0.35259  -0.34801
 Alpha  occ. eigenvalues --   -0.34779  -0.34272  -0.34211  -0.33966  -0.33821
 Alpha  occ. eigenvalues --   -0.33344  -0.33225  -0.33160  -0.32968  -0.32243
 Alpha  occ. eigenvalues --   -0.31949  -0.31448  -0.31016  -0.30959  -0.30895
 Alpha  occ. eigenvalues --   -0.30410  -0.29798  -0.29638  -0.29273  -0.28668
 Alpha  occ. eigenvalues --   -0.28106  -0.26657  -0.25827  -0.24121  -0.23120
 Alpha  occ. eigenvalues --   -0.21538  -0.18533  -0.16632
 Alpha virt. eigenvalues --   -0.08051  -0.05627  -0.01720   0.01124   0.02266
 Alpha virt. eigenvalues --    0.04026   0.05023   0.05476   0.06093   0.06653
 Alpha virt. eigenvalues --    0.07035   0.07289   0.07328   0.07666   0.08389

 Mulliken charges:
               1
     1  C    0.023940
     2  C    0.010408
     3  C   -0.163611
     4  C   -0.175539
     5  C   -0.173542
     6  C   -0.185540
     7  C    0.028459
     8  C    0.077564
     9  C   -0.218280
    10  C   -0.235970
    11  C    0.062404
    12  C    0.096013
    13  C   -0.288183
    14  C   -0.282035
    15  C   -0.304380
    16  C   -0.275521
    17  C   -0.117166
    18  C   -0.166433
    19  C   -0.318403
    20  C   -0.324280
    21  C   -0.091287
    22  C   -0.089973
    23  C    0.130968
    24  C    0.111732
    25  C   -0.366713
    26  C   -0.373062
    27  C   -0.147352
    28  C   -0.145213
    29  C   -0.062062
    30  C   -0.025642
    31  C   -0.086045
    32  C   -0.116136
    33  C    0.126370
    34  C    0.082608
    35  C   -0.388325
    36  C   -0.338796
    37  C   -0.128259
    38  C   -0.104444
    39  C   -0.088328
    40  C   -0.095603
    41  H    0.078917
    42  H    0.072409
    43  H    0.094571
    44  H    0.067252
    45  H    0.075961
    46  H    0.104198
    47  H    0.100071
    48  H    0.100189
    49  H    0.098027
    50  H    0.095331
    51  H    0.086007
    52  H    0.097153
    53  H    0.085009
    54  H    0.090892
    55  H    0.104017
    56  H    0.097024
    57  H    0.083902
    58  H    0.086999
    59  H    0.097344
    60  H    0.082338
    61  H    0.101459
    62  H    0.082540
    63  H    0.082371
    64  H    0.109451
    65  H    0.081779
    66  H    0.077175
    67  H    0.080645
    68  H    0.112869
    69  H    0.087815
    70  H    0.124992
    71  H    0.091375
    72  H    0.095972
    73  H    0.082419
    74  H    0.062161
    75  H    0.096035
    76  H    0.121282
    77  H    0.099051
    78  H    0.135064
    79  H    0.104560
    80  H    0.109175
    81  H    0.082753
    82  H    0.061233
    83  H    0.055461
    84  H    0.052555
    85  H    0.068750
    86  H    0.075200
    87  H    0.124595
    88  H    0.112061
    89  H    0.109974
    90  H    0.147499
    91  H    0.135556
    92  H    0.078229
    93  H    0.076071
    94  H    0.069300
    95  H    0.061581
    96  H    0.079039
 Sum of Mulliken charges =  -0.00000

 Dipole moment (field-independent basis, Debye):
    X=              0.7164    Y=              0.3309    Z=             -0.4333  Tot=              0.9002
 Quadrupole moment (field-independent basis, Debye-Ang):
   XX=           -222.6856   YY=           -232.4499   ZZ=           -255.7219
   XY=             -6.9697   XZ=             -2.3690   YZ=             -1.2689

 Normal termination of Gaussian 16 at Fri Jul 26 21:43:09 2019.
