 Gaussian 16, Revision A.03,
 Gaussian 16:  ES64L-G16RevA.03 25-Dec-2016

 ---------------------------------
 # td=(NStates=1) B3LYP/6-31G(d,p)
 ---------------------------------

 --
 TD
 --
 Symbolic Z-matrix:
 Charge =  0 Multiplicity = 1

                         Standard orientation:
 ---------------------------------------------------------------------
 Center     Atomic      Atomic             Coordinates (Angstroms)
 Number     Number       Type             X           Y           Z
 ---------------------------------------------------------------------
      1          6           0       12.071527    0.493424   -0.659799
      2          6           0      -12.179096   -0.143176    0.987618
      3          6           0       13.410973   -0.329838   -0.467187
      4          6           0      -13.090587    1.025197    1.394908
      5          6           0       13.241928   -1.831637   -0.493639
      6          6           0      -13.527120    1.953804    0.194461
      7          6           0       11.044912   -0.144789    0.332532
      8          6           0      -11.087146    0.327383   -0.027062
      9          6           0       12.400328   -2.217100    0.708455
     10          6           0      -12.320614    2.544759   -0.483495
     11          6           0       11.137421   -1.362051    0.902854
     12          6           0      -11.242230    1.578812   -0.639686
     13          6           0       11.629632    0.528133   -2.149086
     14          6           0       12.419794    1.952669   -0.297454
     15          6           0      -12.922523   -1.212104    0.339868
     16          6           0      -11.476967   -0.719014    2.265276
     17          6           0        9.858731    0.818649    0.289055
     18          6           0       -9.874736   -0.597813   -0.321767
     19          6           0       10.161430   -1.795941    1.950993
     20          6           0      -10.206524    2.131032   -1.727278
     21          6           0        8.553714    0.430520    0.373300
     22          6           0       -8.598905   -0.342282   -0.310269
     23          6           0        7.408740    1.297847    0.405938
     24          6           0       -7.501875   -1.283248   -0.458178
     25          6           0        7.775565    2.831768    0.487513
     26          6           0       -7.815951   -2.723552   -0.829348
     27          6           0        6.166874    0.897219    0.388289
     28          6           0       -6.130324   -0.817433   -0.282837
     29          6           0        4.943398    1.511043    0.432255
     30          6           0       -5.007496   -1.668452   -0.555244
     31          6           0        3.711846    0.844185    0.254659
     32          6           0       -3.689631   -1.072098   -0.296149
     33          6           0        2.406760    1.512902    0.234951
     34          6           0       -2.483571   -1.741723   -0.466554
     35          6           0        2.238148    2.898107    0.470736
     36          6           0       -2.551217   -3.285735   -0.740322
     37          6           0        1.316561    0.696591    0.036149
     38          6           0       -1.352255   -1.106498   -0.442664
     39          6           0        1.144377   -0.683515   -0.243273
     40          6           0        0.116674   -1.448490   -0.539204
     41          1           0       13.797653   -0.285697    0.597845
     42          1           0       14.205908   -0.281558   -1.145989
     43          1           0      -12.468694    1.553397    2.114652
     44          1           0      -13.978913    0.591543    1.802294
     45          1           0       14.382740   -2.244771   -0.403258
     46          1           0       12.760395   -2.400565   -1.310698
     47          1           0      -14.308851    2.565777    0.561345
     48          1           0      -14.202148    1.418116   -0.623346
     49          1           0       13.152139   -2.178592    1.621194
     50          1           0       12.072463   -3.268789    0.612798
     51          1           0      -11.830576    3.506998   -0.102992
     52          1           0      -12.664472    2.860044   -1.372556
     53          1           0       11.514724   -0.523041   -2.521672
     54          1           0       12.344014    0.815851   -2.775523
     55          1           0       10.679321    1.047735   -2.634011
     56          1           0       12.582129    2.089089    0.891404
     57          1           0       11.644903    2.828518   -0.470919
     58          1           0       13.252903    2.357773   -0.871280
     59          1           0      -13.540947   -0.807865   -0.641038
     60          1           0      -13.662963   -1.812178    1.004487
     61          1           0      -12.444862   -2.082736   -0.087303
     62          1           0      -10.930130   -0.024549    2.568301
     63          1           0      -10.953974   -1.454386    2.111367
     64          1           0      -12.369148   -0.985159    3.064683
     65          1           0       10.036840    2.023375   -0.114162
     66          1           0      -10.340944   -1.645821   -0.310643
     67          1           0        9.653078   -0.953289    2.448601
     68          1           0       10.644870   -2.225971    2.869722
     69          1           0        9.498618   -2.578518    1.691078
     70          1           0       -9.334975    1.420318   -1.969862
     71          1           0       -9.782018    3.145597   -1.381821
     72          1           0      -10.513543    2.359970   -2.702588
     73          1           0        8.151049   -0.697313    0.461797
     74          1           0       -8.170149    0.713702   -0.033231
     75          1           0        8.050895    3.059197    1.577077
     76          1           0        6.882630    3.483406    0.584387
     77          1           0        8.440561    3.087682   -0.174047
     78          1           0       -8.694013   -2.799846   -1.549195
     79          1           0       -8.055999   -3.551571    0.134349
     80          1           0       -6.950652   -3.313700   -1.440462
     81          1           0        6.055196   -0.111310    0.311072
     82          1           0       -5.995056    0.296890   -0.140925
     83          1           0        5.026729    2.547624    0.530810
     84          1           0       -5.050378   -2.838014   -0.803618
     85          1           0        3.725580   -0.173980    0.151350
     86          1           0       -3.707338    0.008498    0.178274
     87          1           0        2.749737    3.411707    1.453319
     88          1           0        1.125086    3.228570    0.354305
     89          1           0        2.892206    3.644645   -0.408980
     90          1           0       -2.812355   -3.397039   -1.859685
     91          1           0       -2.979672   -3.772457   -0.044425
     92          1           0       -1.516009   -3.623480   -0.696990
     93          1           0        0.215766    1.210890   -0.062430
     94          1           0       -1.332374   -0.037350   -0.070334
     95          1           0        2.154650   -1.176988   -0.356111
     96          1           0        0.294981   -2.515711   -0.732328
 ---------------------------------------------------------------------

 SCF Done:  E(RB3LYP) =  -1557.48256958     A.U. after   16 cycles

 Excitation energies and oscillator strengths:

 Excited State   1:      Singlet-A      2.1374 eV  580.08 nm  f=2.8537  <S**2>=0.000
     148 ->149         0.70643
 This state for optimization and/or second-order correction.
 Total Energy, E(TD-HF/TD-DFT) =  -1557.40402300
 Copying the excited state density for this state as the 1-particle RhoCI density.

 The electronic state is 1-A.
 Alpha  occ. eigenvalues --  -10.21662 -10.21435 -10.21244 -10.20945 -10.20809
 Alpha  occ. eigenvalues --  -10.20606 -10.20409 -10.20298 -10.20132 -10.20077
 Alpha  occ. eigenvalues --  -10.19794 -10.19553 -10.19547 -10.19532 -10.19397
 Alpha  occ. eigenvalues --  -10.19373 -10.19367 -10.19287 -10.19209 -10.19169
 Alpha  occ. eigenvalues --  -10.19164 -10.19076 -10.19054 -10.19025 -10.19014
 Alpha  occ. eigenvalues --  -10.18730 -10.18708 -10.18524 -10.18414 -10.17909
 Alpha  occ. eigenvalues --  -10.17863 -10.17770 -10.17766 -10.17584 -10.17518
 Alpha  occ. eigenvalues --  -10.17511 -10.17473 -10.17373 -10.16363 -10.14845
 Alpha  occ. eigenvalues --   -0.84737  -0.84583  -0.84073  -0.83294  -0.82343
 Alpha  occ. eigenvalues --   -0.81169  -0.79095  -0.78869  -0.78163  -0.77638
 Alpha  occ. eigenvalues --   -0.76482  -0.75532  -0.73739  -0.71593  -0.71054
 Alpha  occ. eigenvalues --   -0.70256  -0.69548  -0.69060  -0.68237  -0.68023
 Alpha  occ. eigenvalues --   -0.67837  -0.67380  -0.66801  -0.66646  -0.65592
 Alpha  occ. eigenvalues --   -0.63102  -0.62040  -0.59935  -0.58581  -0.57499
 Alpha  occ. eigenvalues --   -0.56794  -0.55742  -0.54895  -0.54341  -0.52902
 Alpha  occ. eigenvalues --   -0.52214  -0.51353  -0.49241  -0.49038  -0.48679
 Alpha  occ. eigenvalues --   -0.48263  -0.47887  -0.47479  -0.46938  -0.46357
 Alpha  occ. eigenvalues --   -0.45669  -0.45092  -0.44845  -0.44632  -0.44327
 Alpha  occ. eigenvalues --   -0.44018  -0.43829  -0.43238  -0.42879  -0.42491
 Alpha  occ. eigenvalues --   -0.42457  -0.41741  -0.41291  -0.40918  -0.40631
 Alpha  occ. eigenvalues --   -0.40231  -0.39550  -0.39121  -0.38970  -0.38844
 Alpha  occ. eigenvalues --   -0.38517  -0.38508  -0.38417  -0.38210  -0.37956
 Alpha  occ. eigenvalues --   -0.37615  -0.37508  -0.36988  -0.36646  -0.36207
 Alpha  occ. eigenvalues --   -0.36145  -0.35644  -0.35329  -0.35201  -0.34878
 Alpha  occ. eigenvalues --   -0.34757  -0.34555  -0.34380  -0.34160  -0.33853
 Alpha  occ. eigenvalues --   -0.33829  -0.33060  -0.32776  -0.32517  -0.32502
 Alpha  occ. eigenvalues --   -0.32021  -0.31467  -0.31110  -0.31053  -0.30907
 Alpha  occ. eigenvalues --   -0.30197  -0.29847  -0.29173  -0.29123  -0.29004
 Alpha  occ. eigenvalues --   -0.28106  -0.27706  -0.26826  -0.24868  -0.22753
 Alpha  occ. eigenvalues --   -0.21653  -0.18601  -0.16546
 Alpha virt. eigenvalues --   -0.08426  -0.05750  -0.02047   0.00646   0.02118
 Alpha virt. eigenvalues --    0.03993   0.05590   0.06629   0.06776   0.07127
 Alpha virt. eigenvalues --    0.07347   0.07731   0.07801   0.08391   0.08614

 Mulliken charges:
               1
     1  C    0.008865
     2  C   -0.009288
     3  C   -0.168528
     4  C   -0.170264
     5  C   -0.188533
     6  C   -0.201882
     7  C    0.077609
     8  C    0.033728
     9  C   -0.221865
    10  C   -0.200572
    11  C    0.066506
    12  C    0.062521
    13  C   -0.305415
    14  C   -0.285678
    15  C   -0.286615
    16  C   -0.257492
    17  C   -0.131146
    18  C   -0.141178
    19  C   -0.378230
    20  C   -0.371529
    21  C   -0.092623
    22  C   -0.073330
    23  C    0.126303
    24  C    0.118722
    25  C   -0.368839
    26  C   -0.355315
    27  C   -0.112435
    28  C   -0.128031
    29  C   -0.054474
    30  C   -0.091339
    31  C   -0.123328
    32  C   -0.124070
    33  C    0.202440
    34  C    0.128101
    35  C   -0.377934
    36  C   -0.362059
    37  C   -0.147696
    38  C   -0.130042
    39  C   -0.054423
    40  C   -0.105333
    41  H    0.097520
    42  H    0.094931
    43  H    0.098272
    44  H    0.092841
    45  H    0.062992
    46  H    0.098145
    47  H    0.096364
    48  H    0.080715
    49  H    0.087492
    50  H    0.093305
    51  H    0.096405
    52  H    0.119859
    53  H    0.092362
    54  H    0.117411
    55  H    0.093610
    56  H    0.083724
    57  H    0.077720
    58  H    0.105160
    59  H    0.071217
    60  H    0.076528
    61  H    0.104417
    62  H    0.109846
    63  H    0.104565
    64  H    0.061998
    65  H    0.075512
    66  H    0.084728
    67  H    0.126845
    68  H    0.097539
    69  H    0.120119
    70  H    0.105904
    71  H    0.088770
    72  H    0.115733
    73  H    0.072945
    74  H    0.082112
    75  H    0.111346
    76  H    0.097258
    77  H    0.126593
    78  H    0.117193
    79  H    0.080920
    80  H    0.091351
    81  H    0.051222
    82  H    0.090378
    83  H    0.064843
    84  H    0.098887
    85  H    0.079323
    86  H    0.079087
    87  H    0.110235
    88  H    0.111849
    89  H    0.067773
    90  H    0.119738
    91  H    0.134265
    92  H    0.103671
    93  H    0.055943
    94  H    0.063694
    95  H    0.072943
    96  H    0.078576
 Sum of Mulliken charges =  -0.00000

 Dipole moment (field-independent basis, Debye):
    X=              0.9167    Y=             -0.2011    Z=             -0.0988  Tot=              0.9437
 Quadrupole moment (field-independent basis, Debye-Ang):
   XX=           -221.2738   YY=           -234.0425   ZZ=           -253.9750
   XY=             -4.2578   XZ=             -1.6761   YZ=              0.8952

 Normal termination of Gaussian 16 at Sun Jul 28 20:57:20 2019.
