 Gaussian 16, Revision A.03,
 Gaussian 16:  ES64L-G16RevA.03 25-Dec-2016

 ---------------------------------
 # td=(NStates=1) B3LYP/6-31G(d,p)
 ---------------------------------

 --
 TD
 --
 Symbolic Z-matrix:
 Charge =  0 Multiplicity = 1

                         Standard orientation:
 ---------------------------------------------------------------------
 Center     Atomic      Atomic             Coordinates (Angstroms)
 Number     Number       Type             X           Y           Z
 ---------------------------------------------------------------------
      1          6           0       12.196872   -0.574615    0.597450
      2          6           0      -12.154578    0.031406   -0.771818
      3          6           0       13.459969    0.390586    0.483305
      4          6           0      -12.906448   -1.208401   -1.274125
      5          6           0       13.046379    1.928531    0.732540
      6          6           0      -13.365356   -2.170537   -0.073634
      7          6           0       10.987328    0.003063   -0.235063
      8          6           0      -11.021714   -0.418845    0.202401
      9          6           0       12.201291    2.243434   -0.474332
     10          6           0      -12.062299   -2.659227    0.636110
     11          6           0       11.035232    1.282066   -0.663178
     12          6           0      -11.016598   -1.655990    0.721365
     13          6           0       11.783641   -0.775620    2.080172
     14          6           0       12.653407   -1.951636    0.002953
     15          6           0      -13.151722    0.893040    0.057140
     16          6           0      -11.788904    0.833393   -2.015261
     17          6           0        9.887759   -0.873684   -0.212398
     18          6           0       -9.874238    0.614590    0.321209
     19          6           0        9.932488    1.858436   -1.521123
     20          6           0       -9.842362   -2.137046    1.774940
     21          6           0        8.519126   -0.536582   -0.173143
     22          6           0       -8.578266    0.325858    0.317811
     23          6           0        7.485456   -1.405522   -0.284808
     24          6           0       -7.566080    1.337151    0.425949
     25          6           0        7.727716   -2.871106   -0.558953
     26          6           0       -7.868602    2.826568    0.849264
     27          6           0        6.198945   -0.875413   -0.246622
     28          6           0       -6.293393    0.955281    0.288697
     29          6           0        4.859340   -1.436464   -0.316063
     30          6           0       -5.039253    1.642141    0.433841
     31          6           0        3.727018   -0.757693   -0.271292
     32          6           0       -3.776223    1.162751    0.160250
     33          6           0        2.422805   -1.280180   -0.413301
     34          6           0       -2.474147    1.849598    0.153500
     35          6           0        2.271504   -2.813856   -0.717501
     36          6           0       -2.616273    3.399930    0.403085
     37          6           0        1.327770   -0.563665   -0.360057
     38          6           0       -1.364997    1.139588   -0.046663
     39          6           0        1.156420    0.903788   -0.134467
     40          6           0       -0.038242    1.615014   -0.021175
     41          1           0       14.109370    0.255657   -0.250277
     42          1           0       14.269538    0.141769    1.396985
     43          1           0      -12.468723   -1.914367   -2.241605
     44          1           0      -13.861377   -0.830698   -1.543676
     45          1           0       13.918278    2.515064    0.986441
     46          1           0       12.365828    1.973303    1.748241
     47          1           0      -13.730258   -3.158063   -0.720194
     48          1           0      -14.064960   -1.748715    0.555559
     49          1           0       12.714533    2.329286   -1.455838
     50          1           0       11.734596    3.187664   -0.402391
     51          1           0      -11.492889   -3.434050    0.017310
     52          1           0      -12.120582   -2.972959    1.623304
     53          1           0       11.820170    0.157594    2.661306
     54          1           0       12.452057   -1.579641    2.721474
     55          1           0       10.802948   -1.374175    2.072798
     56          1           0       12.863758   -1.718016   -1.200748
     57          1           0       11.960279   -2.896403    0.139624
     58          1           0       13.533438   -2.252579    0.569512
     59          1           0      -13.684615    0.544818    0.998408
     60          1           0      -13.784265    1.289492   -0.621791
     61          1           0      -12.541617    1.786366    0.480695
     62          1           0      -10.866021    0.520880   -2.592347
     63          1           0      -11.164328    1.859340   -1.764545
     64          1           0      -12.440048    0.959790   -2.800131
     65          1           0       10.131412   -1.913716   -0.489399
     66          1           0      -10.285952    1.573294    0.179859
     67          1           0        9.416859    1.071204   -1.868159
     68          1           0       10.351765    2.522938   -2.259086
     69          1           0        8.986518    2.447189   -0.954632
     70          1           0       -8.975454   -1.417574    2.022896
     71          1           0       -9.134434   -2.742589    1.433829
     72          1           0      -10.377097   -2.587717    2.614361
     73          1           0        8.099366    0.513780    0.242199
     74          1           0       -8.172792   -0.793797    0.126085
     75          1           0        8.162703   -3.014916   -1.448086
     76          1           0        6.774570   -3.322432   -0.723667
     77          1           0        8.342021   -3.406748    0.104234
     78          1           0       -8.518116    2.876175    1.729446
     79          1           0       -8.433332    3.272497   -0.096463
     80          1           0       -6.964186    3.262964    1.077635
     81          1           0        6.211630    0.217821    0.073257
     82          1           0       -6.236649   -0.177515    0.111711
     83          1           0        4.866117   -2.564101   -0.498455
     84          1           0       -5.011726    2.655192    0.770486
     85          1           0        3.745548    0.259889   -0.039076
     86          1           0       -3.555698    0.047435    0.026715
     87          1           0        2.370297   -2.837512   -1.837682
     88          1           0        1.182140   -3.021059   -0.480606
     89          1           0        3.107315   -3.259704   -0.117376
     90          1           0       -3.091213    3.357979    1.598620
     91          1           0       -3.247851    3.955086   -0.216951
     92          1           0       -1.531554    4.044536    0.504338
     93          1           0        0.403828   -0.828255   -0.885055
     94          1           0       -1.498112    0.206591   -0.250059
     95          1           0        1.952305    1.444608    0.071503
     96          1           0        0.120021    2.896285   -0.042569
 ---------------------------------------------------------------------

 SCF Done:  E(RB3LYP) =  -1557.51738421     A.U. after   16 cycles

 Excitation energies and oscillator strengths:

 Excited State   1:      Singlet-A      2.2381 eV  553.98 nm  f=2.8929  <S**2>=0.000
     148 ->149         0.70684
 This state for optimization and/or second-order correction.
 Total Energy, E(TD-HF/TD-DFT) =  -1557.43513682
 Copying the excited state density for this state as the 1-particle RhoCI density.

 The electronic state is 1-A.
 Alpha  occ. eigenvalues --  -10.21392 -10.20669 -10.20599 -10.20583 -10.20532
 Alpha  occ. eigenvalues --  -10.19645 -10.19593 -10.19552 -10.19506 -10.19498
 Alpha  occ. eigenvalues --  -10.19428 -10.19425 -10.19405 -10.19237 -10.19230
 Alpha  occ. eigenvalues --  -10.19226 -10.19196 -10.19140 -10.19089 -10.19081
 Alpha  occ. eigenvalues --  -10.18919 -10.18882 -10.18797 -10.18598 -10.18508
 Alpha  occ. eigenvalues --  -10.18438 -10.18339 -10.18298 -10.18256 -10.18190
 Alpha  occ. eigenvalues --  -10.18187 -10.18126 -10.18109 -10.17994 -10.17942
 Alpha  occ. eigenvalues --  -10.17581 -10.17493 -10.17381 -10.17249 -10.16663
 Alpha  occ. eigenvalues --   -0.84792  -0.84516  -0.84034  -0.83187  -0.82575
 Alpha  occ. eigenvalues --   -0.81989  -0.78706  -0.78504  -0.77870  -0.77267
 Alpha  occ. eigenvalues --   -0.76430  -0.75235  -0.73489  -0.71902  -0.71578
 Alpha  occ. eigenvalues --   -0.70106  -0.69421  -0.68551  -0.68141  -0.67544
 Alpha  occ. eigenvalues --   -0.67517  -0.67129  -0.66829  -0.66581  -0.66185
 Alpha  occ. eigenvalues --   -0.63302  -0.62457  -0.60144  -0.59345  -0.57713
 Alpha  occ. eigenvalues --   -0.57116  -0.56067  -0.55047  -0.53581  -0.53003
 Alpha  occ. eigenvalues --   -0.52614  -0.51559  -0.50845  -0.49633  -0.48869
 Alpha  occ. eigenvalues --   -0.48469  -0.47594  -0.47160  -0.46698  -0.45902
 Alpha  occ. eigenvalues --   -0.45725  -0.45013  -0.44582  -0.44163  -0.43803
 Alpha  occ. eigenvalues --   -0.43354  -0.42943  -0.42635  -0.42316  -0.42077
 Alpha  occ. eigenvalues --   -0.41959  -0.41710  -0.41495  -0.41455  -0.41161
 Alpha  occ. eigenvalues --   -0.40916  -0.40545  -0.40301  -0.39890  -0.39407
 Alpha  occ. eigenvalues --   -0.39188  -0.38894  -0.38742  -0.38372  -0.38076
 Alpha  occ. eigenvalues --   -0.37765  -0.37220  -0.36967  -0.36710  -0.36695
 Alpha  occ. eigenvalues --   -0.36328  -0.35777  -0.35557  -0.35418  -0.35114
 Alpha  occ. eigenvalues --   -0.34311  -0.34153  -0.33963  -0.33812  -0.33699
 Alpha  occ. eigenvalues --   -0.33358  -0.33152  -0.32781  -0.32731  -0.32690
 Alpha  occ. eigenvalues --   -0.32495  -0.31916  -0.31845  -0.31089  -0.30798
 Alpha  occ. eigenvalues --   -0.30480  -0.29789  -0.29398  -0.29269  -0.28628
 Alpha  occ. eigenvalues --   -0.28225  -0.27432  -0.26379  -0.24534  -0.23248
 Alpha  occ. eigenvalues --   -0.21225  -0.18710  -0.16757
 Alpha virt. eigenvalues --   -0.08095  -0.05541  -0.01682   0.00920   0.03378
 Alpha virt. eigenvalues --    0.04699   0.05727   0.06383   0.06584   0.06875
 Alpha virt. eigenvalues --    0.07447   0.07727   0.08150   0.08412   0.08884

 Mulliken charges:
               1
     1  C    0.017385
     2  C   -0.003101
     3  C   -0.174372
     4  C   -0.163168
     5  C   -0.188997
     6  C   -0.195295
     7  C    0.107062
     8  C    0.070072
     9  C   -0.208296
    10  C   -0.198263
    11  C    0.038235
    12  C    0.027475
    13  C   -0.285019
    14  C   -0.297157
    15  C   -0.297698
    16  C   -0.314959
    17  C   -0.163157
    18  C   -0.114559
    19  C   -0.346900
    20  C   -0.367031
    21  C   -0.110205
    22  C   -0.102227
    23  C    0.158447
    24  C    0.125099
    25  C   -0.380791
    26  C   -0.355567
    27  C   -0.156474
    28  C   -0.121430
    29  C   -0.091994
    30  C   -0.101742
    31  C   -0.059275
    32  C   -0.117304
    33  C    0.098157
    34  C    0.144688
    35  C   -0.357973
    36  C   -0.349222
    37  C   -0.147632
    38  C   -0.093925
    39  C   -0.075464
    40  C   -0.108012
    41  H    0.108389
    42  H    0.041962
    43  H    0.066322
    44  H    0.095784
    45  H    0.096663
    46  H    0.077821
    47  H    0.071906
    48  H    0.112305
    49  H    0.107270
    50  H    0.108308
    51  H    0.106589
    52  H    0.104541
    53  H    0.107235
    54  H    0.064545
    55  H    0.103082
    56  H    0.076314
    57  H    0.082788
    58  H    0.108659
    59  H    0.100140
    60  H    0.111944
    61  H    0.086351
    62  H    0.106130
    63  H    0.063053
    64  H    0.119738
    65  H    0.090321
    66  H    0.084570
    67  H    0.134356
    68  H    0.101033
    69  H    0.072367
    70  H    0.101341
    71  H    0.124043
    72  H    0.100256
    73  H    0.076324
    74  H    0.080893
    75  H    0.135501
    76  H    0.103452
    77  H    0.125227
    78  H    0.123686
    79  H    0.103433
    80  H    0.119568
    81  H    0.061752
    82  H    0.059566
    83  H    0.073810
    84  H    0.077375
    85  H    0.078562
    86  H    0.064636
    87  H    0.125070
    88  H    0.112143
    89  H    0.119162
    90  H    0.086587
    91  H    0.141198
    92  H    0.080099
    93  H    0.084318
    94  H    0.065762
    95  H    0.071040
    96  H    0.055301
 Sum of Mulliken charges =  -0.00000

 Dipole moment (field-independent basis, Debye):
    X=             -0.3404    Y=             -0.0778    Z=             -0.6806  Tot=              0.7649
 Quadrupole moment (field-independent basis, Debye-Ang):
   XX=           -215.2318   YY=           -237.6575   ZZ=           -253.9890
   XY=              1.2298   XZ=             -2.5317   YZ=              1.5024

 Normal termination of Gaussian 16 at Tue Jul 30 16:41:41 2019.
