 Gaussian 16, Revision A.03,
 Gaussian 16:  ES64L-G16RevA.03 25-Dec-2016

 ---------------------------------
 # td=(NStates=1) B3LYP/6-31G(d,p)
 ---------------------------------

 --
 TD
 --
 Symbolic Z-matrix:
 Charge =  0 Multiplicity = 1

                         Standard orientation:
 ---------------------------------------------------------------------
 Center     Atomic      Atomic             Coordinates (Angstroms)
 Number     Number       Type             X           Y           Z
 ---------------------------------------------------------------------
      1          6           0      -12.188723   -0.598383   -0.642055
      2          6           0       12.086154   -0.043591    0.860443
      3          6           0      -13.386164    0.226021   -0.488079
      4          6           0       12.901843   -1.254176    1.207256
      5          6           0      -13.209148    1.770416   -0.438019
      6          6           0       13.295798   -2.103358    0.167268
      7          6           0      -11.083349    0.017570    0.176943
      8          6           0       10.925982   -0.507173   -0.032010
      9          6           0      -12.232072    2.139308    0.645383
     10          6           0       12.125988   -2.606794   -0.597599
     11          6           0      -11.009428    1.177221    0.810587
     12          6           0       11.052194   -1.559569   -0.772449
     13          6           0      -11.724080   -0.704760   -2.088892
     14          6           0      -12.589102   -2.087805   -0.084834
     15          6           0       12.948863    1.090249    0.333671
     16          6           0       11.547392    0.446766    2.264056
     17          6           0       -9.823453   -0.876528    0.451391
     18          6           0        9.923686    0.557580   -0.190264
     19          6           0      -10.134607    1.783085    1.881056
     20          6           0       10.001213   -2.021522   -1.715917
     21          6           0       -8.542935   -0.511813    0.126877
     22          6           0        8.546355    0.345902   -0.283585
     23          6           0       -7.358260   -1.286875    0.300417
     24          6           0        7.572353    1.288684   -0.367628
     25          6           0       -7.559404   -2.752225    0.652348
     26          6           0        7.972116    2.734320   -0.634969
     27          6           0       -6.141283   -0.783186    0.181435
     28          6           0        6.213459    0.985309   -0.340337
     29          6           0       -4.846920   -1.341649    0.330201
     30          6           0        5.064314    1.674626   -0.428210
     31          6           0       -3.721202   -0.648858    0.009217
     32          6           0        3.770549    1.099643   -0.322357
     33          6           0       -2.410982   -1.196825    0.112403
     34          6           0        2.546884    1.869082   -0.473285
     35          6           0       -2.194075   -2.623395    0.443652
     36          6           0        2.582026    3.439237   -0.569704
     37          6           0       -1.261416   -0.427884    0.012908
     38          6           0        1.407258    1.112292   -0.350409
     39          6           0       -1.116737    0.965096   -0.340713
     40          6           0        0.035507    1.700375   -0.380019
     41          1           0      -14.010687   -0.016879    0.341784
     42          1           0      -14.297294   -0.206697   -1.299018
     43          1           0       12.250836   -1.750544    1.837756
     44          1           0       13.878318   -0.878728    1.683927
     45          1           0      -14.077533    2.226866   -0.252791
     46          1           0      -12.879955    2.056927   -1.558713
     47          1           0       13.804741   -2.946585    0.399078
     48          1           0       13.795351   -1.556541   -0.540754
     49          1           0      -12.727870    2.030077    1.772277
     50          1           0      -11.702508    3.111972    0.573532
     51          1           0       11.769257   -3.422148    0.103563
     52          1           0       12.461692   -3.279006   -1.333765
     53          1           0      -11.729164    0.166488   -2.626224
     54          1           0      -12.555313   -1.288394   -2.463784
     55          1           0      -10.873214   -1.280118   -2.076675
     56          1           0      -12.968458   -1.878666    1.127395
     57          1           0      -11.793618   -2.910797    0.071096
     58          1           0      -13.374865   -2.487633   -0.647138
     59          1           0       13.305005    0.784771   -0.530073
     60          1           0       13.783211    1.234773    0.933923
     61          1           0       12.209394    2.097880    0.364723
     62          1           0       10.500214   -0.304260    2.294339
     63          1           0       10.903915    1.493160    2.180050
     64          1           0       12.381067    0.244829    2.993203
     65          1           0      -10.040142   -1.946461    0.765552
     66          1           0       10.268097    1.687584   -0.157227
     67          1           0       -9.315314    1.040073    2.432354
     68          1           0      -10.681959    2.373568    2.682685
     69          1           0       -9.578537    2.327107    1.263241
     70          1           0        9.356394   -1.124506   -1.931134
     71          1           0        9.436292   -2.809574   -1.294019
     72          1           0       10.383204   -2.370875   -2.574725
     73          1           0       -8.279588    0.469645   -0.028345
     74          1           0        8.276686   -0.569724   -0.010696
     75          1           0       -7.994529   -2.795618    1.763544
     76          1           0       -6.703791   -3.444392    0.874018
     77          1           0       -8.233662   -3.187302    0.014884
     78          1           0        8.813656    2.862008   -1.504848
     79          1           0        8.424693    3.098565    0.216228
     80          1           0        7.030429    3.196011   -1.043133
     81          1           0       -6.275901    0.286365    0.175931
     82          1           0        5.979499   -0.200095   -0.045649
     83          1           0       -4.868833   -2.384586    0.539548
     84          1           0        5.163721    2.626021   -0.939530
     85          1           0       -3.744936    0.503358   -0.159423
     86          1           0        3.951825    0.057194   -0.150516
     87          1           0       -2.468445   -2.556007    1.563793
     88          1           0       -1.042529   -3.031734    0.565383
     89          1           0       -2.634029   -3.513428   -0.185789
     90          1           0        3.052365    3.838267   -1.453991
     91          1           0        3.204385    3.897845    0.224798
     92          1           0        1.523125    3.999795   -0.527952
     93          1           0       -0.421423   -1.080837   -0.070889
     94          1           0        1.383820   -0.048532   -0.274946
     95          1           0       -2.016016    1.722313   -0.086533
     96          1           0        0.079368    2.918732   -0.547398
 ---------------------------------------------------------------------

 SCF Done:  E(RB3LYP) =  -1557.48307535     A.U. after   16 cycles

 Excitation energies and oscillator strengths:

 Excited State   1:      Singlet-A      2.1026 eV  589.67 nm  f=3.0757  <S**2>=0.000
     148 ->149         0.70437
     148 <-149        -0.11830
 This state for optimization and/or second-order correction.
 Total Energy, E(TD-HF/TD-DFT) =  -1557.40580637
 Copying the excited state density for this state as the 1-particle RhoCI density.

 The electronic state is 1-A.
 Alpha  occ. eigenvalues --  -10.21432 -10.20668 -10.20516 -10.20392 -10.20385
 Alpha  occ. eigenvalues --  -10.20047 -10.20021 -10.20008 -10.20003 -10.19737
 Alpha  occ. eigenvalues --  -10.19633 -10.19579 -10.19487 -10.19348 -10.19325
 Alpha  occ. eigenvalues --  -10.19245 -10.19084 -10.18868 -10.18828 -10.18779
 Alpha  occ. eigenvalues --  -10.18766 -10.18728 -10.18638 -10.18565 -10.18539
 Alpha  occ. eigenvalues --  -10.18495 -10.18363 -10.18285 -10.18166 -10.18121
 Alpha  occ. eigenvalues --  -10.17733 -10.17723 -10.17323 -10.17285 -10.16774
 Alpha  occ. eigenvalues --  -10.16474 -10.15886 -10.15516 -10.15508 -10.14646
 Alpha  occ. eigenvalues --   -0.86934  -0.85366  -0.83869  -0.83530  -0.82483
 Alpha  occ. eigenvalues --   -0.81610  -0.79467  -0.79142  -0.78990  -0.78104
 Alpha  occ. eigenvalues --   -0.76984  -0.75823  -0.74662  -0.72070  -0.71846
 Alpha  occ. eigenvalues --   -0.69221  -0.69038  -0.68915  -0.68547  -0.68492
 Alpha  occ. eigenvalues --   -0.68175  -0.67872  -0.66257  -0.66145  -0.65776
 Alpha  occ. eigenvalues --   -0.63411  -0.62608  -0.59793  -0.59202  -0.57116
 Alpha  occ. eigenvalues --   -0.56944  -0.55773  -0.55313  -0.53718  -0.52967
 Alpha  occ. eigenvalues --   -0.52242  -0.51655  -0.50955  -0.50022  -0.48987
 Alpha  occ. eigenvalues --   -0.48595  -0.47857  -0.47052  -0.46744  -0.46386
 Alpha  occ. eigenvalues --   -0.45689  -0.45366  -0.44916  -0.44826  -0.44299
 Alpha  occ. eigenvalues --   -0.43680  -0.43338  -0.42857  -0.42579  -0.42451
 Alpha  occ. eigenvalues --   -0.42220  -0.42086  -0.41781  -0.41445  -0.41351
 Alpha  occ. eigenvalues --   -0.41145  -0.40712  -0.40658  -0.40432  -0.40227
 Alpha  occ. eigenvalues --   -0.39547  -0.39420  -0.38880  -0.38601  -0.38181
 Alpha  occ. eigenvalues --   -0.38069  -0.37894  -0.36900  -0.36592  -0.36220
 Alpha  occ. eigenvalues --   -0.35813  -0.35722  -0.35539  -0.35455  -0.34898
 Alpha  occ. eigenvalues --   -0.34672  -0.34547  -0.34369  -0.34338  -0.33840
 Alpha  occ. eigenvalues --   -0.33783  -0.33299  -0.32788  -0.32536  -0.32349
 Alpha  occ. eigenvalues --   -0.31621  -0.31261  -0.31211  -0.30955  -0.30319
 Alpha  occ. eigenvalues --   -0.30112  -0.29884  -0.29472  -0.28907  -0.28479
 Alpha  occ. eigenvalues --   -0.27629  -0.27323  -0.26508  -0.24379  -0.23220
 Alpha  occ. eigenvalues --   -0.21699  -0.18786  -0.16121
 Alpha virt. eigenvalues --   -0.08498  -0.05515  -0.01435   0.01128   0.02894
 Alpha virt. eigenvalues --    0.04118   0.05628   0.05964   0.06391   0.06888
 Alpha virt. eigenvalues --    0.07415   0.08306   0.08422   0.08526   0.08703

 Mulliken charges:
               1
     1  C    0.000219
     2  C   -0.021843
     3  C   -0.168501
     4  C   -0.165270
     5  C   -0.177202
     6  C   -0.162201
     7  C    0.057246
     8  C    0.071379
     9  C   -0.206415
    10  C   -0.238568
    11  C    0.051486
    12  C    0.075843
    13  C   -0.273357
    14  C   -0.304302
    15  C   -0.260921
    16  C   -0.278982
    17  C   -0.159877
    18  C   -0.149108
    19  C   -0.342201
    20  C   -0.363767
    21  C   -0.078772
    22  C   -0.081442
    23  C    0.144437
    24  C    0.116460
    25  C   -0.381496
    26  C   -0.365074
    27  C   -0.129099
    28  C   -0.122006
    29  C   -0.078394
    30  C   -0.074984
    31  C   -0.094819
    32  C   -0.112602
    33  C    0.116816
    34  C    0.101968
    35  C   -0.372397
    36  C   -0.373100
    37  C   -0.121465
    38  C   -0.098556
    39  C   -0.095657
    40  C   -0.091231
    41  H    0.104979
    42  H    0.027493
    43  H    0.095090
    44  H    0.062785
    45  H    0.110552
    46  H    0.077917
    47  H    0.088537
    48  H    0.095114
    49  H    0.075619
    50  H    0.098429
    51  H    0.089904
    52  H    0.098501
    53  H    0.110362
    54  H    0.090001
    55  H    0.114503
    56  H    0.066284
    57  H    0.097318
    58  H    0.117813
    59  H    0.107869
    60  H    0.102594
    61  H    0.065957
    62  H    0.061829
    63  H    0.078828
    64  H    0.108524
    65  H    0.080996
    66  H    0.077197
    67  H    0.090477
    68  H    0.110707
    69  H    0.144405
    70  H    0.109947
    71  H    0.117504
    72  H    0.109394
    73  H    0.067435
    74  H    0.080637
    75  H    0.096396
    76  H    0.101552
    77  H    0.125611
    78  H    0.090846
    79  H    0.135492
    80  H    0.101657
    81  H    0.057993
    82  H    0.034443
    83  H    0.088097
    84  H    0.074731
    85  H    0.082054
    86  H    0.086772
    87  H    0.126741
    88  H    0.084956
    89  H    0.114000
    90  H    0.131889
    91  H    0.130911
    92  H    0.099233
    93  H    0.079213
    94  H    0.088253
    95  H    0.073496
    96  H    0.067920
 Sum of Mulliken charges =  -0.00000

 Dipole moment (field-independent basis, Debye):
    X=             -0.7584    Y=             -0.4904    Z=              0.2289  Tot=              0.9317
 Quadrupole moment (field-independent basis, Debye-Ang):
   XX=           -215.6126   YY=           -231.6298   ZZ=           -257.6392
   XY=             -8.2527   XZ=             -7.4148   YZ=             -1.0621

 Normal termination of Gaussian 16 at Mon Jul 29 12:32:01 2019.
