 Gaussian 16, Revision A.03,
 Gaussian 16:  ES64L-G16RevA.03 25-Dec-2016

 ---------------------------------
 # td=(NStates=1) B3LYP/6-31G(d,p)
 ---------------------------------

 --
 TD
 --
 Symbolic Z-matrix:
 Charge =  0 Multiplicity = 1

                         Standard orientation:
 ---------------------------------------------------------------------
 Center     Atomic      Atomic             Coordinates (Angstroms)
 Number     Number       Type             X           Y           Z
 ---------------------------------------------------------------------
      1          6           0       12.214700    0.498630   -0.640540
      2          6           0      -12.154058   -0.165605    0.734975
      3          6           0       13.454562   -0.365590   -0.421317
      4          6           0      -13.072509    0.985269    1.296938
      5          6           0       13.172422   -1.797373   -0.466214
      6          6           0      -13.535726    1.997967    0.206183
      7          6           0       10.990792   -0.093821    0.196102
      8          6           0      -11.029696    0.364932   -0.101772
      9          6           0       12.236965   -2.216425    0.710333
     10          6           0      -12.244603    2.600089   -0.426922
     11          6           0       11.040197   -1.255096    0.974984
     12          6           0      -11.088909    1.673264   -0.675531
     13          6           0       11.741478    0.417541   -2.179544
     14          6           0       12.470290    1.973803   -0.250596
     15          6           0      -12.931643   -1.309153    0.018584
     16          6           0      -11.591966   -0.802440    2.054450
     17          6           0        9.791116    0.745882    0.314162
     18          6           0       -9.857865   -0.570398   -0.267407
     19          6           0       10.032301   -1.758598    1.842109
     20          6           0       -9.983870    2.108632   -1.675009
     21          6           0        8.535646    0.494560    0.217255
     22          6           0       -8.520658   -0.371237   -0.250149
     23          6           0        7.364917    1.342859    0.393991
     24          6           0       -7.417470   -1.279364   -0.428211
     25          6           0        7.525506    2.724627    0.942645
     26          6           0       -7.772314   -2.662739   -0.829722
     27          6           0        6.122210    0.851006   -0.041053
     28          6           0       -6.137441   -0.767785   -0.161125
     29          6           0        4.831410    1.510728    0.170149
     30          6           0       -4.953578   -1.648397   -0.267165
     31          6           0        3.650248    0.791965   -0.007079
     32          6           0       -3.733387   -1.085004   -0.085430
     33          6           0        2.410905    1.377885    0.185345
     34          6           0       -2.492070   -1.705151   -0.323694
     35          6           0        2.378963    2.859388    0.456879
     36          6           0       -2.458515   -3.105188   -0.659753
     37          6           0        1.222795    0.680157    0.100312
     38          6           0       -1.363124   -0.966531   -0.271633
     39          6           0        1.097532   -0.661265   -0.224723
     40          6           0       -0.032698   -1.473868   -0.326379
     41          1           0       14.123585   -0.163330    0.269226
     42          1           0       14.306658   -0.116219   -1.247147
     43          1           0      -12.405237    1.632858    2.064783
     44          1           0      -13.903350    0.516225    1.976873
     45          1           0       14.123910   -2.317052   -0.560821
     46          1           0       12.658209   -1.929555   -1.439440
     47          1           0      -14.254715    2.713354    0.515693
     48          1           0      -14.109499    1.334862   -0.609560
     49          1           0       12.913407   -2.219076    1.640954
     50          1           0       11.813518   -3.172227    0.635427
     51          1           0      -11.767154    3.244818    0.154017
     52          1           0      -12.350635    3.140691   -1.536284
     53          1           0       11.855173   -0.778730   -2.648558
     54          1           0       12.537078    0.728025   -2.849340
     55          1           0       10.675993    1.079271   -2.273107
     56          1           0       12.575841    1.906796    0.855709
     57          1           0       11.553398    2.627907   -0.596677
     58          1           0       13.495264    2.191247   -0.704445
     59          1           0      -13.503379   -0.945475   -0.889766
     60          1           0      -13.544758   -1.914950    0.876338
     61          1           0      -12.186349   -2.042938   -0.311912
     62          1           0      -10.820347   -0.158134    2.565746
     63          1           0      -10.980667   -1.753046    1.853272
     64          1           0      -12.282555   -1.050826    2.634237
     65          1           0       10.147538    1.671095    0.664066
     66          1           0      -10.226410   -1.588432   -0.425946
     67          1           0        9.430128   -0.935380    2.381627
     68          1           0       10.522895   -2.175468    2.675247
     69          1           0        9.507984   -2.610624    1.455490
     70          1           0       -9.547459    1.360843   -2.110937
     71          1           0       -9.387176    2.661494   -0.925942
     72          1           0      -10.606688    2.633584   -2.438849
     73          1           0        8.246410   -0.522529   -0.211891
     74          1           0       -7.996439    0.589810    0.145438
     75          1           0        7.967339    2.921243    1.868433
     76          1           0        6.538938    3.274251    1.087823
     77          1           0        8.094717    3.275567    0.175576
     78          1           0       -8.200229   -2.750838   -1.935822
     79          1           0       -8.586417   -3.099431   -0.009802
     80          1           0       -6.901340   -3.456247   -0.817373
     81          1           0        6.143833   -0.168894   -0.284596
     82          1           0       -5.733832    0.373392    0.232353
     83          1           0        4.877603    2.529917    0.337375
     84          1           0       -4.986267   -2.673079   -0.545516
     85          1           0        3.762608   -0.209679    0.037831
     86          1           0       -3.719617   -0.007371    0.207559
     87          1           0        3.120852    3.243447    1.329875
     88          1           0        1.321566    3.098428    0.638938
     89          1           0        2.561890    3.691762   -0.337368
     90          1           0       -2.950471   -3.139212   -1.592132
     91          1           0       -3.121552   -3.824659   -0.006846
     92          1           0       -1.405633   -3.662232   -0.770848
     93          1           0        0.298782    1.085877    0.258806
     94          1           0       -1.426838    0.049307    0.184089
     95          1           0        2.047072   -1.224989   -0.345851
     96          1           0        0.205715   -2.594358   -0.302591
 ---------------------------------------------------------------------

 SCF Done:  E(RB3LYP) =  -1557.57341750     A.U. after   15 cycles

 Excitation energies and oscillator strengths:

 Excited State   1:      Singlet-A      2.0895 eV  593.37 nm  f=3.0625  <S**2>=0.000
     148 ->149         0.70620
     148 <-149        -0.11492
 This state for optimization and/or second-order correction.
 Total Energy, E(TD-HF/TD-DFT) =  -1557.49663013
 Copying the excited state density for this state as the 1-particle RhoCI density.

 The electronic state is 1-A.
 Alpha  occ. eigenvalues --  -10.21257 -10.21235 -10.20892 -10.20271 -10.20251
 Alpha  occ. eigenvalues --  -10.20216 -10.19866 -10.19764 -10.19602 -10.19587
 Alpha  occ. eigenvalues --  -10.19511 -10.19445 -10.19243 -10.19147 -10.19094
 Alpha  occ. eigenvalues --  -10.19029 -10.18984 -10.18895 -10.18821 -10.18680
 Alpha  occ. eigenvalues --  -10.18565 -10.18535 -10.18499 -10.18486 -10.18421
 Alpha  occ. eigenvalues --  -10.18367 -10.18340 -10.18331 -10.18304 -10.18276
 Alpha  occ. eigenvalues --  -10.18182 -10.18081 -10.17655 -10.17421 -10.17344
 Alpha  occ. eigenvalues --  -10.17216 -10.17040 -10.16964 -10.16895 -10.15744
 Alpha  occ. eigenvalues --   -0.84572  -0.84406  -0.83961  -0.83547  -0.81998
 Alpha  occ. eigenvalues --   -0.81615  -0.79163  -0.78564  -0.78334  -0.77384
 Alpha  occ. eigenvalues --   -0.76395  -0.75137  -0.74244  -0.72791  -0.71601
 Alpha  occ. eigenvalues --   -0.70073  -0.68788  -0.68070  -0.67898  -0.67557
 Alpha  occ. eigenvalues --   -0.67263  -0.66832  -0.66664  -0.66100  -0.65652
 Alpha  occ. eigenvalues --   -0.62944  -0.61829  -0.59756  -0.59303  -0.56682
 Alpha  occ. eigenvalues --   -0.56269  -0.55484  -0.55091  -0.54497  -0.53418
 Alpha  occ. eigenvalues --   -0.53002  -0.51645  -0.50463  -0.49423  -0.48829
 Alpha  occ. eigenvalues --   -0.48153  -0.47377  -0.47083  -0.46243  -0.45997
 Alpha  occ. eigenvalues --   -0.45578  -0.45287  -0.44851  -0.44537  -0.44274
 Alpha  occ. eigenvalues --   -0.44057  -0.43344  -0.42937  -0.42394  -0.41984
 Alpha  occ. eigenvalues --   -0.41820  -0.41634  -0.41395  -0.40798  -0.40636
 Alpha  occ. eigenvalues --   -0.40545  -0.40247  -0.39956  -0.39644  -0.39585
 Alpha  occ. eigenvalues --   -0.39293  -0.38806  -0.38541  -0.38274  -0.37926
 Alpha  occ. eigenvalues --   -0.37437  -0.36999  -0.36832  -0.36385  -0.36102
 Alpha  occ. eigenvalues --   -0.36066  -0.35796  -0.35487  -0.35424  -0.35249
 Alpha  occ. eigenvalues --   -0.34992  -0.34743  -0.34702  -0.34095  -0.33786
 Alpha  occ. eigenvalues --   -0.33776  -0.33270  -0.33198  -0.32959  -0.32812
 Alpha  occ. eigenvalues --   -0.32692  -0.31902  -0.31770  -0.31294  -0.30490
 Alpha  occ. eigenvalues --   -0.30310  -0.29911  -0.29134  -0.29037  -0.28724
 Alpha  occ. eigenvalues --   -0.28409  -0.27937  -0.26207  -0.23590  -0.21969
 Alpha  occ. eigenvalues --   -0.20544  -0.18588  -0.15912
 Alpha virt. eigenvalues --   -0.08252  -0.04801  -0.01509   0.01024   0.02708
 Alpha virt. eigenvalues --    0.03962   0.05538   0.06415   0.06579   0.06625
 Alpha virt. eigenvalues --    0.07356   0.07919   0.08267   0.08386   0.08763

 Mulliken charges:
               1
     1  C    0.013598
     2  C   -0.006299
     3  C   -0.162207
     4  C   -0.170083
     5  C   -0.185187
     6  C   -0.178586
     7  C    0.040783
     8  C    0.091267
     9  C   -0.212866
    10  C   -0.191519
    11  C    0.078883
    12  C   -0.026553
    13  C   -0.276781
    14  C   -0.303198
    15  C   -0.289839
    16  C   -0.285400
    17  C   -0.143964
    18  C   -0.157915
    19  C   -0.374623
    20  C   -0.314844
    21  C   -0.077606
    22  C   -0.080926
    23  C    0.119875
    24  C    0.130935
    25  C   -0.382748
    26  C   -0.363408
    27  C   -0.134893
    28  C   -0.140442
    29  C   -0.077085
    30  C   -0.062834
    31  C   -0.097595
    32  C   -0.118769
    33  C    0.132618
    34  C    0.173363
    35  C   -0.376332
    36  C   -0.391734
    37  C   -0.101181
    38  C   -0.142840
    39  C   -0.082867
    40  C   -0.109364
    41  H    0.102638
    42  H    0.044781
    43  H    0.072491
    44  H    0.076570
    45  H    0.087215
    46  H    0.093267
    47  H    0.103858
    48  H    0.079846
    49  H    0.083178
    50  H    0.103530
    51  H    0.131695
    52  H    0.064744
    53  H    0.063580
    54  H    0.106170
    55  H    0.091180
    56  H    0.109214
    57  H    0.097173
    58  H    0.099948
    59  H    0.101636
    60  H    0.076224
    61  H    0.107186
    62  H    0.096752
    63  H    0.074908
    64  H    0.104348
    65  H    0.081837
    66  H    0.078574
    67  H    0.111967
    68  H    0.112083
    69  H    0.122079
    70  H    0.135105
    71  H    0.123646
    72  H    0.092530
    73  H    0.067571
    74  H    0.063651
    75  H    0.129256
    76  H    0.095888
    77  H    0.121610
    78  H    0.115220
    79  H    0.101753
    80  H    0.096393
    81  H    0.075002
    82  H    0.081617
    83  H    0.085400
    84  H    0.078420
    85  H    0.081560
    86  H    0.065624
    87  H    0.092953
    88  H    0.104817
    89  H    0.110957
    90  H    0.136967
    91  H    0.105353
    92  H    0.098826
    93  H    0.066903
    94  H    0.083213
    95  H    0.066830
    96  H    0.083429
 Sum of Mulliken charges =  -0.00000

 Dipole moment (field-independent basis, Debye):
    X=              0.6411    Y=             -0.0686    Z=              0.7976  Tot=              1.0256
 Quadrupole moment (field-independent basis, Debye-Ang):
   XX=           -215.2693   YY=           -234.9541   ZZ=           -255.0528
   XY=             -1.4998   XZ=              6.4005   YZ=              3.9086

 Normal termination of Gaussian 16 at Sun Jul 28 06:00:04 2019.
