 Gaussian 16, Revision A.03,
 Gaussian 16:  ES64L-G16RevA.03 25-Dec-2016

 ---------------------------------
 # td=(NStates=1) B3LYP/6-31G(d,p)
 ---------------------------------

 --
 TD
 --
 Symbolic Z-matrix:
 Charge =  0 Multiplicity = 1

                         Standard orientation:
 ---------------------------------------------------------------------
 Center     Atomic      Atomic             Coordinates (Angstroms)
 Number     Number       Type             X           Y           Z
 ---------------------------------------------------------------------
      1          6           0      -12.045521   -0.532065   -0.822418
      2          6           0       12.135839   -0.037538    0.857915
      3          6           0      -13.403207    0.254598   -0.694272
      4          6           0       12.977074   -1.234887    1.283114
      5          6           0      -13.198454    1.748207   -0.656692
      6          6           0       13.423274   -1.979901    0.061753
      7          6           0      -11.045292    0.026380    0.201005
      8          6           0       11.093103   -0.464190   -0.197541
      9          6           0      -12.380334    2.179286    0.586194
     10          6           0       12.121512   -2.656386   -0.587500
     11          6           0      -11.190008    1.227854    0.896296
     12          6           0       11.075996   -1.584360   -0.828259
     13          6           0      -11.482817   -0.433562   -2.351182
     14          6           0      -12.419091   -2.038004   -0.548843
     15          6           0       13.069050    1.115489    0.276037
     16          6           0       11.450490    0.557806    2.175740
     17          6           0       -9.902729   -0.745132    0.468157
     18          6           0       10.017063    0.484458   -0.380531
     19          6           0      -10.304413    1.793150    2.001046
     20          6           0       10.100964   -1.871442   -1.938711
     21          6           0       -8.547327   -0.458194    0.281984
     22          6           0        8.629745    0.336499   -0.281547
     23          6           0       -7.380728   -1.403094    0.480333
     24          6           0        7.502955    1.305840   -0.375657
     25          6           0       -7.684834   -2.861694    0.726477
     26          6           0        7.974772    2.793035   -0.600983
     27          6           0       -6.119619   -0.856246    0.441801
     28          6           0        6.215116    0.913443   -0.536797
     29          6           0       -4.951440   -1.600317    0.427678
     30          6           0        4.986659    1.738905   -0.459168
     31          6           0       -3.757865   -0.801786    0.267809
     32          6           0        3.706249    1.261900   -0.314186
     33          6           0       -2.412887   -1.310882    0.402886
     34          6           0        2.423688    1.867082   -0.321254
     35          6           0       -2.227591   -2.698353    0.697229
     36          6           0        2.480633    3.301425   -0.628889
     37          6           0       -1.250940   -0.618670    0.253919
     38          6           0        1.347154    1.046381   -0.128970
     39          6           0       -1.165294    0.849852   -0.003854
     40          6           0        0.013142    1.586755   -0.125081
     41          1           0      -14.027503   -0.144741    0.192187
     42          1           0      -14.164929    0.055329   -1.370101
     43          1           0       12.299403   -1.807265    2.099943
     44          1           0       13.757673   -0.819533    1.877832
     45          1           0      -13.987628    2.255726   -0.553661
     46          1           0      -12.614257    2.007222   -1.577011
     47          1           0       14.193355   -2.588132    0.391955
     48          1           0       13.872924   -1.221672   -0.742942
     49          1           0      -12.838507    2.166186    1.435975
     50          1           0      -12.083464    3.223973    0.499775
     51          1           0       11.688357   -3.521637    0.073469
     52          1           0       12.239889   -3.149220   -1.567627
     53          1           0      -11.275136    0.514919   -2.666043
     54          1           0      -12.216776   -0.915096   -2.951892
     55          1           0      -10.566050   -0.964869   -2.590620
     56          1           0      -13.103688   -2.040107    0.467941
     57          1           0      -11.565631   -2.801368   -0.341097
     58          1           0      -13.178356   -2.257540   -1.452455
     59          1           0       13.681490    0.841970   -0.570146
     60          1           0       13.787844    1.724026    0.932675
     61          1           0       12.489433    1.908379   -0.011999
     62          1           0       10.520412   -0.240170    2.385868
     63          1           0       10.676895    1.453568    2.005287
     64          1           0       12.095735    0.815800    2.999235
     65          1           0       -9.844860   -1.827207    0.459943
     66          1           0       10.402798    1.541392   -0.498626
     67          1           0       -9.527116    1.009528    2.354679
     68          1           0      -10.812460    2.236138    2.789119
     69          1           0       -9.857045    2.717772    1.520139
     70          1           0        9.697661   -1.044381   -2.352839
     71          1           0        9.352945   -2.683675   -1.555469
     72          1           0       10.603383   -2.558536   -2.589011
     73          1           0       -8.361952    0.528143   -0.010063
     74          1           0        8.333426   -0.714058   -0.196319
     75          1           0       -8.017189   -2.975813    1.910424
     76          1           0       -6.780598   -3.512351    0.735724
     77          1           0       -8.327375   -3.306848   -0.011249
     78          1           0        8.752699    2.929144   -1.384491
     79          1           0        8.397658    3.179864    0.441523
     80          1           0        6.960610    3.420114   -0.672977
     81          1           0       -6.006904    0.172312    0.303339
     82          1           0        6.122941   -0.148167   -0.279457
     83          1           0       -5.050132   -2.616985    0.686512
     84          1           0        5.075563    2.863636   -0.751118
     85          1           0       -3.821868    0.297458   -0.071439
     86          1           0        3.707494    0.088541   -0.192640
     87          1           0       -2.487344   -3.088052    1.684977
     88          1           0       -1.137090   -3.051760    0.615777
     89          1           0       -2.836492   -3.393801   -0.065706
     90          1           0        2.731268    3.673647   -1.710407
     91          1           0        3.232790    3.932968   -0.087886
     92          1           0        1.447465    3.653455   -0.387383
     93          1           0       -0.359937   -1.080465    0.472752
     94          1           0        1.629365   -0.030775    0.171702
     95          1           0       -2.128049    1.393555   -0.113379
     96          1           0       -0.017645    2.689607   -0.212924
 ---------------------------------------------------------------------

 SCF Done:  E(RB3LYP) =  -1557.62716539     A.U. after   15 cycles

 Excitation energies and oscillator strengths:

 Excited State   1:      Singlet-A      2.1751 eV  570.00 nm  f=2.9199  <S**2>=0.000
     148 ->149         0.70703
 This state for optimization and/or second-order correction.
 Total Energy, E(TD-HF/TD-DFT) =  -1557.54723030
 Copying the excited state density for this state as the 1-particle RhoCI density.

 The electronic state is 1-A.
 Alpha  occ. eigenvalues --  -10.21364 -10.20484 -10.20469 -10.20381 -10.20291
 Alpha  occ. eigenvalues --  -10.20260 -10.20135 -10.19919 -10.19865 -10.19836
 Alpha  occ. eigenvalues --  -10.19804 -10.19703 -10.19598 -10.19498 -10.19378
 Alpha  occ. eigenvalues --  -10.19376 -10.19264 -10.19237 -10.19005 -10.18997
 Alpha  occ. eigenvalues --  -10.18996 -10.18982 -10.18879 -10.18804 -10.18648
 Alpha  occ. eigenvalues --  -10.18510 -10.18381 -10.18320 -10.18156 -10.17978
 Alpha  occ. eigenvalues --  -10.17794 -10.17725 -10.17654 -10.17631 -10.17264
 Alpha  occ. eigenvalues --  -10.17009 -10.16696 -10.16632 -10.16572 -10.16518
 Alpha  occ. eigenvalues --   -0.85299  -0.84275  -0.83749  -0.83242  -0.81749
 Alpha  occ. eigenvalues --   -0.80785  -0.78590  -0.78382  -0.77621  -0.77349
 Alpha  occ. eigenvalues --   -0.76377  -0.75161  -0.73631  -0.72070  -0.71137
 Alpha  occ. eigenvalues --   -0.69723  -0.68536  -0.68198  -0.68123  -0.67608
 Alpha  occ. eigenvalues --   -0.67520  -0.67275  -0.66482  -0.66110  -0.65845
 Alpha  occ. eigenvalues --   -0.62732  -0.61739  -0.60172  -0.59677  -0.57633
 Alpha  occ. eigenvalues --   -0.56609  -0.55799  -0.55539  -0.54287  -0.53250
 Alpha  occ. eigenvalues --   -0.52020  -0.51032  -0.50716  -0.49831  -0.48816
 Alpha  occ. eigenvalues --   -0.48068  -0.47165  -0.46731  -0.46637  -0.46003
 Alpha  occ. eigenvalues --   -0.45573  -0.45363  -0.44609  -0.44327  -0.43815
 Alpha  occ. eigenvalues --   -0.43395  -0.42873  -0.42433  -0.42175  -0.41661
 Alpha  occ. eigenvalues --   -0.41472  -0.41416  -0.41189  -0.40914  -0.40669
 Alpha  occ. eigenvalues --   -0.40538  -0.40510  -0.40162  -0.40079  -0.39823
 Alpha  occ. eigenvalues --   -0.39089  -0.38956  -0.38675  -0.38329  -0.37993
 Alpha  occ. eigenvalues --   -0.37835  -0.37439  -0.37265  -0.36622  -0.36376
 Alpha  occ. eigenvalues --   -0.36250  -0.36067  -0.35722  -0.35591  -0.35495
 Alpha  occ. eigenvalues --   -0.35062  -0.34699  -0.34338  -0.34092  -0.33921
 Alpha  occ. eigenvalues --   -0.33465  -0.33125  -0.32534  -0.32303  -0.31959
 Alpha  occ. eigenvalues --   -0.31873  -0.31778  -0.31657  -0.31212  -0.30748
 Alpha  occ. eigenvalues --   -0.30602  -0.30241  -0.29769  -0.29095  -0.28875
 Alpha  occ. eigenvalues --   -0.28691  -0.27515  -0.26254  -0.24197  -0.22417
 Alpha  occ. eigenvalues --   -0.20990  -0.18747  -0.16413
 Alpha virt. eigenvalues --   -0.08163  -0.05285  -0.01774   0.00390   0.02972
 Alpha virt. eigenvalues --    0.04221   0.05819   0.07144   0.07184   0.07425
 Alpha virt. eigenvalues --    0.07909   0.08303   0.08701   0.09135   0.09575

 Mulliken charges:
               1
     1  C   -0.005232
     2  C    0.008935
     3  C   -0.173929
     4  C   -0.153781
     5  C   -0.170399
     6  C   -0.185620
     7  C    0.090580
     8  C    0.103272
     9  C   -0.222182
    10  C   -0.220247
    11  C    0.045391
    12  C    0.064766
    13  C   -0.309453
    14  C   -0.287080
    15  C   -0.317226
    16  C   -0.306642
    17  C   -0.138414
    18  C   -0.168099
    19  C   -0.357988
    20  C   -0.347076
    21  C   -0.110054
    22  C   -0.089666
    23  C    0.092215
    24  C    0.119822
    25  C   -0.378992
    26  C   -0.359816
    27  C   -0.079880
    28  C   -0.131769
    29  C   -0.068102
    30  C   -0.097534
    31  C   -0.142620
    32  C   -0.115462
    33  C    0.170282
    34  C    0.166462
    35  C   -0.390543
    36  C   -0.383738
    37  C   -0.127539
    38  C   -0.103293
    39  C   -0.094884
    40  C   -0.116997
    41  H    0.073751
    42  H    0.091401
    43  H    0.075015
    44  H    0.092205
    45  H    0.092776
    46  H    0.095622
    47  H    0.097314
    48  H    0.089859
    49  H    0.118615
    50  H    0.088749
    51  H    0.095326
    52  H    0.089723
    53  H    0.111286
    54  H    0.101402
    55  H    0.104584
    56  H    0.079381
    57  H    0.099842
    58  H    0.087000
    59  H    0.099668
    60  H    0.083494
    61  H    0.113030
    62  H    0.076329
    63  H    0.087021
    64  H    0.109433
    65  H    0.062115
    66  H    0.071160
    67  H    0.114251
    68  H    0.116265
    69  H    0.107025
    70  H    0.132056
    71  H    0.095258
    72  H    0.100879
    73  H    0.070411
    74  H    0.071336
    75  H    0.107595
    76  H    0.104792
    77  H    0.133457
    78  H    0.126136
    79  H    0.102002
    80  H    0.090559
    81  H    0.077002
    82  H    0.078599
    83  H    0.091057
    84  H    0.068973
    85  H    0.082587
    86  H    0.052811
    87  H    0.120982
    88  H    0.097943
    89  H    0.091951
    90  H    0.116761
    91  H    0.123177
    92  H    0.098745
    93  H    0.079016
    94  H    0.091408
    95  H    0.077242
    96  H    0.086151
 Sum of Mulliken charges =  -0.00000

 Dipole moment (field-independent basis, Debye):
    X=             -1.4556    Y=              0.0453    Z=             -0.0370  Tot=              1.4567
 Quadrupole moment (field-independent basis, Debye-Ang):
   XX=           -211.2613   YY=           -233.4476   ZZ=           -254.6182
   XY=             -6.4095   XZ=             -0.1669   YZ=             -1.3557

 Normal termination of Gaussian 16 at Wed Jul 31 21:15:04 2019.
