 Gaussian 16, Revision A.03,
 Gaussian 16:  ES64L-G16RevA.03 25-Dec-2016

 ---------------------------------
 # td=(NStates=1) B3LYP/6-31G(d,p)
 ---------------------------------

 --
 TD
 --
 Symbolic Z-matrix:
 Charge =  0 Multiplicity = 1

                         Standard orientation:
 ---------------------------------------------------------------------
 Center     Atomic      Atomic             Coordinates (Angstroms)
 Number     Number       Type             X           Y           Z
 ---------------------------------------------------------------------
      1          6           0      -12.139410    0.471236    0.758845
      2          6           0       12.085794   -0.173067   -0.792016
      3          6           0      -13.376799   -0.349170    0.625191
      4          6           0       12.952819    1.069244   -1.177658
      5          6           0      -13.099101   -1.861622    0.675365
      6          6           0       13.418080    1.909392   -0.020483
      7          6           0      -10.961743   -0.067888   -0.215460
      8          6           0       11.019203    0.388561    0.099259
      9          6           0      -12.202616   -2.158164   -0.577458
     10          6           0       12.139459    2.635741    0.648904
     11          6           0      -11.113993   -1.264810   -0.904729
     12          6           0       11.101680    1.594796    0.750223
     13          6           0      -11.522768    0.447107    2.238618
     14          6           0      -12.641234    1.932192    0.341174
     15          6           0       12.973845   -1.169676   -0.276662
     16          6           0       11.580542   -0.718004   -2.076431
     17          6           0       -9.907072    0.893276   -0.434111
     18          6           0        9.823792   -0.551317    0.242890
     19          6           0      -10.084662   -1.770469   -1.925937
     20          6           0       10.054168    2.079218    1.773668
     21          6           0       -8.591287    0.518877   -0.247051
     22          6           0        8.488678   -0.309321    0.249837
     23          6           0       -7.388520    1.399552   -0.279787
     24          6           0        7.448365   -1.277240    0.359735
     25          6           0       -7.555405    2.862265   -0.676248
     26          6           0        7.919755   -2.671048    0.670458
     27          6           0       -6.150347    0.819080   -0.259050
     28          6           0        6.177936   -0.765619    0.326600
     29          6           0       -4.865307    1.489953   -0.394547
     30          6           0        5.036913   -1.587759    0.560256
     31          6           0       -3.750616    0.750114   -0.244670
     32          6           0        3.756348   -1.063256    0.194993
     33          6           0       -2.359625    1.334228   -0.408273
     34          6           0        2.584469   -1.732871    0.388687
     35          6           0       -2.296384    2.779010   -0.741419
     36          6           0        2.570786   -3.192981    0.847537
     37          6           0       -1.300849    0.592312   -0.252298
     38          6           0        1.304282   -1.103387    0.049251
     39          6           0       -1.194301   -0.838478   -0.081872
     40          6           0       -0.020507   -1.641095    0.132651
     41          1           0      -13.989330   -0.344690   -0.262324
     42          1           0      -13.956793   -0.096612    1.558950
     43          1           0       12.366623    1.668853   -1.859355
     44          1           0       13.846122    0.657098   -1.838216
     45          1           0      -13.980051   -2.479117    0.674154
     46          1           0      -12.497904   -1.953246    1.585265
     47          1           0       14.164860    2.767370   -0.273400
     48          1           0       13.916152    1.254106    0.758371
     49          1           0      -12.741818   -2.215177   -1.335171
     50          1           0      -11.750142   -3.195375   -0.424176
     51          1           0       11.715938    3.646486    0.005125
     52          1           0       12.401116    3.047899    1.576855
     53          1           0      -10.920227   -0.393603    2.764052
     54          1           0      -12.432819    0.537669    2.947015
     55          1           0      -10.808383    1.182910    2.199715
     56          1           0      -13.013042    2.048989   -0.648195
     57          1           0      -11.971781    2.757667    0.724568
     58          1           0      -13.485183    2.172426    0.860725
     59          1           0       13.485539   -0.985016    0.589019
     60          1           0       13.641449   -1.345034   -0.989475
     61          1           0       12.437617   -2.040044    0.114585
     62          1           0       10.694006   -0.032965   -2.670402
     63          1           0       10.732897   -1.658416   -1.662104
     64          1           0       12.344849   -1.125192   -2.789714
     65          1           0       -9.906076    1.945218   -0.624757
     66          1           0       10.338643   -1.631979    0.340973
     67          1           0       -9.424431   -0.849083   -2.166685
     68          1           0      -10.660415   -1.963728   -2.987395
     69          1           0       -9.630395   -2.757039   -1.670286
     70          1           0        9.427120    1.235593    2.232176
     71          1           0        9.407463    2.869514    1.307159
     72          1           0       10.342843    2.576072    2.771563
     73          1           0       -8.427583   -0.622137    0.072097
     74          1           0        8.354233    0.754267    0.076820
     75          1           0       -8.192106    2.827485   -1.609251
     76          1           0       -6.678723    3.636771   -0.777755
     77          1           0       -8.301278    3.222009    0.232371
     78          1           0        8.465968   -2.756232    1.509308
     79          1           0        8.522387   -3.077536   -0.169379
     80          1           0        6.909553   -3.306674    0.833994
     81          1           0       -6.061587   -0.186028    0.039600
     82          1           0        6.025912    0.199877   -0.119410
     83          1           0       -4.871498    2.539710   -0.578599
     84          1           0        5.066670   -2.652469    0.736334
     85          1           0       -4.097622   -0.308846   -0.069217
     86          1           0        3.694387    0.016749   -0.141166
     87          1           0       -2.882836    3.174290   -1.639519
     88          1           0       -1.190024    3.074979   -0.999945
     89          1           0       -2.560542    3.437530    0.055014
     90          1           0        3.041759   -3.426390    1.838506
     91          1           0        2.991435   -3.767029   -0.005574
     92          1           0        1.529747   -3.544392    0.890688
     93          1           0       -0.268908    1.158532   -0.293941
     94          1           0        1.563309    0.013449   -0.328793
     95          1           0       -2.078719   -1.217792   -0.243583
     96          1           0       -0.134579   -2.685159    0.194893
 ---------------------------------------------------------------------

 SCF Done:  E(RB3LYP) =  -1557.58177219     A.U. after   16 cycles

 Excitation energies and oscillator strengths:

 Excited State   1:      Singlet-A      2.0789 eV  596.39 nm  f=2.9721  <S**2>=0.000
     147 ->149         0.14105
     148 ->149         0.69264
     148 <-149        -0.13407
 This state for optimization and/or second-order correction.
 Total Energy, E(TD-HF/TD-DFT) =  -1557.50537382
 Copying the excited state density for this state as the 1-particle RhoCI density.

 The electronic state is 1-A.
 Alpha  occ. eigenvalues --  -10.21014 -10.20974 -10.20480 -10.20285 -10.20266
 Alpha  occ. eigenvalues --  -10.20114 -10.19984 -10.19934 -10.19596 -10.19538
 Alpha  occ. eigenvalues --  -10.19443 -10.19406 -10.19389 -10.19287 -10.19273
 Alpha  occ. eigenvalues --  -10.19233 -10.19169 -10.19078 -10.19059 -10.18917
 Alpha  occ. eigenvalues --  -10.18869 -10.18842 -10.18712 -10.18705 -10.18637
 Alpha  occ. eigenvalues --  -10.18615 -10.18590 -10.18551 -10.18385 -10.18324
 Alpha  occ. eigenvalues --  -10.18186 -10.18177 -10.18077 -10.17979 -10.17894
 Alpha  occ. eigenvalues --  -10.17180 -10.17085 -10.16914 -10.16224 -10.15061
 Alpha  occ. eigenvalues --   -0.86031  -0.84424  -0.83542  -0.83240  -0.81822
 Alpha  occ. eigenvalues --   -0.81329  -0.79499  -0.78542  -0.78171  -0.77258
 Alpha  occ. eigenvalues --   -0.76134  -0.74963  -0.73798  -0.71749  -0.71604
 Alpha  occ. eigenvalues --   -0.70163  -0.69289  -0.68664  -0.68514  -0.67400
 Alpha  occ. eigenvalues --   -0.67190  -0.67086  -0.66152  -0.65781  -0.65713
 Alpha  occ. eigenvalues --   -0.62792  -0.61213  -0.59530  -0.58891  -0.56874
 Alpha  occ. eigenvalues --   -0.56499  -0.55869  -0.54562  -0.54401  -0.53494
 Alpha  occ. eigenvalues --   -0.52855  -0.51354  -0.50267  -0.49970  -0.49010
 Alpha  occ. eigenvalues --   -0.48699  -0.47612  -0.47234  -0.46680  -0.45483
 Alpha  occ. eigenvalues --   -0.45348  -0.44959  -0.44798  -0.44496  -0.44083
 Alpha  occ. eigenvalues --   -0.43298  -0.42943  -0.42561  -0.42243  -0.42122
 Alpha  occ. eigenvalues --   -0.41975  -0.41938  -0.41675  -0.41501  -0.41093
 Alpha  occ. eigenvalues --   -0.40861  -0.40700  -0.40304  -0.39892  -0.38765
 Alpha  occ. eigenvalues --   -0.38591  -0.38420  -0.38241  -0.37885  -0.37611
 Alpha  occ. eigenvalues --   -0.37214  -0.37083  -0.36863  -0.36793  -0.36536
 Alpha  occ. eigenvalues --   -0.36317  -0.36162  -0.36002  -0.35831  -0.35505
 Alpha  occ. eigenvalues --   -0.35277  -0.34910  -0.34618  -0.34037  -0.33434
 Alpha  occ. eigenvalues --   -0.33355  -0.32860  -0.32764  -0.32632  -0.32300
 Alpha  occ. eigenvalues --   -0.32152  -0.32074  -0.31881  -0.31618  -0.31236
 Alpha  occ. eigenvalues --   -0.31025  -0.29909  -0.29246  -0.28932  -0.28532
 Alpha  occ. eigenvalues --   -0.27451  -0.27056  -0.26111  -0.24074  -0.22483
 Alpha  occ. eigenvalues --   -0.21018  -0.18711  -0.15867
 Alpha virt. eigenvalues --   -0.08565  -0.04683  -0.01773   0.00814   0.02343
 Alpha virt. eigenvalues --    0.03921   0.05681   0.06529   0.07459   0.07862
 Alpha virt. eigenvalues --    0.08080   0.08318   0.08463   0.08796   0.09133

 Mulliken charges:
               1
     1  C    0.002598
     2  C   -0.021819
     3  C   -0.169847
     4  C   -0.160266
     5  C   -0.203434
     6  C   -0.191933
     7  C    0.050124
     8  C    0.079365
     9  C   -0.207128
    10  C   -0.203770
    11  C    0.074903
    12  C    0.075104
    13  C   -0.306011
    14  C   -0.316469
    15  C   -0.263432
    16  C   -0.256751
    17  C   -0.145368
    18  C   -0.148081
    19  C   -0.355360
    20  C   -0.374074
    21  C   -0.096091
    22  C   -0.088944
    23  C    0.096363
    24  C    0.107982
    25  C   -0.369400
    26  C   -0.361503
    27  C   -0.128264
    28  C   -0.106853
    29  C   -0.037010
    30  C   -0.098755
    31  C   -0.128595
    32  C   -0.122844
    33  C    0.128830
    34  C    0.124035
    35  C   -0.385703
    36  C   -0.381030
    37  C   -0.115181
    38  C   -0.113304
    39  C   -0.068077
    40  C   -0.111045
    41  H    0.093554
    42  H    0.075305
    43  H    0.099659
    44  H    0.055138
    45  H    0.089915
    46  H    0.098049
    47  H    0.077122
    48  H    0.096062
    49  H    0.115667
    50  H    0.082482
    51  H    0.068900
    52  H    0.113974
    53  H    0.100097
    54  H    0.086793
    55  H    0.121276
    56  H    0.115285
    57  H    0.086030
    58  H    0.111614
    59  H    0.103971
    60  H    0.107474
    61  H    0.088438
    62  H    0.074332
    63  H    0.044783
    64  H    0.103506
    65  H    0.085448
    66  H    0.065723
    67  H    0.122162
    68  H    0.073098
    69  H    0.114494
    70  H    0.109888
    71  H    0.108737
    72  H    0.093287
    73  H    0.077104
    74  H    0.084312
    75  H    0.127885
    76  H    0.111732
    77  H    0.095021
    78  H    0.140254
    79  H    0.126458
    80  H    0.078901
    81  H    0.070746
    82  H    0.090895
    83  H    0.071048
    84  H    0.093468
    85  H    0.086465
    86  H    0.073228
    87  H    0.114928
    88  H    0.096129
    89  H    0.132294
    90  H    0.119372
    91  H    0.123968
    92  H    0.104688
    93  H    0.060595
    94  H    0.068949
    95  H    0.071559
    96  H    0.094775
 Sum of Mulliken charges =  -0.00000

 Dipole moment (field-independent basis, Debye):
    X=             -0.4018    Y=              0.2126    Z=              0.1115  Tot=              0.4681
 Quadrupole moment (field-independent basis, Debye-Ang):
   XX=           -219.0864   YY=           -234.2649   ZZ=           -254.9962
   XY=             -3.0514   XZ=              4.9401   YZ=             -3.1521

 Normal termination of Gaussian 16 at Mon Jul 29 09:30:06 2019.
