 Gaussian 16, Revision A.03,
 Gaussian 16:  ES64L-G16RevA.03 25-Dec-2016

 ---------------------------------
 # td=(NStates=1) B3LYP/6-31G(d,p)
 ---------------------------------

 --
 TD
 --
 Symbolic Z-matrix:
 Charge =  0 Multiplicity = 1

                         Standard orientation:
 ---------------------------------------------------------------------
 Center     Atomic      Atomic             Coordinates (Angstroms)
 Number     Number       Type             X           Y           Z
 ---------------------------------------------------------------------
      1          6           0       12.132111    0.445475   -0.632447
      2          6           0      -11.961388   -0.116652    0.972591
      3          6           0       13.425939   -0.421435   -0.524189
      4          6           0      -12.886453    1.116755    1.410231
      5          6           0       13.046531   -1.951847   -0.283387
      6          6           0      -13.220042    2.057740    0.252227
      7          6           0       10.925888   -0.008720    0.298107
      8          6           0      -10.894550    0.409550   -0.003414
      9          6           0       12.312379   -2.041890    1.099984
     10          6           0      -12.040316    2.705172   -0.268597
     11          6           0       11.136917   -1.174677    1.127034
     12          6           0      -11.072706    1.619266   -0.635135
     13          6           0       11.597175    0.349813   -2.167757
     14          6           0       12.501162    1.972660   -0.364189
     15          6           0      -12.920316   -1.145738    0.300184
     16          6           0      -11.322385   -0.725591    2.233013
     17          6           0        9.705999    0.881587    0.351459
     18          6           0       -9.843159   -0.617990   -0.303822
     19          6           0       10.124907   -1.518158    2.263367
     20          6           0      -10.165457    2.010106   -1.659818
     21          6           0        8.418368    0.423401    0.257988
     22          6           0       -8.506081   -0.285874   -0.208227
     23          6           0        7.289474    1.369695    0.311677
     24          6           0       -7.482359   -1.312861   -0.412665
     25          6           0        7.601872    2.890068    0.273438
     26          6           0       -7.947769   -2.715170   -0.655304
     27          6           0        6.089629    0.763434    0.312542
     28          6           0       -6.135955   -0.848454   -0.258652
     29          6           0        4.739658    1.502945    0.397183
     30          6           0       -5.019501   -1.713981   -0.427345
     31          6           0        3.614253    0.840282    0.169491
     32          6           0       -3.733189   -1.086592   -0.449063
     33          6           0        2.316541    1.416241    0.182226
     34          6           0       -2.472932   -1.863314   -0.658030
     35          6           0        2.192680    2.845249    0.283130
     36          6           0       -2.473882   -3.363041   -1.058744
     37          6           0        1.167140    0.540028   -0.108830
     38          6           0       -1.320070   -1.163271   -0.495132
     39          6           0        1.161413   -0.857880   -0.423536
     40          6           0        0.012667   -1.624453   -0.558543
     41          1           0       14.082148   -0.179182    0.267076
     42          1           0       13.957640   -0.361546   -1.472271
     43          1           0      -12.400504    1.654457    2.168876
     44          1           0      -13.978008    0.674141    1.851004
     45          1           0       13.948983   -2.479599   -0.216823
     46          1           0       12.370857   -2.457267   -1.145677
     47          1           0      -13.994993    2.741218    0.601667
     48          1           0      -13.724827    1.405251   -0.481835
     49          1           0       13.052696   -1.862090    1.948917
     50          1           0       11.891657   -2.970768    1.273072
     51          1           0      -11.429173    3.279301    0.515117
     52          1           0      -12.017221    3.371494   -1.219650
     53          1           0       11.526138   -0.628648   -2.493091
     54          1           0       12.350257    0.960308   -2.614454
     55          1           0       10.657551    0.865496   -2.114707
     56          1           0       12.607401    2.132959    0.810203
     57          1           0       11.821692    2.699932   -0.661079
     58          1           0       13.392967    2.298611   -1.064084
     59          1           0      -13.237344   -0.654489   -0.527389
     60          1           0      -13.718588   -1.269763    1.017168
     61          1           0      -12.413944   -2.055189    0.026595
     62          1           0      -10.791130   -0.025232    2.624089
     63          1           0      -10.810164   -1.396503    1.868028
     64          1           0      -12.157111   -1.248480    2.930870
     65          1           0        9.813613    2.049894    0.187119
     66          1           0      -10.165360   -1.605667   -0.541235
     67          1           0        9.414191   -0.550257    2.521394
     68          1           0       10.698293   -1.956836    3.185061
     69          1           0        9.475255   -2.396734    1.799541
     70          1           0       -9.321087    1.294270   -1.993702
     71          1           0       -9.456211    2.650777   -1.325221
     72          1           0      -10.607226    2.751858   -2.436850
     73          1           0        8.253627   -0.600415    0.400951
     74          1           0       -7.799261    0.717584    0.147735
     75          1           0        8.324396    3.322004    0.991306
     76          1           0        6.576393    3.204925    0.268065
     77          1           0        7.978269    3.287636   -0.729005
     78          1           0       -8.352533   -2.737671   -1.655156
     79          1           0       -8.636018   -2.962255    0.100934
     80          1           0       -7.173056   -3.452763   -0.511740
     81          1           0        6.119003   -0.241936    0.423412
     82          1           0       -6.203296    0.151526   -0.142027
     83          1           0        5.011301    2.608711    0.754595
     84          1           0       -5.067293   -2.756064   -0.565339
     85          1           0        3.499235   -0.105161    0.278421
     86          1           0       -3.725390   -0.110291   -0.147210
     87          1           0        2.506844    3.240442    1.068012
     88          1           0        1.058047    2.988984    0.058792
     89          1           0        2.843849    3.303259   -0.406770
     90          1           0       -3.231178   -3.610690   -1.950991
     91          1           0       -3.110254   -3.874998   -0.230553
     92          1           0       -1.426354   -3.605116   -1.421299
     93          1           0        0.288575    1.032550   -0.161011
     94          1           0       -1.509628   -0.135481   -0.120746
     95          1           0        2.082676   -1.254474   -0.573170
     96          1           0        0.288451   -2.753290   -0.799214
 ---------------------------------------------------------------------

 SCF Done:  E(RB3LYP) =  -1557.51872802     A.U. after   15 cycles

 Excitation energies and oscillator strengths:

 Excited State   1:      Singlet-A      2.1246 eV  583.56 nm  f=2.9401  <S**2>=0.000
     148 ->149         0.70282
     148 <-149        -0.10891
 This state for optimization and/or second-order correction.
 Total Energy, E(TD-HF/TD-DFT) =  -1557.44065034
 Copying the excited state density for this state as the 1-particle RhoCI density.

 The electronic state is 1-A.
 Alpha  occ. eigenvalues --  -10.20878 -10.20651 -10.20489 -10.20474 -10.20438
 Alpha  occ. eigenvalues --  -10.20283 -10.20015 -10.19897 -10.19725 -10.19711
 Alpha  occ. eigenvalues --  -10.19533 -10.19489 -10.19433 -10.19419 -10.19266
 Alpha  occ. eigenvalues --  -10.19188 -10.19020 -10.18956 -10.18834 -10.18807
 Alpha  occ. eigenvalues --  -10.18697 -10.18562 -10.18507 -10.18503 -10.18445
 Alpha  occ. eigenvalues --  -10.18238 -10.18226 -10.18167 -10.18060 -10.17945
 Alpha  occ. eigenvalues --  -10.17927 -10.17764 -10.17672 -10.17384 -10.16896
 Alpha  occ. eigenvalues --  -10.16562 -10.16373 -10.15689 -10.15642 -10.14294
 Alpha  occ. eigenvalues --   -0.85189  -0.83939  -0.83061  -0.82870  -0.82011
 Alpha  occ. eigenvalues --   -0.81513  -0.79376  -0.78666  -0.77391  -0.77234
 Alpha  occ. eigenvalues --   -0.76263  -0.75257  -0.74179  -0.72342  -0.71490
 Alpha  occ. eigenvalues --   -0.70504  -0.69592  -0.69528  -0.69055  -0.67439
 Alpha  occ. eigenvalues --   -0.67135  -0.66763  -0.66724  -0.66371  -0.65602
 Alpha  occ. eigenvalues --   -0.62727  -0.61574  -0.59593  -0.59288  -0.57271
 Alpha  occ. eigenvalues --   -0.55866  -0.55589  -0.54784  -0.54111  -0.53536
 Alpha  occ. eigenvalues --   -0.52417  -0.51462  -0.50539  -0.49929  -0.49145
 Alpha  occ. eigenvalues --   -0.49023  -0.48219  -0.47500  -0.46852  -0.46704
 Alpha  occ. eigenvalues --   -0.45872  -0.45400  -0.44668  -0.44528  -0.44146
 Alpha  occ. eigenvalues --   -0.43691  -0.43458  -0.43353  -0.43027  -0.42659
 Alpha  occ. eigenvalues --   -0.42094  -0.41828  -0.41571  -0.41505  -0.41283
 Alpha  occ. eigenvalues --   -0.40803  -0.40499  -0.40182  -0.39829  -0.39244
 Alpha  occ. eigenvalues --   -0.39099  -0.38837  -0.38656  -0.38440  -0.38320
 Alpha  occ. eigenvalues --   -0.38173  -0.37883  -0.37584  -0.37287  -0.36890
 Alpha  occ. eigenvalues --   -0.36721  -0.36552  -0.36266  -0.35956  -0.35588
 Alpha  occ. eigenvalues --   -0.34728  -0.34603  -0.34188  -0.34154  -0.33515
 Alpha  occ. eigenvalues --   -0.33486  -0.33349  -0.33107  -0.33010  -0.32884
 Alpha  occ. eigenvalues --   -0.32473  -0.32143  -0.31510  -0.31140  -0.30988
 Alpha  occ. eigenvalues --   -0.30331  -0.29950  -0.29724  -0.29059  -0.28393
 Alpha  occ. eigenvalues --   -0.27966  -0.27329  -0.25785  -0.23659  -0.21849
 Alpha  occ. eigenvalues --   -0.20214  -0.18564  -0.16104
 Alpha virt. eigenvalues --   -0.08219  -0.04844  -0.02069   0.00498   0.02389
 Alpha virt. eigenvalues --    0.03495   0.05086   0.05722   0.06856   0.07062
 Alpha virt. eigenvalues --    0.07364   0.07564   0.07822   0.08385   0.08666

 Mulliken charges:
               1
     1  C   -0.000920
     2  C   -0.044222
     3  C   -0.170479
     4  C   -0.172929
     5  C   -0.195788
     6  C   -0.175774
     7  C    0.055133
     8  C    0.049067
     9  C   -0.215600
    10  C   -0.199868
    11  C    0.058322
    12  C    0.099230
    13  C   -0.302101
    14  C   -0.310511
    15  C   -0.291085
    16  C   -0.249770
    17  C   -0.152193
    18  C   -0.184264
    19  C   -0.349255
    20  C   -0.389162
    21  C   -0.081454
    22  C   -0.072355
    23  C    0.111199
    24  C    0.101238
    25  C   -0.372465
    26  C   -0.378272
    27  C   -0.115110
    28  C   -0.100403
    29  C   -0.123639
    30  C   -0.085827
    31  C   -0.065657
    32  C   -0.112109
    33  C    0.072052
    34  C    0.120584
    35  C   -0.353876
    36  C   -0.369161
    37  C   -0.111025
    38  C   -0.111950
    39  C   -0.075874
    40  C   -0.109643
    41  H    0.099708
    42  H    0.090979
    43  H    0.093552
    44  H    0.047064
    45  H    0.093828
    46  H    0.077937
    47  H    0.084081
    48  H    0.100692
    49  H    0.100370
    50  H    0.108200
    51  H    0.107970
    52  H    0.084666
    53  H    0.108772
    54  H    0.094520
    55  H    0.108269
    56  H    0.089799
    57  H    0.110120
    58  H    0.080639
    59  H    0.110732
    60  H    0.101538
    61  H    0.089198
    62  H    0.103426
    63  H    0.102088
    64  H    0.063377
    65  H    0.074340
    66  H    0.106357
    67  H    0.107037
    68  H    0.095651
    69  H    0.096376
    70  H    0.104667
    71  H    0.129718
    72  H    0.083126
    73  H    0.082849
    74  H    0.068617
    75  H    0.130066
    76  H    0.099747
    77  H    0.118146
    78  H    0.132275
    79  H    0.129644
    80  H    0.104546
    81  H    0.077533
    82  H    0.063362
    83  H    0.092867
    84  H    0.081244
    85  H    0.078563
    86  H    0.080086
    87  H    0.130273
    88  H    0.089879
    89  H    0.123390
    90  H    0.101742
    91  H    0.121075
    92  H    0.121004
    93  H    0.064044
    94  H    0.082727
    95  H    0.080230
    96  H    0.073211
 Sum of Mulliken charges =  -0.00000

 Dipole moment (field-independent basis, Debye):
    X=              0.7374    Y=              0.0200    Z=              0.2370  Tot=              0.7748
 Quadrupole moment (field-independent basis, Debye-Ang):
   XX=           -238.7109   YY=           -232.0962   ZZ=           -257.9843
   XY=              0.4534   XZ=              3.6166   YZ=              2.0594

 Normal termination of Gaussian 16 at Sun Jul 28 00:11:54 2019.
