 Gaussian 16, Revision A.03,
 Gaussian 16:  ES64L-G16RevA.03 25-Dec-2016

 ---------------------------------
 # td=(NStates=1) B3LYP/6-31G(d,p)
 ---------------------------------

 --
 TD
 --
 Symbolic Z-matrix:
 Charge =  0 Multiplicity = 1

                         Standard orientation:
 ---------------------------------------------------------------------
 Center     Atomic      Atomic             Coordinates (Angstroms)
 Number     Number       Type             X           Y           Z
 ---------------------------------------------------------------------
      1          6           0       12.293184    0.499196   -0.567734
      2          6           0      -12.233141   -0.157000    0.708200
      3          6           0       13.494319   -0.335986   -0.529147
      4          6           0      -13.149181    0.949837    1.415401
      5          6           0       13.186587   -1.827147   -0.704051
      6          6           0      -13.517654    2.055621    0.326041
      7          6           0       11.134519   -0.132465    0.231305
      8          6           0      -11.036795    0.414079   -0.026560
      9          6           0       12.329867   -2.194091    0.512260
     10          6           0      -12.219199    2.604345   -0.329348
     11          6           0       11.244257   -1.328768    0.790984
     12          6           0      -11.120515    1.659727   -0.681871
     13          6           0       11.784998    0.698543   -2.044212
     14          6           0       12.709518    1.899808   -0.035332
     15          6           0      -13.178640   -1.184686    0.073876
     16          6           0      -11.539429   -0.928144    1.956501
     17          6           0        9.921519    0.829898    0.383191
     18          6           0       -9.916774   -0.515786   -0.440654
     19          6           0       10.213018   -1.800662    1.726991
     20          6           0      -10.022641    2.169666   -1.731237
     21          6           0        8.638316    0.477979    0.241859
     22          6           0       -8.599824   -0.255429   -0.231518
     23          6           0        7.444249    1.331829    0.369869
     24          6           0       -7.530293   -1.283588   -0.566477
     25          6           0        7.579541    2.775153    0.888725
     26          6           0       -7.889980   -2.691847   -0.798617
     27          6           0        6.206184    0.734636    0.173856
     28          6           0       -6.273087   -0.741424   -0.336348
     29          6           0        4.952169    1.307781    0.274940
     30          6           0       -5.032662   -1.460580   -0.388796
     31          6           0        3.734503    0.744935    0.015822
     32          6           0       -3.810255   -1.063957   -0.320398
     33          6           0        2.505577    1.325467    0.115715
     34          6           0       -2.647930   -1.727154   -0.303811
     35          6           0        2.337371    2.794099    0.401780
     36          6           0       -2.638277   -3.244860   -0.455957
     37          6           0        1.257306    0.658642    0.009995
     38          6           0       -1.437300   -1.056352   -0.175129
     39          6           0        1.103426   -0.735367   -0.060299
     40          6           0       -0.082694   -1.488365   -0.136558
     41          1           0       14.160828   -0.306009    0.511355
     42          1           0       14.175977   -0.149116   -1.411826
     43          1           0      -12.761219    1.343857    2.241396
     44          1           0      -13.988016    0.629662    1.844818
     45          1           0       13.907670   -2.492512   -0.850974
     46          1           0       12.494313   -1.744247   -1.611111
     47          1           0      -14.084282    2.787266    0.878571
     48          1           0      -14.106616    1.487288   -0.562955
     49          1           0       12.965290   -2.140531    1.376166
     50          1           0       12.171345   -3.322023    0.632550
     51          1           0      -11.879979    3.273100    0.337042
     52          1           0      -12.245300    3.197898   -1.076409
     53          1           0       11.705848   -0.292074   -2.538637
     54          1           0       12.742707    1.255047   -2.396250
     55          1           0       10.945464    1.331587   -2.082025
     56          1           0       12.905522    1.955594    1.063045
     57          1           0       11.870717    2.563782   -0.329036
     58          1           0       13.695310    1.912437   -0.598163
     59          1           0      -13.718760   -0.729014   -0.799384
     60          1           0      -13.862689   -1.814697    0.750601
     61          1           0      -12.549555   -1.992572   -0.464308
     62          1           0      -10.776241   -0.389080    2.469022
     63          1           0      -11.352539   -2.120583    1.588963
     64          1           0      -12.393221   -0.934048    2.711904
     65          1           0       10.116180    1.830301    0.609234
     66          1           0      -10.186176   -1.632039   -0.821411
     67          1           0        9.581607   -0.978567    2.290731
     68          1           0       10.942078   -2.251254    2.607573
     69          1           0        9.621264   -2.622527    1.440857
     70          1           0       -9.443284    1.391843   -2.205797
     71          1           0       -9.398585    2.807632   -1.282625
     72          1           0      -10.691113    2.813192   -2.418436
     73          1           0        8.317532   -0.642360    0.084933
     74          1           0       -8.359184    0.742694    0.079804
     75          1           0        8.105026    2.949712    1.762111
     76          1           0        6.649201    3.371897    0.935116
     77          1           0        8.225884    3.430689    0.190211
     78          1           0       -8.693114   -2.579083   -1.625316
     79          1           0       -8.441044   -3.106554    0.170476
     80          1           0       -7.151785   -3.383364   -1.048784
     81          1           0        6.116052   -0.273244   -0.259704
     82          1           0       -6.131616    0.394623   -0.342741
     83          1           0        4.973530    2.352498    0.236026
     84          1           0       -5.282845   -2.659852   -0.628726
     85          1           0        3.812935   -0.377471   -0.083897
     86          1           0       -3.679991   -0.003652    0.086725
     87          1           0        2.933028    3.202783    1.358270
     88          1           0        1.447771    3.218484    0.400413
     89          1           0        2.842977    3.553339   -0.349783
     90          1           0       -3.257945   -3.515140   -1.325456
     91          1           0       -3.104939   -3.552967    0.429784
     92          1           0       -1.786901   -3.822585   -0.416369
     93          1           0        0.280561    1.111990    0.128855
     94          1           0       -1.621853    0.063638   -0.131883
     95          1           0        2.139180   -1.194292    0.035717
     96          1           0       -0.061935   -2.616858   -0.109826
 ---------------------------------------------------------------------

 SCF Done:  E(RB3LYP) =  -1557.57352157     A.U. after   16 cycles

 Excitation energies and oscillator strengths:

 Excited State   1:      Singlet-A      2.0395 eV  607.90 nm  f=3.3297  <S**2>=0.000
     148 ->149         0.71105
     148 <-149        -0.14572
 This state for optimization and/or second-order correction.
 Total Energy, E(TD-HF/TD-DFT) =  -1557.49857009
 Copying the excited state density for this state as the 1-particle RhoCI density.

 The electronic state is 1-A.
 Alpha  occ. eigenvalues --  -10.20932 -10.20805 -10.20497 -10.20268 -10.19935
 Alpha  occ. eigenvalues --  -10.19828 -10.19730 -10.19505 -10.19466 -10.19447
 Alpha  occ. eigenvalues --  -10.19260 -10.19228 -10.19207 -10.19164 -10.19135
 Alpha  occ. eigenvalues --  -10.18906 -10.18870 -10.18793 -10.18781 -10.18766
 Alpha  occ. eigenvalues --  -10.18761 -10.18665 -10.18658 -10.18653 -10.18417
 Alpha  occ. eigenvalues --  -10.18392 -10.18385 -10.18343 -10.18037 -10.17945
 Alpha  occ. eigenvalues --  -10.17790 -10.17755 -10.17600 -10.17588 -10.17554
 Alpha  occ. eigenvalues --  -10.17512 -10.17168 -10.16875 -10.16268 -10.15943
 Alpha  occ. eigenvalues --   -0.86058  -0.84357  -0.83836  -0.83719  -0.81837
 Alpha  occ. eigenvalues --   -0.81527  -0.79693  -0.78804  -0.78083  -0.77441
 Alpha  occ. eigenvalues --   -0.76522  -0.75381  -0.74337  -0.72209  -0.71909
 Alpha  occ. eigenvalues --   -0.70447  -0.69509  -0.69104  -0.69036  -0.67689
 Alpha  occ. eigenvalues --   -0.67492  -0.67316  -0.66939  -0.66281  -0.65818
 Alpha  occ. eigenvalues --   -0.63826  -0.61472  -0.60425  -0.59813  -0.57326
 Alpha  occ. eigenvalues --   -0.56220  -0.55985  -0.54761  -0.54096  -0.53080
 Alpha  occ. eigenvalues --   -0.52127  -0.51545  -0.50878  -0.49935  -0.49351
 Alpha  occ. eigenvalues --   -0.48932  -0.47829  -0.47164  -0.46965  -0.46335
 Alpha  occ. eigenvalues --   -0.45755  -0.45181  -0.44810  -0.44639  -0.44067
 Alpha  occ. eigenvalues --   -0.43828  -0.43016  -0.42790  -0.42472  -0.42359
 Alpha  occ. eigenvalues --   -0.42168  -0.41932  -0.41272  -0.41224  -0.41076
 Alpha  occ. eigenvalues --   -0.40823  -0.40553  -0.40311  -0.39752  -0.39302
 Alpha  occ. eigenvalues --   -0.39116  -0.38692  -0.38541  -0.38117  -0.38004
 Alpha  occ. eigenvalues --   -0.37770  -0.37691  -0.37648  -0.36799  -0.36705
 Alpha  occ. eigenvalues --   -0.36281  -0.36049  -0.35975  -0.35601  -0.35388
 Alpha  occ. eigenvalues --   -0.35253  -0.35022  -0.34751  -0.34628  -0.34270
 Alpha  occ. eigenvalues --   -0.33717  -0.33525  -0.33420  -0.33075  -0.32083
 Alpha  occ. eigenvalues --   -0.31953  -0.31362  -0.31133  -0.31068  -0.30985
 Alpha  occ. eigenvalues --   -0.30573  -0.30339  -0.29754  -0.29206  -0.28508
 Alpha  occ. eigenvalues --   -0.27775  -0.27370  -0.26194  -0.23887  -0.22183
 Alpha  occ. eigenvalues --   -0.20931  -0.19302  -0.15876
 Alpha virt. eigenvalues --   -0.08862  -0.04720  -0.01251   0.00917   0.02535
 Alpha virt. eigenvalues --    0.04459   0.05700   0.06777   0.07332   0.07624
 Alpha virt. eigenvalues --    0.07825   0.08643   0.08753   0.09033   0.09534

 Mulliken charges:
               1
     1  C   -0.035020
     2  C    0.008183
     3  C   -0.174543
     4  C   -0.171168
     5  C   -0.174191
     6  C   -0.201113
     7  C    0.070021
     8  C    0.043101
     9  C   -0.245596
    10  C   -0.176903
    11  C    0.129135
    12  C    0.025307
    13  C   -0.282390
    14  C   -0.284222
    15  C   -0.300873
    16  C   -0.295237
    17  C   -0.161637
    18  C   -0.143152
    19  C   -0.359075
    20  C   -0.357872
    21  C   -0.075137
    22  C   -0.066505
    23  C    0.117116
    24  C    0.102555
    25  C   -0.388375
    26  C   -0.364454
    27  C   -0.126824
    28  C   -0.119167
    29  C   -0.068908
    30  C   -0.078463
    31  C   -0.129277
    32  C   -0.117147
    33  C    0.142680
    34  C    0.150732
    35  C   -0.368349
    36  C   -0.377343
    37  C   -0.117422
    38  C   -0.129131
    39  C   -0.076240
    40  C   -0.109356
    41  H    0.063398
    42  H    0.081534
    43  H    0.095515
    44  H    0.095465
    45  H    0.091417
    46  H    0.084880
    47  H    0.093301
    48  H    0.078882
    49  H    0.110601
    50  H    0.085958
    51  H    0.118296
    52  H    0.086121
    53  H    0.106339
    54  H    0.078085
    55  H    0.118638
    56  H    0.102455
    57  H    0.095682
    58  H    0.099227
    59  H    0.099318
    60  H    0.105593
    61  H    0.084237
    62  H    0.115328
    63  H    0.067262
    64  H    0.076675
    65  H    0.082416
    66  H    0.066889
    67  H    0.112255
    68  H    0.059369
    69  H    0.122615
    70  H    0.130385
    71  H    0.132914
    72  H    0.090976
    73  H    0.078094
    74  H    0.087690
    75  H    0.135764
    76  H    0.113750
    77  H    0.100971
    78  H    0.117926
    79  H    0.119675
    80  H    0.124827
    81  H    0.077220
    82  H    0.073266
    83  H    0.079583
    84  H    0.042139
    85  H    0.073676
    86  H    0.071365
    87  H    0.094021
    88  H    0.121391
    89  H    0.089000
    90  H    0.117174
    91  H    0.129881
    92  H    0.113269
    93  H    0.085168
    94  H    0.058065
    95  H    0.074241
    96  H    0.076078
 Sum of Mulliken charges =  -0.00000

 Dipole moment (field-independent basis, Debye):
    X=             -0.9895    Y=              0.4321    Z=              0.4867  Tot=              1.1844
 Quadrupole moment (field-independent basis, Debye-Ang):
   XX=           -210.7537   YY=           -231.5491   ZZ=           -256.2502
   XY=             -8.0438   XZ=             -0.4228   YZ=              4.1286

 Normal termination of Gaussian 16 at Wed Jul 31 11:29:37 2019.
