 Gaussian 16, Revision A.03,
 Gaussian 16:  ES64L-G16RevA.03 25-Dec-2016

 ---------------------------------
 # td=(NStates=1) B3LYP/6-31G(d,p)
 ---------------------------------

 --
 TD
 --
 Symbolic Z-matrix:
 Charge =  0 Multiplicity = 1

                         Standard orientation:
 ---------------------------------------------------------------------
 Center     Atomic      Atomic             Coordinates (Angstroms)
 Number     Number       Type             X           Y           Z
 ---------------------------------------------------------------------
      1          6           0       12.203226    0.528523   -0.556326
      2          6           0      -12.164071   -0.175370    0.880890
      3          6           0       13.453879   -0.392265   -0.472489
      4          6           0      -12.987847    1.023449    1.382399
      5          6           0       13.131497   -1.878298   -0.457537
      6          6           0      -13.564499    1.989169    0.258336
      7          6           0       11.053975   -0.091358    0.352561
      8          6           0      -11.100170    0.395999   -0.102499
      9          6           0       12.196972   -2.294110    0.716825
     10          6           0      -12.266104    2.635613   -0.389778
     11          6           0       11.059462   -1.287817    0.919249
     12          6           0      -11.144993    1.680646   -0.614243
     13          6           0       11.724117    0.589964   -2.012661
     14          6           0       12.669798    1.863881   -0.128770
     15          6           0      -13.102907   -1.156278    0.079769
     16          6           0      -11.567794   -0.802504    2.075756
     17          6           0        9.888205    0.856614    0.363336
     18          6           0       -9.995557   -0.533251   -0.301025
     19          6           0       10.176180   -1.803652    1.999502
     20          6           0       -9.991942    2.032495   -1.589794
     21          6           0        8.549880    0.536864    0.307125
     22          6           0       -8.657016   -0.374603   -0.222684
     23          6           0        7.532986    1.333225    0.459081
     24          6           0       -7.577538   -1.389245   -0.280098
     25          6           0        7.791646    2.854860    0.549213
     26          6           0       -7.865031   -2.767671   -0.526508
     27          6           0        6.218990    0.835971    0.174260
     28          6           0       -6.332045   -0.800032   -0.191624
     29          6           0        4.851896    1.515967    0.172104
     30          6           0       -5.099029   -1.625104   -0.374107
     31          6           0        3.777316    0.842555    0.023705
     32          6           0       -3.795326   -0.986960   -0.418051
     33          6           0        2.439659    1.366328    0.074142
     34          6           0       -2.478662   -1.657857   -0.618294
     35          6           0        2.314349    2.754239    0.435406
     36          6           0       -2.572990   -3.150807   -0.972289
     37          6           0        1.392707    0.648053   -0.098320
     38          6           0       -1.331189   -1.023559   -0.448809
     39          6           0        1.172357   -0.801202   -0.362280
     40          6           0        0.003878   -1.599903   -0.439925
     41          1           0       14.053860   -0.318486    0.446413
     42          1           0       14.017329   -0.247780   -1.365001
     43          1           0      -12.392230    1.587413    2.102297
     44          1           0      -13.965101    0.586763    1.990144
     45          1           0       13.972331   -2.355131   -0.258879
     46          1           0       12.685119   -2.211904   -1.503445
     47          1           0      -14.103787    2.827001    0.662118
     48          1           0      -14.206134    1.592256   -0.497229
     49          1           0       12.815610   -2.297590    1.590355
     50          1           0       11.790713   -3.166838    0.356139
     51          1           0      -11.953900    3.404495    0.137648
     52          1           0      -12.517052    3.221020   -1.391512
     53          1           0       11.588773   -0.369339   -2.478060
     54          1           0       12.382522    1.123328   -2.813433
     55          1           0       10.694229    1.192526   -2.038197
     56          1           0       12.911500    2.107343    0.965217
     57          1           0       11.854782    2.772484   -0.364995
     58          1           0       13.654791    2.173598   -0.709360
     59          1           0      -13.548826   -0.765489   -0.808118
     60          1           0      -13.892964   -1.450427    0.655230
     61          1           0      -12.511818   -2.110728    0.055269
     62          1           0      -10.945774   -0.114704    2.731073
     63          1           0      -11.092554   -1.661897    1.889162
     64          1           0      -12.459891   -1.083884    2.933652
     65          1           0       10.157323    1.724787    0.804088
     66          1           0      -10.209148   -1.607972   -0.289275
     67          1           0        9.516378   -0.905151    2.452846
     68          1           0       10.801667   -2.152897    2.833873
     69          1           0        9.696185   -2.666954    1.567858
     70          1           0       -9.271196    1.290629   -1.903287
     71          1           0       -9.275140    2.740233   -1.248706
     72          1           0      -10.374303    2.641674   -2.566961
     73          1           0        8.343195   -0.611329    0.090943
     74          1           0       -8.412118    0.642132   -0.160412
     75          1           0        8.209132    3.099872    1.451768
     76          1           0        6.771648    3.242543    0.642846
     77          1           0        8.394898    3.201132   -0.209588
     78          1           0       -8.655600   -2.854466   -1.347477
     79          1           0       -8.202256   -3.049436    0.529158
     80          1           0       -6.972709   -3.304266   -0.839784
     81          1           0        6.198635   -0.278163    0.105222
     82          1           0       -6.003857    0.399530    0.246493
     83          1           0        4.814673    2.471221    0.461102
     84          1           0       -5.286522   -2.785903   -0.259820
     85          1           0        4.072259   -0.220278   -0.214926
     86          1           0       -3.656160    0.127294   -0.144422
     87          1           0        2.626495    2.982008    1.604377
     88          1           0        1.305090    3.121403    0.607054
     89          1           0        2.919864    3.413725   -0.112265
     90          1           0       -2.823394   -3.183273   -2.047245
     91          1           0       -3.236184   -3.650041   -0.213973
     92          1           0       -1.685152   -3.592118   -0.780336
     93          1           0        0.417447    1.151095   -0.117223
     94          1           0       -1.222506    0.060127   -0.327814
     95          1           0        2.086947   -1.377229   -0.280224
     96          1           0        0.073299   -2.659348   -0.493673
 ---------------------------------------------------------------------

 SCF Done:  E(RB3LYP) =  -1557.58088993     A.U. after   16 cycles

 Excitation energies and oscillator strengths:

 Excited State   1:      Singlet-A      2.3554 eV  526.39 nm  f=2.7063  <S**2>=0.000
     148 ->149         0.70603
 This state for optimization and/or second-order correction.
 Total Energy, E(TD-HF/TD-DFT) =  -1557.49433175
 Copying the excited state density for this state as the 1-particle RhoCI density.

 The electronic state is 1-A.
 Alpha  occ. eigenvalues --  -10.21078 -10.20993 -10.20629 -10.20266 -10.20006
 Alpha  occ. eigenvalues --  -10.19847 -10.19787 -10.19734 -10.19653 -10.19652
 Alpha  occ. eigenvalues --  -10.19612 -10.19603 -10.19315 -10.19088 -10.19054
 Alpha  occ. eigenvalues --  -10.19030 -10.18674 -10.18639 -10.18515 -10.18325
 Alpha  occ. eigenvalues --  -10.18269 -10.18151 -10.18121 -10.18100 -10.18089
 Alpha  occ. eigenvalues --  -10.18021 -10.17899 -10.17887 -10.17881 -10.17824
 Alpha  occ. eigenvalues --  -10.17797 -10.17790 -10.17753 -10.17566 -10.17169
 Alpha  occ. eigenvalues --  -10.16957 -10.16773 -10.16745 -10.16684 -10.16563
 Alpha  occ. eigenvalues --   -0.85042  -0.84671  -0.84558  -0.82956  -0.82733
 Alpha  occ. eigenvalues --   -0.82077  -0.78762  -0.78529  -0.78322  -0.77180
 Alpha  occ. eigenvalues --   -0.76506  -0.75846  -0.73516  -0.72045  -0.71965
 Alpha  occ. eigenvalues --   -0.70340  -0.69233  -0.68695  -0.68486  -0.67713
 Alpha  occ. eigenvalues --   -0.67144  -0.66946  -0.66788  -0.66495  -0.66239
 Alpha  occ. eigenvalues --   -0.62830  -0.62104  -0.60239  -0.58671  -0.57370
 Alpha  occ. eigenvalues --   -0.56759  -0.55894  -0.54972  -0.54397  -0.53137
 Alpha  occ. eigenvalues --   -0.52290  -0.50953  -0.50749  -0.49896  -0.48552
 Alpha  occ. eigenvalues --   -0.48306  -0.47378  -0.46910  -0.46398  -0.45917
 Alpha  occ. eigenvalues --   -0.45774  -0.45481  -0.45129  -0.44636  -0.44226
 Alpha  occ. eigenvalues --   -0.44054  -0.43928  -0.43449  -0.43249  -0.43023
 Alpha  occ. eigenvalues --   -0.42866  -0.42470  -0.41779  -0.41472  -0.41031
 Alpha  occ. eigenvalues --   -0.40624  -0.40466  -0.40186  -0.39762  -0.39287
 Alpha  occ. eigenvalues --   -0.38831  -0.38205  -0.38070  -0.37846  -0.37666
 Alpha  occ. eigenvalues --   -0.37609  -0.37347  -0.36997  -0.36873  -0.36778
 Alpha  occ. eigenvalues --   -0.36337  -0.35943  -0.35928  -0.35565  -0.35402
 Alpha  occ. eigenvalues --   -0.34853  -0.34763  -0.34106  -0.33993  -0.33764
 Alpha  occ. eigenvalues --   -0.33208  -0.33003  -0.32794  -0.32531  -0.32397
 Alpha  occ. eigenvalues --   -0.32186  -0.32050  -0.31215  -0.30893  -0.30739
 Alpha  occ. eigenvalues --   -0.30653  -0.30203  -0.29925  -0.29632  -0.28655
 Alpha  occ. eigenvalues --   -0.27890  -0.27238  -0.26337  -0.23964  -0.23164
 Alpha  occ. eigenvalues --   -0.20961  -0.18564  -0.16927
 Alpha virt. eigenvalues --   -0.07658  -0.05307  -0.02048   0.00962   0.03176
 Alpha virt. eigenvalues --    0.03909   0.05272   0.07009   0.07401   0.08117
 Alpha virt. eigenvalues --    0.08251   0.08469   0.08898   0.09197   0.09546

 Mulliken charges:
               1
     1  C    0.034689
     2  C    0.002985
     3  C   -0.169870
     4  C   -0.168129
     5  C   -0.197160
     6  C   -0.196189
     7  C    0.052174
     8  C    0.080880
     9  C   -0.216577
    10  C   -0.236190
    11  C    0.036185
    12  C    0.083027
    13  C   -0.298165
    14  C   -0.287097
    15  C   -0.298649
    16  C   -0.280163
    17  C   -0.156331
    18  C   -0.149326
    19  C   -0.342624
    20  C   -0.378647
    21  C   -0.074811
    22  C   -0.070225
    23  C    0.107862
    24  C    0.094986
    25  C   -0.367425
    26  C   -0.369599
    27  C   -0.154293
    28  C   -0.099067
    29  C   -0.056383
    30  C   -0.115775
    31  C   -0.093363
    32  C   -0.124811
    33  C    0.179860
    34  C    0.095774
    35  C   -0.389195
    36  C   -0.356835
    37  C   -0.147594
    38  C   -0.102748
    39  C   -0.100705
    40  C   -0.096469
    41  H    0.084380
    42  H    0.093134
    43  H    0.096320
    44  H    0.053215
    45  H    0.096806
    46  H    0.068494
    47  H    0.096605
    48  H    0.107969
    49  H    0.104825
    50  H    0.113407
    51  H    0.126061
    52  H    0.074378
    53  H    0.107277
    54  H    0.082551
    55  H    0.092616
    56  H    0.096665
    57  H    0.060348
    58  H    0.088759
    59  H    0.112901
    60  H    0.109252
    61  H    0.090345
    62  H    0.104695
    63  H    0.105569
    64  H    0.054621
    65  H    0.092229
    66  H    0.060567
    67  H    0.097807
    68  H    0.108460
    69  H    0.115427
    70  H    0.129870
    71  H    0.114639
    72  H    0.070202
    73  H    0.063518
    74  H    0.072507
    75  H    0.124522
    76  H    0.100501
    77  H    0.134128
    78  H    0.124797
    79  H    0.131433
    80  H    0.117246
    81  H    0.072563
    82  H    0.071514
    83  H    0.071786
    84  H    0.089984
    85  H    0.078827
    86  H    0.076017
    87  H    0.087297
    88  H    0.115593
    89  H    0.128362
    90  H    0.132563
    91  H    0.109542
    92  H    0.112509
    93  H    0.066849
    94  H    0.073413
    95  H    0.074749
    96  H    0.085376
 Sum of Mulliken charges =  -0.00000

 Dipole moment (field-independent basis, Debye):
    X=             -0.2534    Y=             -0.4959    Z=              1.1235  Tot=              1.2539
 Quadrupole moment (field-independent basis, Debye-Ang):
   XX=           -227.2819   YY=           -232.4606   ZZ=           -254.9857
   XY=             -4.2041   XZ=              2.9813   YZ=              3.0383

 Normal termination of Gaussian 16 at Wed Jul 31 19:33:26 2019.
