 Gaussian 16, Revision A.03,
 Gaussian 16:  ES64L-G16RevA.03 25-Dec-2016

 ---------------------------------
 # td=(NStates=1) B3LYP/6-31G(d,p)
 ---------------------------------

 --
 TD
 --
 Symbolic Z-matrix:
 Charge =  0 Multiplicity = 1

                         Standard orientation:
 ---------------------------------------------------------------------
 Center     Atomic      Atomic             Coordinates (Angstroms)
 Number     Number       Type             X           Y           Z
 ---------------------------------------------------------------------
      1          6           0      -12.206597   -0.647621   -0.425250
      2          6           0       12.242654    0.023727    0.742517
      3          6           0      -13.544051    0.196036   -0.458998
      4          6           0       13.073339   -1.141372    1.217970
      5          6           0      -13.172584    1.697141   -0.688090
      6          6           0       13.372935   -2.085850    0.139664
      7          6           0      -11.031014    0.035189    0.258382
      8          6           0       11.010210   -0.556181   -0.026788
      9          6           0      -12.382694    2.150782    0.469187
     10          6           0       12.113392   -2.751325   -0.371980
     11          6           0      -11.191460    1.240958    0.801930
     12          6           0       11.051098   -1.697310   -0.713922
     13          6           0      -11.856825   -0.912677   -1.911346
     14          6           0      -12.715937   -1.983158    0.121834
     15          6           0       13.013802    1.009661   -0.029382
     16          6           0       11.736712    0.800280    2.064907
     17          6           0       -9.853187   -0.834074    0.425081
     18          6           0        9.929190    0.488290   -0.170620
     19          6           0      -10.214842    1.919303    1.824301
     20          6           0        9.870336   -2.277784   -1.560548
     21          6           0       -8.519842   -0.454528    0.199487
     22          6           0        8.553931    0.349375   -0.103727
     23          6           0       -7.383405   -1.211204    0.368986
     24          6           0        7.515543    1.321139   -0.345726
     25          6           0       -7.564109   -2.749674    0.543046
     26          6           0        8.049125    2.810555   -0.541909
     27          6           0       -6.034171   -0.814160    0.271631
     28          6           0        6.229515    0.914336   -0.113929
     29          6           0       -4.836980   -1.402027    0.364952
     30          6           0        5.039709    1.716739   -0.356871
     31          6           0       -3.688946   -0.621530    0.017932
     32          6           0        3.780546    1.118237   -0.370410
     33          6           0       -2.384667   -1.213220    0.156328
     34          6           0        2.518263    1.824952   -0.529615
     35          6           0       -2.181288   -2.694042    0.414542
     36          6           0        2.622315    3.342103   -0.801553
     37          6           0       -1.265713   -0.457709   -0.053832
     38          6           0        1.381089    1.193750   -0.267790
     39          6           0       -1.241465    1.017137   -0.213885
     40          6           0       -0.039086    1.721593   -0.306161
     41          1           0      -13.962862   -0.056647    0.715053
     42          1           0      -14.167070   -0.071444   -1.210576
     43          1           0       12.566664   -1.715783    2.028928
     44          1           0       14.299494   -0.782499    1.696232
     45          1           0      -13.969662    2.320884   -0.879060
     46          1           0      -12.555846    1.667881   -1.734880
     47          1           0       14.017181   -2.803408    0.562428
     48          1           0       13.856319   -1.576175   -0.686295
     49          1           0      -13.113381    2.290323    1.064149
     50          1           0      -12.010222    3.169912    0.092087
     51          1           0       11.659780   -3.521374    0.260186
     52          1           0       12.454784   -3.139957   -1.401683
     53          1           0      -11.544382   -0.038566   -2.640614
     54          1           0      -12.652554   -1.282964   -2.456893
     55          1           0      -10.953416   -1.532777   -1.905998
     56          1           0      -13.078777   -2.067369    1.325496
     57          1           0      -12.189299   -2.844375    0.014964
     58          1           0      -13.622876   -2.186997   -0.565941
     59          1           0       13.484066    0.675315   -1.063136
     60          1           0       13.934043    1.485680    0.585496
     61          1           0       12.247424    1.796664   -0.272034
     62          1           0       10.916578    0.187556    2.547936
     63          1           0       11.327425    1.917202    2.058210
     64          1           0       12.641229    0.851533    2.900495
     65          1           0      -10.076789   -1.899971    0.536111
     66          1           0       10.497388    1.384511   -0.754671
     67          1           0       -9.492963    1.052095    2.108872
     68          1           0      -10.904251    2.229856    2.731397
     69          1           0       -9.563312    2.703288    1.682071
     70          1           0        9.444106   -1.340358   -2.136283
     71          1           0        9.301711   -2.990907   -1.074424
     72          1           0       10.284516   -2.945987   -2.291146
     73          1           0       -8.300615    0.721380    0.129597
     74          1           0        8.162112   -0.719695    0.038358
     75          1           0       -7.990213   -3.146733    1.530442
     76          1           0       -6.648673   -3.316328    0.502310
     77          1           0       -8.309197   -3.068052   -0.469065
     78          1           0        8.461839    3.034066   -1.518645
     79          1           0        8.744708    2.953752    0.326995
     80          1           0        7.232883    3.586402   -0.295958
     81          1           0       -6.005824    0.261186    0.018018
     82          1           0        6.164903   -0.134660   -0.049904
     83          1           0       -4.702653   -2.481282    0.441988
     84          1           0        5.125434    2.683156   -0.445640
     85          1           0       -3.842741    0.412621   -0.204402
     86          1           0        3.770031    0.120182   -0.236989
     87          1           0       -2.782044   -2.756117    1.390947
     88          1           0       -1.173616   -3.002461    0.961088
     89          1           0       -2.532953   -3.238665   -0.653403
     90          1           0        3.191785    3.575703   -1.655094
     91          1           0        3.084384    3.773445    0.104733
     92          1           0        1.832688    4.018824   -0.999037
     93          1           0       -0.304635   -1.178366   -0.268246
     94          1           0        1.397176    0.124633   -0.123581
     95          1           0       -2.238842    1.603912   -0.122224
     96          1           0       -0.180032    2.922926   -0.480845
 ---------------------------------------------------------------------

 SCF Done:  E(RB3LYP) =  -1557.52462729     A.U. after   16 cycles

 Excitation energies and oscillator strengths:

 Excited State   1:      Singlet-A      2.1218 eV  584.33 nm  f=2.9152  <S**2>=0.000
     147 ->149         0.11911
     148 ->149         0.69498
     148 ->150         0.10671
     148 <-149        -0.11200
 This state for optimization and/or second-order correction.
 Total Energy, E(TD-HF/TD-DFT) =  -1557.44665151
 Copying the excited state density for this state as the 1-particle RhoCI density.

 The electronic state is 1-A.
 Alpha  occ. eigenvalues --  -10.21486 -10.21194 -10.20870 -10.20436 -10.20359
 Alpha  occ. eigenvalues --  -10.20187 -10.20171 -10.20144 -10.19952 -10.19940
 Alpha  occ. eigenvalues --  -10.19933 -10.19807 -10.19720 -10.19711 -10.19602
 Alpha  occ. eigenvalues --  -10.19554 -10.19457 -10.19432 -10.19315 -10.19157
 Alpha  occ. eigenvalues --  -10.19072 -10.19057 -10.18958 -10.18910 -10.18759
 Alpha  occ. eigenvalues --  -10.18758 -10.18641 -10.18590 -10.18582 -10.18508
 Alpha  occ. eigenvalues --  -10.18475 -10.18387 -10.18198 -10.18155 -10.17844
 Alpha  occ. eigenvalues --  -10.17834 -10.17268 -10.16964 -10.16609 -10.16487
 Alpha  occ. eigenvalues --   -0.85292  -0.85061  -0.83710  -0.83221  -0.81760
 Alpha  occ. eigenvalues --   -0.81327  -0.78602  -0.78342  -0.77992  -0.77619
 Alpha  occ. eigenvalues --   -0.76590  -0.75493  -0.74338  -0.71261  -0.70942
 Alpha  occ. eigenvalues --   -0.70185  -0.68553  -0.67926  -0.67809  -0.67377
 Alpha  occ. eigenvalues --   -0.67007  -0.66780  -0.66675  -0.66102  -0.65369
 Alpha  occ. eigenvalues --   -0.63322  -0.62233  -0.59340  -0.58574  -0.57382
 Alpha  occ. eigenvalues --   -0.56649  -0.55974  -0.55419  -0.54648  -0.53482
 Alpha  occ. eigenvalues --   -0.52168  -0.51573  -0.49982  -0.49326  -0.48800
 Alpha  occ. eigenvalues --   -0.48166  -0.47346  -0.46796  -0.46356  -0.46018
 Alpha  occ. eigenvalues --   -0.45577  -0.45190  -0.44569  -0.44086  -0.43648
 Alpha  occ. eigenvalues --   -0.43515  -0.43151  -0.42947  -0.42552  -0.42468
 Alpha  occ. eigenvalues --   -0.42289  -0.42003  -0.41697  -0.41136  -0.40864
 Alpha  occ. eigenvalues --   -0.40607  -0.40025  -0.39793  -0.39465  -0.39190
 Alpha  occ. eigenvalues --   -0.38845  -0.38528  -0.38272  -0.37943  -0.37663
 Alpha  occ. eigenvalues --   -0.37311  -0.36848  -0.36600  -0.36328  -0.36194
 Alpha  occ. eigenvalues --   -0.35962  -0.35664  -0.35522  -0.35097  -0.35043
 Alpha  occ. eigenvalues --   -0.34801  -0.34277  -0.34022  -0.33733  -0.33602
 Alpha  occ. eigenvalues --   -0.33311  -0.33219  -0.32992  -0.32611  -0.32364
 Alpha  occ. eigenvalues --   -0.32100  -0.31736  -0.31147  -0.30855  -0.30674
 Alpha  occ. eigenvalues --   -0.30327  -0.29744  -0.29399  -0.28840  -0.28339
 Alpha  occ. eigenvalues --   -0.28010  -0.27594  -0.26216  -0.24376  -0.23397
 Alpha  occ. eigenvalues --   -0.22021  -0.18915  -0.16505
 Alpha virt. eigenvalues --   -0.08709  -0.06074  -0.01912   0.00697   0.02418
 Alpha virt. eigenvalues --    0.03841   0.05445   0.06164   0.06513   0.07132
 Alpha virt. eigenvalues --    0.07246   0.07726   0.08129   0.08659   0.09242

 Mulliken charges:
               1
     1  C   -0.028182
     2  C    0.032577
     3  C   -0.152771
     4  C   -0.136541
     5  C   -0.199503
     6  C   -0.175254
     7  C    0.128877
     8  C    0.042420
     9  C   -0.183358
    10  C   -0.214363
    11  C    0.035172
    12  C    0.043666
    13  C   -0.296634
    14  C   -0.282160
    15  C   -0.274180
    16  C   -0.299792
    17  C   -0.153723
    18  C   -0.140341
    19  C   -0.360912
    20  C   -0.354960
    21  C   -0.115370
    22  C   -0.110155
    23  C    0.139647
    24  C    0.114731
    25  C   -0.358490
    26  C   -0.374060
    27  C   -0.118157
    28  C   -0.125160
    29  C   -0.071354
    30  C   -0.053235
    31  C   -0.091850
    32  C   -0.108409
    33  C    0.084973
    34  C    0.138918
    35  C   -0.362076
    36  C   -0.384946
    37  C   -0.119199
    38  C   -0.129433
    39  C   -0.094537
    40  C   -0.099637
    41  H    0.052419
    42  H    0.094552
    43  H    0.088519
    44  H    0.013979
    45  H    0.088662
    46  H    0.065535
    47  H    0.094507
    48  H    0.100634
    49  H    0.118175
    50  H    0.088234
    51  H    0.108149
    52  H    0.085033
    53  H    0.085599
    54  H    0.104045
    55  H    0.101767
    56  H    0.070935
    57  H    0.106980
    58  H    0.091911
    59  H    0.081622
    60  H    0.089882
    61  H    0.095852
    62  H    0.102036
    63  H    0.088291
    64  H    0.073524
    65  H    0.096613
    66  H    0.084354
    67  H    0.102297
    68  H    0.090456
    69  H    0.124931
    70  H    0.112820
    71  H    0.123178
    72  H    0.100567
    73  H    0.070944
    74  H    0.082073
    75  H    0.107244
    76  H    0.106599
    77  H    0.074591
    78  H    0.128739
    79  H    0.128434
    80  H    0.096635
    81  H    0.059321
    82  H    0.077858
    83  H    0.094687
    84  H    0.069674
    85  H    0.090292
    86  H    0.073072
    87  H    0.123552
    88  H    0.106712
    89  H    0.116022
    90  H    0.123883
    91  H    0.122041
    92  H    0.113491
    93  H    0.077572
    94  H    0.077862
    95  H    0.094357
    96  H    0.066048
 Sum of Mulliken charges =  -0.00000

 Dipole moment (field-independent basis, Debye):
    X=              0.0281    Y=             -0.4057    Z=             -0.7715  Tot=              0.8721
 Quadrupole moment (field-independent basis, Debye-Ang):
   XX=           -249.3846   YY=           -233.3162   ZZ=           -255.9172
   XY=             -5.2394   XZ=             -3.0143   YZ=             -3.3493

 Normal termination of Gaussian 16 at Sun Jul 28 02:59:38 2019.
