 Gaussian 16, Revision A.03,
 Gaussian 16:  ES64L-G16RevA.03 25-Dec-2016

 ---------------------------------
 # td=(NStates=1) B3LYP/6-31G(d,p)
 ---------------------------------

 --
 TD
 --
 Symbolic Z-matrix:
 Charge =  0 Multiplicity = 1

                         Standard orientation:
 ---------------------------------------------------------------------
 Center     Atomic      Atomic             Coordinates (Angstroms)
 Number     Number       Type             X           Y           Z
 ---------------------------------------------------------------------
      1          6           0       12.105121    0.478253   -0.817717
      2          6           0      -12.032841   -0.121274    0.768498
      3          6           0       13.395082   -0.327674   -0.762534
      4          6           0      -12.900592    1.196876    1.328950
      5          6           0       13.096414   -1.826652   -0.703534
      6          6           0      -13.350259    2.047057    0.172365
      7          6           0       11.008425   -0.076288    0.150171
      8          6           0      -10.951451    0.418067   -0.186520
      9          6           0       12.308609   -2.092801    0.610983
     10          6           0      -12.135025    2.552577   -0.582682
     11          6           0       11.204111   -1.207250    0.850097
     12          6           0      -11.067979    1.549828   -0.825126
     13          6           0       11.443769    0.642483   -2.191942
     14          6           0       12.562186    1.864494   -0.345185
     15          6           0      -13.038989   -1.036963    0.078059
     16          6           0      -11.515553   -0.683692    2.126588
     17          6           0        9.859920    0.838813    0.283424
     18          6           0       -9.895814   -0.668192   -0.410669
     19          6           0       10.345632   -1.613688    2.040110
     20          6           0      -10.059441    1.950983   -1.783120
     21          6           0        8.527703    0.438308    0.361693
     22          6           0       -8.603819   -0.405079   -0.205433
     23          6           0        7.386081    1.335301    0.434806
     24          6           0       -7.532899   -1.337198   -0.367686
     25          6           0        7.533992    2.667056    0.989341
     26          6           0       -7.877579   -2.736951   -0.728561
     27          6           0        6.183132    0.743036    0.343150
     28          6           0       -6.170632   -0.865400   -0.248247
     29          6           0        4.903826    1.400316    0.385473
     30          6           0       -5.017335   -1.642533   -0.287601
     31          6           0        3.719904    0.715228    0.312881
     32          6           0       -3.882707   -1.033979   -0.082040
     33          6           0        2.374589    1.306929    0.221188
     34          6           0       -2.512453   -1.703166   -0.371657
     35          6           0        2.298552    2.842643    0.397195
     36          6           0       -2.569331   -3.194238   -0.658093
     37          6           0        1.245425    0.615340    0.110750
     38          6           0       -1.301385   -1.050298   -0.106022
     39          6           0        1.160484   -0.815858   -0.134339
     40          6           0       -0.028654   -1.537070   -0.212214
     41          1           0       13.796353   -0.131632    0.216831
     42          1           0       14.084104   -0.067435   -1.558928
     43          1           0      -12.253289    1.760635    2.126222
     44          1           0      -13.859920    0.779140    1.817480
     45          1           0       14.008058   -2.535262   -0.715563
     46          1           0       12.622413   -2.162381   -1.641555
     47          1           0      -14.048970    2.821042    0.484584
     48          1           0      -14.094304    1.297484   -0.245584
     49          1           0       13.023928   -2.154249    1.484110
     50          1           0       11.805256   -3.126346    0.619587
     51          1           0      -11.624432    3.373913    0.062445
     52          1           0      -12.355070    3.149158   -1.485042
     53          1           0       11.293520   -0.342842   -2.803034
     54          1           0       12.199737    1.099522   -2.954882
     55          1           0       10.559933    1.215362   -2.303462
     56          1           0       13.164659    1.954608    0.589441
     57          1           0       11.582130    2.687747   -0.265446
     58          1           0       13.121771    2.195467   -1.210297
     59          1           0      -13.730360   -0.410209   -0.556587
     60          1           0      -13.867897   -1.334416    0.767572
     61          1           0      -12.510730   -1.834373   -0.349980
     62          1           0      -10.605412   -0.191389    2.593887
     63          1           0      -11.365670   -1.763928    1.883163
     64          1           0      -12.354874   -0.804385    2.915793
     65          1           0       10.021061    1.882356    0.357834
     66          1           0      -10.214561   -1.592465   -0.779520
     67          1           0        9.686938   -0.644492    2.477076
     68          1           0       11.246957   -1.664809    2.790631
     69          1           0        9.686962   -2.640691    1.955051
     70          1           0       -9.139401    1.278837   -1.910578
     71          1           0       -9.744395    3.087878   -1.393240
     72          1           0      -10.862047    2.070265   -2.808487
     73          1           0        8.471779   -0.532180    0.303107
     74          1           0       -8.156155    0.510009    0.158780
     75          1           0        8.646432    2.627239    1.694728
     76          1           0        6.635696    3.166687    1.697150
     77          1           0        7.642045    3.497628    0.055187
     78          1           0       -8.120791   -2.907906   -1.889931
     79          1           0       -8.751357   -3.273551   -0.082926
     80          1           0       -6.883466   -3.284223   -0.475404
     81          1           0        6.170393   -0.371587    0.260502
     82          1           0       -5.978388    0.101767   -0.041447
     83          1           0        4.777888    2.314854    0.379650
     84          1           0       -5.113759   -2.693507   -0.258454
     85          1           0        3.628579   -0.246713    0.232669
     86          1           0       -3.738193    0.072091    0.055040
     87          1           0        2.719394    3.162764    1.225987
     88          1           0        1.281401    3.117991    0.282664
     89          1           0        2.875198    3.252705   -0.482665
     90          1           0       -2.878789   -3.072258   -1.728778
     91          1           0       -3.513651   -3.686824    0.081395
     92          1           0       -1.519650   -3.758805   -0.566167
     93          1           0        0.280537    1.044915    0.001038
     94          1           0       -1.322872   -0.077435   -0.045189
     95          1           0        2.017425   -1.414594   -0.235658
     96          1           0        0.248541   -2.565247   -0.509601
 ---------------------------------------------------------------------

 SCF Done:  E(RB3LYP) =  -1557.52765065     A.U. after   15 cycles

 Excitation energies and oscillator strengths:

 Excited State   1:      Singlet-A      2.2495 eV  551.17 nm  f=2.9187  <S**2>=0.000
     148 ->149         0.70529
 This state for optimization and/or second-order correction.
 Total Energy, E(TD-HF/TD-DFT) =  -1557.44498438
 Copying the excited state density for this state as the 1-particle RhoCI density.

 The electronic state is 1-A.
 Alpha  occ. eigenvalues --  -10.22502 -10.21175 -10.20877 -10.20723 -10.20613
 Alpha  occ. eigenvalues --  -10.20597 -10.20054 -10.19983 -10.19732 -10.19572
 Alpha  occ. eigenvalues --  -10.19479 -10.19276 -10.19146 -10.18813 -10.18622
 Alpha  occ. eigenvalues --  -10.18613 -10.18570 -10.18514 -10.18451 -10.18407
 Alpha  occ. eigenvalues --  -10.18391 -10.18376 -10.18358 -10.18155 -10.18064
 Alpha  occ. eigenvalues --  -10.18017 -10.18002 -10.17981 -10.17908 -10.17875
 Alpha  occ. eigenvalues --  -10.17811 -10.17764 -10.17697 -10.17690 -10.17641
 Alpha  occ. eigenvalues --  -10.17485 -10.17369 -10.17340 -10.17243 -10.16955
 Alpha  occ. eigenvalues --   -0.85422  -0.85070  -0.84042  -0.83697  -0.82665
 Alpha  occ. eigenvalues --   -0.81444  -0.79812  -0.79043  -0.78380  -0.77757
 Alpha  occ. eigenvalues --   -0.76674  -0.75764  -0.74555  -0.72134  -0.71802
 Alpha  occ. eigenvalues --   -0.70439  -0.67698  -0.67540  -0.67461  -0.67304
 Alpha  occ. eigenvalues --   -0.66935  -0.66791  -0.66415  -0.65902  -0.65848
 Alpha  occ. eigenvalues --   -0.62856  -0.62165  -0.59923  -0.58766  -0.57334
 Alpha  occ. eigenvalues --   -0.57172  -0.55699  -0.55122  -0.54822  -0.54345
 Alpha  occ. eigenvalues --   -0.52957  -0.52066  -0.50886  -0.49809  -0.49235
 Alpha  occ. eigenvalues --   -0.48093  -0.47822  -0.46942  -0.46773  -0.46340
 Alpha  occ. eigenvalues --   -0.45912  -0.45158  -0.44754  -0.44706  -0.44102
 Alpha  occ. eigenvalues --   -0.43626  -0.43510  -0.42817  -0.42563  -0.42257
 Alpha  occ. eigenvalues --   -0.42061  -0.41891  -0.41772  -0.41407  -0.40712
 Alpha  occ. eigenvalues --   -0.40472  -0.40335  -0.39870  -0.39689  -0.38976
 Alpha  occ. eigenvalues --   -0.38509  -0.38395  -0.38256  -0.38204  -0.37916
 Alpha  occ. eigenvalues --   -0.37516  -0.37377  -0.37319  -0.36904  -0.36743
 Alpha  occ. eigenvalues --   -0.36450  -0.36070  -0.35585  -0.35379  -0.35004
 Alpha  occ. eigenvalues --   -0.34770  -0.34620  -0.34414  -0.34345  -0.33765
 Alpha  occ. eigenvalues --   -0.33481  -0.33428  -0.33212  -0.32955  -0.32502
 Alpha  occ. eigenvalues --   -0.32461  -0.31844  -0.31796  -0.31473  -0.30921
 Alpha  occ. eigenvalues --   -0.30644  -0.29577  -0.29371  -0.29036  -0.28520
 Alpha  occ. eigenvalues --   -0.27960  -0.26523  -0.26283  -0.23645  -0.22926
 Alpha  occ. eigenvalues --   -0.21098  -0.18897  -0.16656
 Alpha virt. eigenvalues --   -0.08042  -0.05262  -0.01798   0.00959   0.02949
 Alpha virt. eigenvalues --    0.04027   0.05819   0.06186   0.06668   0.07084
 Alpha virt. eigenvalues --    0.07311   0.07653   0.07832   0.08138   0.08826

 Mulliken charges:
               1
     1  C   -0.000503
     2  C   -0.002027
     3  C   -0.177602
     4  C   -0.184532
     5  C   -0.190269
     6  C   -0.169887
     7  C    0.082039
     8  C    0.033149
     9  C   -0.230338
    10  C   -0.212202
    11  C    0.081228
    12  C    0.131365
    13  C   -0.302808
    14  C   -0.279096
    15  C   -0.306857
    16  C   -0.292248
    17  C   -0.147761
    18  C   -0.156463
    19  C   -0.341885
    20  C   -0.321737
    21  C   -0.074692
    22  C   -0.054280
    23  C    0.155288
    24  C    0.103191
    25  C   -0.346470
    26  C   -0.367381
    27  C   -0.121819
    28  C   -0.118475
    29  C   -0.033381
    30  C   -0.036061
    31  C   -0.062274
    32  C   -0.117615
    33  C    0.081407
    34  C    0.057959
    35  C   -0.368042
    36  C   -0.339026
    37  C   -0.122834
    38  C   -0.077713
    39  C   -0.100211
    40  C   -0.092782
    41  H    0.102287
    42  H    0.092846
    43  H    0.073502
    44  H    0.067797
    45  H    0.074391
    46  H    0.098761
    47  H    0.087915
    48  H    0.085552
    49  H    0.099885
    50  H    0.093540
    51  H    0.100015
    52  H    0.095941
    53  H    0.088973
    54  H    0.071896
    55  H    0.126074
    56  H    0.103833
    57  H    0.054991
    58  H    0.104894
    59  H    0.102383
    60  H    0.095306
    61  H    0.106186
    62  H    0.105964
    63  H    0.081728
    64  H    0.088605
    65  H    0.077605
    66  H    0.096556
    67  H    0.096726
    68  H    0.095340
    69  H    0.095368
    70  H    0.121927
    71  H    0.075720
    72  H    0.066067
    73  H    0.068321
    74  H    0.076527
    75  H    0.084524
    76  H    0.100325
    77  H    0.087173
    78  H    0.111588
    79  H    0.101952
    80  H    0.094283
    81  H    0.078155
    82  H    0.070812
    83  H    0.044636
    84  H    0.085111
    85  H    0.049563
    86  H    0.079489
    87  H    0.132967
    88  H    0.106137
    89  H    0.107961
    90  H    0.134351
    91  H    0.084979
    92  H    0.104313
    93  H    0.081195
    94  H    0.061110
    95  H    0.080433
    96  H    0.069168
 Sum of Mulliken charges =  -0.00000

 Dipole moment (field-independent basis, Debye):
    X=             -0.0078    Y=             -0.0833    Z=             -0.3972  Tot=              0.4059
 Quadrupole moment (field-independent basis, Debye-Ang):
   XX=           -223.2164   YY=           -240.1248   ZZ=           -256.7931
   XY=             -3.1074   XZ=              1.2005   YZ=              3.2496

 Normal termination of Gaussian 16 at Wed Jul 31 13:54:35 2019.
