 Gaussian 16, Revision A.03,
 Gaussian 16:  ES64L-G16RevA.03 25-Dec-2016

 ---------------------------------
 # td=(NStates=1) B3LYP/6-31G(d,p)
 ---------------------------------

 --
 TD
 --
 Symbolic Z-matrix:
 Charge =  0 Multiplicity = 1

                         Standard orientation:
 ---------------------------------------------------------------------
 Center     Atomic      Atomic             Coordinates (Angstroms)
 Number     Number       Type             X           Y           Z
 ---------------------------------------------------------------------
      1          6           0       12.250531    0.537780   -0.637415
      2          6           0      -12.117469   -0.102926    0.917480
      3          6           0       13.530300   -0.414207   -0.375467
      4          6           0      -13.032408    1.137867    1.414016
      5          6           0       13.108316   -1.810452   -0.428947
      6          6           0      -13.436729    1.947334    0.141767
      7          6           0       11.082380   -0.022625    0.296885
      8          6           0      -11.009805    0.410451   -0.077549
      9          6           0       12.243747   -2.225094    0.766980
     10          6           0      -12.196240    2.588479   -0.529098
     11          6           0       11.060107   -1.190308    0.963521
     12          6           0      -11.109892    1.546271   -0.696398
     13          6           0       11.684115    0.643988   -2.125108
     14          6           0       12.579866    2.000132   -0.187687
     15          6           0      -13.028876   -1.119827    0.335349
     16          6           0      -11.422079   -0.523320    2.254113
     17          6           0        9.906873    0.824193    0.311065
     18          6           0       -9.910072   -0.533252   -0.174294
     19          6           0       10.031072   -1.791689    1.873718
     20          6           0      -10.126950    2.067819   -1.735904
     21          6           0        8.546009    0.506690    0.297092
     22          6           0       -8.564808   -0.282066   -0.285814
     23          6           0        7.330252    1.332117    0.299865
     24          6           0       -7.551701   -1.263302   -0.420837
     25          6           0        7.539164    2.792715    0.665760
     26          6           0       -7.910318   -2.680882   -0.741696
     27          6           0        6.146128    0.834065    0.042202
     28          6           0       -6.236623   -0.889078   -0.243835
     29          6           0        4.901548    1.429517    0.248419
     30          6           0       -5.002517   -1.721902   -0.558853
     31          6           0        3.758519    0.782790    0.004065
     32          6           0       -3.767535   -1.201575   -0.325006
     33          6           0        2.388718    1.305450    0.121270
     34          6           0       -2.515751   -1.909036   -0.454835
     35          6           0        2.367580    2.800849    0.459236
     36          6           0       -2.523369   -3.298926   -0.834723
     37          6           0        1.324201    0.600230    0.010137
     38          6           0       -1.330062   -1.133619   -0.344086
     39          6           0        1.194206   -0.859355   -0.201047
     40          6           0       -0.007508   -1.534690   -0.398030
     41          1           0       13.955618   -0.176750    0.572675
     42          1           0       14.205482    0.012215   -1.020479
     43          1           0      -12.327469    1.733150    2.178469
     44          1           0      -13.772731    0.792248    2.051422
     45          1           0       13.954342   -2.421769   -0.298234
     46          1           0       12.766585   -1.870972   -1.537054
     47          1           0      -14.272976    2.840332    0.465967
     48          1           0      -14.002385    1.332057   -0.662624
     49          1           0       12.660155   -2.065702    1.822473
     50          1           0       11.830227   -3.213696    0.871894
     51          1           0      -11.796741    3.381619    0.198347
     52          1           0      -12.310085    3.121231   -1.545865
     53          1           0       11.057115   -0.448285   -2.352018
     54          1           0       12.500536    0.677067   -2.849626
     55          1           0       10.906718    1.477969   -2.318487
     56          1           0       12.666042    1.920777    0.921805
     57          1           0       11.832730    2.787865   -0.327163
     58          1           0       13.558240    2.449482   -0.580693
     59          1           0      -13.462992   -0.614612   -0.507360
     60          1           0      -13.692717   -1.549302    1.030116
     61          1           0      -12.303636   -1.980612    0.051788
     62          1           0      -10.752795    0.119458    2.523459
     63          1           0      -10.817434   -1.363095    2.125709
     64          1           0      -12.099921   -0.802906    3.153618
     65          1           0        9.973531    1.797533    0.456367
     66          1           0      -10.189633   -1.584395   -0.318378
     67          1           0        9.178993   -1.169004    2.163605
     68          1           0       10.405138   -2.220989    2.909250
     69          1           0        9.359836   -2.644904    1.504399
     70          1           0       -9.397404    0.981955   -1.871409
     71          1           0       -9.515683    2.831227   -1.246640
     72          1           0      -10.717964    2.448847   -2.591699
     73          1           0        8.349786   -0.462511   -0.111155
     74          1           0       -8.172659    0.778323   -0.348112
     75          1           0        7.837465    2.826612    1.697633
     76          1           0        6.623775    3.421071    0.459576
     77          1           0        8.313974    3.441154    0.184681
     78          1           0       -8.445443   -2.751091   -1.729629
     79          1           0       -8.389693   -3.140043    0.127525
     80          1           0       -6.975825   -3.266559   -0.799884
     81          1           0        6.081708   -0.162520   -0.272255
     82          1           0       -6.004807    0.178658    0.185307
     83          1           0        4.853648    2.550929    0.501902
     84          1           0       -5.311780   -2.812730   -1.134910
     85          1           0        3.966697   -0.228534   -0.098361
     86          1           0       -3.627896   -0.190675    0.099618
     87          1           0        2.598033    3.174623    1.623258
     88          1           0        1.411342    3.264743    0.336576
     89          1           0        2.926158    3.461967   -0.316946
     90          1           0       -2.746778   -3.231112   -1.868108
     91          1           0       -3.201619   -3.829743   -0.025024
     92          1           0       -1.615247   -3.885500   -0.809336
     93          1           0        0.357902    1.063812    0.047713
     94          1           0       -1.446369   -0.117612   -0.113013
     95          1           0        2.032504   -1.507614   -0.130373
     96          1           0        0.168884   -2.637337   -0.358183
 ---------------------------------------------------------------------

 SCF Done:  E(RB3LYP) =  -1557.61424829     A.U. after   15 cycles

 Excitation energies and oscillator strengths:

 Excited State   1:      Singlet-A      2.3079 eV  537.22 nm  f=2.8554  <S**2>=0.000
     148 ->149         0.69913
 This state for optimization and/or second-order correction.
 Total Energy, E(TD-HF/TD-DFT) =  -1557.52943556
 Copying the excited state density for this state as the 1-particle RhoCI density.

 The electronic state is 1-A.
 Alpha  occ. eigenvalues --  -10.21364 -10.21240 -10.20459 -10.20286 -10.20146
 Alpha  occ. eigenvalues --  -10.19689 -10.19581 -10.19573 -10.19546 -10.19454
 Alpha  occ. eigenvalues --  -10.19402 -10.19400 -10.19327 -10.19284 -10.19082
 Alpha  occ. eigenvalues --  -10.18974 -10.18942 -10.18874 -10.18746 -10.18666
 Alpha  occ. eigenvalues --  -10.18666 -10.18658 -10.18415 -10.18399 -10.18347
 Alpha  occ. eigenvalues --  -10.18296 -10.18224 -10.18177 -10.18166 -10.18017
 Alpha  occ. eigenvalues --  -10.17997 -10.17932 -10.17889 -10.17832 -10.17486
 Alpha  occ. eigenvalues --  -10.17209 -10.17061 -10.17056 -10.16848 -10.15369
 Alpha  occ. eigenvalues --   -0.84976  -0.84358  -0.83888  -0.83452  -0.82305
 Alpha  occ. eigenvalues --   -0.81819  -0.78818  -0.78536  -0.77852  -0.77194
 Alpha  occ. eigenvalues --   -0.76623  -0.75578  -0.74050  -0.72022  -0.71594
 Alpha  occ. eigenvalues --   -0.70204  -0.69377  -0.68673  -0.68400  -0.67760
 Alpha  occ. eigenvalues --   -0.67479  -0.67093  -0.66542  -0.66291  -0.65847
 Alpha  occ. eigenvalues --   -0.62659  -0.62013  -0.59639  -0.58848  -0.57380
 Alpha  occ. eigenvalues --   -0.56912  -0.55550  -0.55187  -0.53887  -0.53135
 Alpha  occ. eigenvalues --   -0.52345  -0.51389  -0.50525  -0.49817  -0.49229
 Alpha  occ. eigenvalues --   -0.47976  -0.47680  -0.47051  -0.46458  -0.45944
 Alpha  occ. eigenvalues --   -0.45609  -0.45198  -0.44722  -0.44587  -0.44397
 Alpha  occ. eigenvalues --   -0.44058  -0.43527  -0.43126  -0.42520  -0.42312
 Alpha  occ. eigenvalues --   -0.41487  -0.41409  -0.41279  -0.41203  -0.40934
 Alpha  occ. eigenvalues --   -0.40696  -0.40011  -0.39967  -0.39594  -0.39272
 Alpha  occ. eigenvalues --   -0.39030  -0.38453  -0.38426  -0.38087  -0.37956
 Alpha  occ. eigenvalues --   -0.37728  -0.37395  -0.37347  -0.36968  -0.36810
 Alpha  occ. eigenvalues --   -0.36409  -0.36221  -0.36110  -0.35505  -0.35411
 Alpha  occ. eigenvalues --   -0.34773  -0.34678  -0.34369  -0.33814  -0.33705
 Alpha  occ. eigenvalues --   -0.33623  -0.33238  -0.32778  -0.32456  -0.32395
 Alpha  occ. eigenvalues --   -0.32283  -0.32083  -0.31833  -0.31492  -0.30982
 Alpha  occ. eigenvalues --   -0.30880  -0.29881  -0.29739  -0.28697  -0.27758
 Alpha  occ. eigenvalues --   -0.26842  -0.26575  -0.26491  -0.24863  -0.23250
 Alpha  occ. eigenvalues --   -0.21276  -0.18929  -0.16784
 Alpha virt. eigenvalues --   -0.07906  -0.04898  -0.02170   0.01125   0.03433
 Alpha virt. eigenvalues --    0.04946   0.06162   0.06442   0.07396   0.07653
 Alpha virt. eigenvalues --    0.07717   0.08449   0.08785   0.09165   0.09336

 Mulliken charges:
               1
     1  C    0.000037
     2  C   -0.027691
     3  C   -0.175325
     4  C   -0.156512
     5  C   -0.178102
     6  C   -0.180457
     7  C    0.063989
     8  C    0.100774
     9  C   -0.225050
    10  C   -0.197559
    11  C    0.072857
    12  C    0.045361
    13  C   -0.292243
    14  C   -0.316211
    15  C   -0.275549
    16  C   -0.305778
    17  C   -0.105399
    18  C   -0.149773
    19  C   -0.379020
    20  C   -0.349645
    21  C   -0.136340
    22  C   -0.106987
    23  C    0.133653
    24  C    0.122358
    25  C   -0.387418
    26  C   -0.371144
    27  C   -0.122325
    28  C   -0.131812
    29  C   -0.050059
    30  C   -0.099512
    31  C   -0.117430
    32  C   -0.104111
    33  C    0.150212
    34  C    0.106584
    35  C   -0.374596
    36  C   -0.369580
    37  C   -0.136869
    38  C   -0.105116
    39  C   -0.086518
    40  C   -0.104060
    41  H    0.097913
    42  H    0.095393
    43  H    0.071239
    44  H    0.098547
    45  H    0.097445
    46  H    0.098669
    47  H    0.045550
    48  H    0.094483
    49  H    0.104081
    50  H    0.111593
    51  H    0.106433
    52  H    0.085433
    53  H    0.066118
    54  H    0.104795
    55  H    0.112028
    56  H    0.102114
    57  H    0.105440
    58  H    0.087822
    59  H    0.105462
    60  H    0.108272
    61  H    0.078639
    62  H    0.117907
    63  H    0.093807
    64  H    0.076118
    65  H    0.067330
    66  H    0.092292
    67  H    0.120607
    68  H    0.086243
    69  H    0.107912
    70  H    0.078973
    71  H    0.119088
    72  H    0.104031
    73  H    0.069699
    74  H    0.089655
    75  H    0.128162
    76  H    0.100228
    77  H    0.109881
    78  H    0.119668
    79  H    0.128365
    80  H    0.097353
    81  H    0.070158
    82  H    0.072943
    83  H    0.078052
    84  H    0.084941
    85  H    0.069158
    86  H    0.089400
    87  H    0.095232
    88  H    0.107806
    89  H    0.107126
    90  H    0.142308
    91  H    0.108027
    92  H    0.114552
    93  H    0.076728
    94  H    0.068951
    95  H    0.083671
    96  H    0.068527
 Sum of Mulliken charges =  -0.00000

 Dipole moment (field-independent basis, Debye):
    X=              0.5215    Y=             -0.4027    Z=              0.2521  Tot=              0.7055
 Quadrupole moment (field-independent basis, Debye-Ang):
   XX=           -227.2606   YY=           -234.5920   ZZ=           -253.9486
   XY=              3.4655   XZ=             -0.3743   YZ=              0.4696

 Normal termination of Gaussian 16 at Wed Jul 31 11:00:40 2019.
