 Gaussian 16, Revision A.03,
 Gaussian 16:  ES64L-G16RevA.03 25-Dec-2016

 ---------------------------------
 # td=(NStates=1) B3LYP/6-31G(d,p)
 ---------------------------------

 --
 TD
 --
 Symbolic Z-matrix:
 Charge =  0 Multiplicity = 1

                         Standard orientation:
 ---------------------------------------------------------------------
 Center     Atomic      Atomic             Coordinates (Angstroms)
 Number     Number       Type             X           Y           Z
 ---------------------------------------------------------------------
      1          6           0       12.149179    0.676004   -0.699800
      2          6           0      -12.089311    0.040413    0.746344
      3          6           0       13.410010   -0.143506   -0.754036
      4          6           0      -13.029117    1.126689    1.227531
      5          6           0       13.154495   -1.681219   -0.621882
      6          6           0      -13.328285    2.223111    0.023850
      7          6           0       11.088101    0.017076    0.225609
      8          6           0      -10.912715    0.500061   -0.133518
      9          6           0       12.537876   -2.008719    0.701739
     10          6           0      -12.012171    2.708312   -0.431521
     11          6           0       11.241918   -1.189500    0.856870
     12          6           0      -10.824311    1.768981   -0.655785
     13          6           0       11.589874    0.721549   -2.183275
     14          6           0       12.491306    2.143213   -0.387584
     15          6           0      -13.002850   -0.949870   -0.031823
     16          6           0      -11.652663   -0.688691    2.078535
     17          6           0        9.795716    0.875106    0.270855
     18          6           0       -9.905214   -0.547431   -0.320631
     19          6           0       10.271167   -1.746791    1.929817
     20          6           0       -9.886290    2.127698   -1.651125
     21          6           0        8.563720    0.481643    0.278775
     22          6           0       -8.625022   -0.387296   -0.107870
     23          6           0        7.397169    1.284897    0.413152
     24          6           0       -7.596638   -1.226438   -0.427946
     25          6           0        7.504802    2.823843    0.585952
     26          6           0       -7.903558   -2.592719   -1.095125
     27          6           0        6.118866    0.710563    0.184301
     28          6           0       -6.218598   -0.960919   -0.168777
     29          6           0        4.811682    1.301261    0.404753
     30          6           0       -4.992487   -1.693483   -0.433124
     31          6           0        3.722874    0.561841    0.213001
     32          6           0       -3.754321   -1.220249   -0.182497
     33          6           0        2.341773    1.102473    0.405753
     34          6           0       -2.531825   -1.922560   -0.250764
     35          6           0        2.112576    2.617177    0.687126
     36          6           0       -2.611716   -3.427433   -0.632668
     37          6           0        1.187672    0.343960    0.290157
     38          6           0       -1.370138   -1.267328   -0.063161
     39          6           0        1.124428   -1.048642   -0.032873
     40          6           0       -0.072687   -1.808083   -0.114963
     41          1           0       14.075551    0.441348    0.071586
     42          1           0       13.935722    0.027316   -1.594758
     43          1           0      -12.515426    1.638070    2.148980
     44          1           0      -13.921356    0.585356    1.700671
     45          1           0       14.013457   -2.031034   -0.754859
     46          1           0       12.502997   -2.036752   -1.517999
     47          1           0      -13.963794    3.023214    0.487358
     48          1           0      -13.947008    1.585111   -0.661641
     49          1           0       13.304827   -1.821172    1.478601
     50          1           0       12.091636   -3.002170    0.815637
     51          1           0      -11.766716    3.504628    0.292322
     52          1           0      -12.187777    3.191892   -1.423588
     53          1           0       11.249872   -0.400561   -2.444584
     54          1           0       12.533565    0.956669   -2.886049
     55          1           0       10.773654    1.310383   -2.352461
     56          1           0       12.603500    1.972501    0.753618
     57          1           0       11.660042    2.906518   -0.439599
     58          1           0       13.333736    2.326738   -0.886333
     59          1           0      -13.511703   -0.435278   -0.841602
     60          1           0      -14.005175   -1.517306    0.641714
     61          1           0      -12.514074   -1.830002   -0.085306
     62          1           0      -10.956114    0.230298    2.688082
     63          1           0      -10.924515   -1.568441    1.961176
     64          1           0      -12.494337   -1.029380    2.569009
     65          1           0        9.797632    1.891516    0.505283
     66          1           0      -10.196817   -1.642795   -0.562591
     67          1           0        9.328846   -1.240030    2.138490
     68          1           0       10.921524   -1.902049    2.893008
     69          1           0        9.978965   -2.843915    1.569717
     70          1           0       -9.185606    1.300919   -1.980969
     71          1           0       -9.129121    2.810150   -1.584809
     72          1           0      -10.487112    2.560870   -2.645665
     73          1           0        8.326588   -0.568774    0.046392
     74          1           0       -8.309941    0.549353    0.215967
     75          1           0        7.659766    3.194207    1.627920
     76          1           0        6.529101    3.297829    0.259899
     77          1           0        8.246464    3.074416   -0.274644
     78          1           0       -8.552032   -2.554133   -1.999506
     79          1           0       -8.614724   -3.176662   -0.324135
     80          1           0       -7.230643   -3.206986   -1.488228
     81          1           0        6.148594   -0.551321    0.085519
     82          1           0       -5.979705    0.028287    0.118226
     83          1           0        4.760257    2.325177    0.773067
     84          1           0       -5.071073   -2.660248   -0.788292
     85          1           0        3.963264   -0.430053   -0.304348
     86          1           0       -3.607658   -0.124664    0.258489
     87          1           0        2.694906    2.943396    1.562033
     88          1           0        0.940910    2.842392    0.864393
     89          1           0        2.466312    3.310600   -0.001173
     90          1           0       -3.080627   -3.862261   -1.501512
     91          1           0       -2.976701   -3.948046    0.170453
     92          1           0       -1.456777   -3.690060   -0.591467
     93          1           0        0.310580    1.073007    0.500542
     94          1           0       -1.402998   -0.217708    0.173740
     95          1           0        2.016190   -1.553052    0.079519
     96          1           0        0.049344   -2.927288   -0.375528
 ---------------------------------------------------------------------

 SCF Done:  E(RB3LYP) =  -1557.56942609     A.U. after   15 cycles

 Excitation energies and oscillator strengths:

 Excited State   1:      Singlet-A      2.1874 eV  566.81 nm  f=3.1100  <S**2>=0.000
     148 ->149         0.70579
     148 <-149        -0.10677
 This state for optimization and/or second-order correction.
 Total Energy, E(TD-HF/TD-DFT) =  -1557.48904088
 Copying the excited state density for this state as the 1-particle RhoCI density.

 The electronic state is 1-A.
 Alpha  occ. eigenvalues --  -10.20962 -10.20684 -10.20435 -10.20226 -10.20070
 Alpha  occ. eigenvalues --  -10.19938 -10.19937 -10.19810 -10.19716 -10.19685
 Alpha  occ. eigenvalues --  -10.19668 -10.19539 -10.19446 -10.19395 -10.19387
 Alpha  occ. eigenvalues --  -10.19327 -10.19239 -10.19213 -10.19144 -10.19083
 Alpha  occ. eigenvalues --  -10.18996 -10.18920 -10.18689 -10.18581 -10.18556
 Alpha  occ. eigenvalues --  -10.18485 -10.18423 -10.18404 -10.18300 -10.18246
 Alpha  occ. eigenvalues --  -10.18221 -10.18189 -10.18075 -10.17683 -10.17641
 Alpha  occ. eigenvalues --  -10.17566 -10.17498 -10.17277 -10.17197 -10.16880
 Alpha  occ. eigenvalues --   -0.85164  -0.84695  -0.83754  -0.82947  -0.82361
 Alpha  occ. eigenvalues --   -0.81608  -0.79232  -0.78913  -0.78517  -0.77727
 Alpha  occ. eigenvalues --   -0.76422  -0.75523  -0.74380  -0.72535  -0.72199
 Alpha  occ. eigenvalues --   -0.70122  -0.68788  -0.68266  -0.67907  -0.67502
 Alpha  occ. eigenvalues --   -0.67063  -0.66963  -0.66481  -0.66228  -0.65667
 Alpha  occ. eigenvalues --   -0.63324  -0.62079  -0.60349  -0.59707  -0.57406
 Alpha  occ. eigenvalues --   -0.56337  -0.56083  -0.54937  -0.54047  -0.53293
 Alpha  occ. eigenvalues --   -0.52900  -0.52188  -0.51182  -0.50575  -0.49092
 Alpha  occ. eigenvalues --   -0.48674  -0.47568  -0.47250  -0.46613  -0.46014
 Alpha  occ. eigenvalues --   -0.45712  -0.45230  -0.44706  -0.44604  -0.44024
 Alpha  occ. eigenvalues --   -0.43296  -0.43080  -0.42895  -0.42728  -0.42519
 Alpha  occ. eigenvalues --   -0.42021  -0.41776  -0.41523  -0.41137  -0.40944
 Alpha  occ. eigenvalues --   -0.40463  -0.40390  -0.40076  -0.39766  -0.39264
 Alpha  occ. eigenvalues --   -0.38885  -0.38802  -0.38468  -0.38425  -0.38238
 Alpha  occ. eigenvalues --   -0.37540  -0.37450  -0.37057  -0.36907  -0.36415
 Alpha  occ. eigenvalues --   -0.36168  -0.35887  -0.35827  -0.35367  -0.35305
 Alpha  occ. eigenvalues --   -0.35078  -0.34782  -0.34453  -0.34301  -0.34139
 Alpha  occ. eigenvalues --   -0.33329  -0.33129  -0.32955  -0.32789  -0.32425
 Alpha  occ. eigenvalues --   -0.32007  -0.31963  -0.31740  -0.31556  -0.31028
 Alpha  occ. eigenvalues --   -0.30756  -0.29808  -0.29247  -0.29062  -0.28487
 Alpha  occ. eigenvalues --   -0.28304  -0.28007  -0.26732  -0.23958  -0.23135
 Alpha  occ. eigenvalues --   -0.21504  -0.19219  -0.16542
 Alpha virt. eigenvalues --   -0.08422  -0.05258  -0.02171   0.00798   0.01998
 Alpha virt. eigenvalues --    0.03873   0.06132   0.06559   0.06602   0.07794
 Alpha virt. eigenvalues --    0.07877   0.08136   0.08647   0.08803   0.09051

 Mulliken charges:
               1
     1  C    0.004734
     2  C   -0.013748
     3  C   -0.179444
     4  C   -0.172560
     5  C   -0.165887
     6  C   -0.201438
     7  C    0.059727
     8  C    0.076251
     9  C   -0.202510
    10  C   -0.209559
    11  C    0.041281
    12  C    0.100207
    13  C   -0.276808
    14  C   -0.295235
    15  C   -0.267237
    16  C   -0.278506
    17  C   -0.138818
    18  C   -0.144047
    19  C   -0.349422
    20  C   -0.379621
    21  C   -0.059791
    22  C   -0.066278
    23  C    0.088930
    24  C    0.133361
    25  C   -0.378174
    26  C   -0.374503
    27  C   -0.140007
    28  C   -0.143188
    29  C   -0.053549
    30  C   -0.069196
    31  C   -0.109560
    32  C   -0.103890
    33  C    0.084843
    34  C    0.123938
    35  C   -0.375343
    36  C   -0.377986
    37  C   -0.099800
    38  C   -0.090252
    39  C   -0.106985
    40  C   -0.109647
    41  H    0.057062
    42  H    0.095041
    43  H    0.064923
    44  H    0.082272
    45  H    0.094595
    46  H    0.090959
    47  H    0.098151
    48  H    0.096783
    49  H    0.108606
    50  H    0.095808
    51  H    0.110550
    52  H    0.093521
    53  H    0.071099
    54  H    0.069636
    55  H    0.111674
    56  H    0.090272
    57  H    0.097840
    58  H    0.112819
    59  H    0.111735
    60  H    0.025658
    61  H    0.117531
    62  H    0.058404
    63  H    0.090035
    64  H    0.114123
    65  H    0.080120
    66  H    0.080952
    67  H    0.126955
    68  H    0.103576
    69  H    0.087967
    70  H    0.115071
    71  H    0.129738
    72  H    0.074475
    73  H    0.070373
    74  H    0.075087
    75  H    0.126434
    76  H    0.107348
    77  H    0.116253
    78  H    0.109976
    79  H    0.091107
    80  H    0.115203
    81  H    0.054767
    82  H    0.067155
    83  H    0.083956
    84  H    0.073927
    85  H    0.092122
    86  H    0.059984
    87  H    0.114964
    88  H    0.090851
    89  H    0.133484
    90  H    0.127071
    91  H    0.138546
    92  H    0.081460
    93  H    0.071751
    94  H    0.083653
    95  H    0.093568
    96  H    0.082727
 Sum of Mulliken charges =  -0.00000

 Dipole moment (field-independent basis, Debye):
    X=              1.2244    Y=              0.2653    Z=             -0.2068  Tot=              1.2698
 Quadrupole moment (field-independent basis, Debye-Ang):
   XX=           -230.8190   YY=           -233.7668   ZZ=           -256.6592
   XY=             -1.3139   XZ=              6.9441   YZ=              3.2422

 Normal termination of Gaussian 16 at Wed Jul 31 23:39:02 2019.
