 Gaussian 16, Revision A.03,
 Gaussian 16:  ES64L-G16RevA.03 25-Dec-2016

 ---------------------------------
 # td=(NStates=1) B3LYP/6-31G(d,p)
 ---------------------------------

 --
 TD
 --
 Symbolic Z-matrix:
 Charge =  0 Multiplicity = 1

                         Standard orientation:
 ---------------------------------------------------------------------
 Center     Atomic      Atomic             Coordinates (Angstroms)
 Number     Number       Type             X           Y           Z
 ---------------------------------------------------------------------
      1          6           0      -12.131686   -0.528610   -0.688426
      2          6           0       12.132279    0.009949    0.891750
      3          6           0      -13.572057    0.213026   -0.410000
      4          6           0       12.980722   -1.163325    1.260781
      5          6           0      -13.273736    1.687445   -0.460198
      6          6           0       13.405987   -2.054077    0.084101
      7          6           0      -11.086240   -0.005090    0.171810
      8          6           0       11.073250   -0.458933   -0.131018
      9          6           0      -12.424178    2.091127    0.704306
     10          6           0       12.144781   -2.562262   -0.553516
     11          6           0      -11.152305    1.158968    0.755080
     12          6           0       11.044113   -1.665211   -0.780738
     13          6           0      -11.738709   -0.534421   -2.256267
     14          6           0      -12.431365   -2.097576   -0.267839
     15          6           0       13.028337    1.049209    0.244103
     16          6           0       11.489573    0.539677    2.174996
     17          6           0       -9.935660   -0.834532    0.300408
     18          6           0        9.999961    0.597631   -0.264070
     19          6           0      -10.189530    1.723482    1.713033
     20          6           0       10.046253   -2.080979   -1.771181
     21          6           0       -8.622600   -0.531575    0.300788
     22          6           0        8.624693    0.360635   -0.212614
     23          6           0       -7.420828   -1.330340    0.414535
     24          6           0        7.576924    1.324057   -0.386466
     25          6           0       -7.606484   -2.759066    0.727678
     26          6           0        7.896196    2.764870   -0.624594
     27          6           0       -6.227363   -0.780781    0.348462
     28          6           0        6.229516    0.810664   -0.387749
     29          6           0       -4.889846   -1.274608    0.251938
     30          6           0        5.072576    1.557942   -0.551007
     31          6           0       -3.772585   -0.522352    0.213440
     32          6           0        3.811259    1.104278   -0.368612
     33          6           0       -2.370099   -1.152607    0.285012
     34          6           0        2.541894    1.877786   -0.425059
     35          6           0       -2.214973   -2.597455    0.562246
     36          6           0        2.610049    3.360963   -0.674074
     37          6           0       -1.259083   -0.453194    0.162803
     38          6           0        1.462338    1.211344   -0.087239
     39          6           0       -1.026908    0.937291    0.003284
     40          6           0        0.092189    1.654870   -0.156278
     41          1           0      -14.162863    0.021573    0.470727
     42          1           0      -14.242583   -0.058936   -1.294362
     43          1           0       12.429914   -2.072757    2.057871
     44          1           0       13.917799   -0.810248    1.726028
     45          1           0      -14.317261    2.230315   -0.446869
     46          1           0      -12.833229    2.150639   -1.474241
     47          1           0       13.946630   -3.126639    0.600491
     48          1           0       13.980221   -1.446481   -0.499629
     49          1           0      -13.044780    1.819991    1.519550
     50          1           0      -12.148132    3.151161    0.624889
     51          1           0       11.609967   -3.487053    0.074218
     52          1           0       12.395372   -3.158734   -1.440093
     53          1           0      -11.456929    0.611495   -2.514570
     54          1           0      -12.482896   -1.306553   -2.685217
     55          1           0      -10.630491   -0.944663   -2.313886
     56          1           0      -12.579228   -2.185782    0.743857
     57          1           0      -11.547416   -2.806951   -0.647430
     58          1           0      -13.379652   -2.651355   -0.730345
     59          1           0       13.574175    0.715212   -0.738158
     60          1           0       13.734426    1.232899    1.072065
     61          1           0       12.204047    1.890844   -0.163965
     62          1           0       10.775340   -0.200444    2.632469
     63          1           0       10.779967    1.419633    2.075971
     64          1           0       12.404661    0.746400    2.839415
     65          1           0       -9.984261   -1.988473    0.099332
     66          1           0       10.385211    1.657755   -0.391428
     67          1           0       -9.557543    0.656417    1.947105
     68          1           0      -10.727003    1.971396    2.691563
     69          1           0       -9.437352    2.327973    1.374561
     70          1           0        9.358647   -1.188126   -1.971757
     71          1           0        9.375065   -2.985190   -1.494176
     72          1           0       10.669233   -2.345020   -2.755422
     73          1           0       -8.380761    0.458057   -0.070903
     74          1           0        8.117183   -0.772666   -0.320867
     75          1           0       -8.372995   -3.025254    1.518582
     76          1           0       -6.627686   -3.266969    1.046352
     77          1           0       -7.966886   -3.380059   -0.069642
     78          1           0        8.523068    2.839152   -1.571164
     79          1           0        8.477999    3.232635    0.115602
     80          1           0        6.893900    3.423913   -0.760173
     81          1           0       -6.336417    0.280006    0.193591
     82          1           0        6.084263   -0.343894   -0.099068
     83          1           0       -4.807463   -2.353980    0.244123
     84          1           0        5.136368    2.761412   -0.567124
     85          1           0       -3.923627    0.498366   -0.088294
     86          1           0        3.602216    0.087966   -0.475801
     87          1           0       -2.689668   -3.011550    1.562428
     88          1           0       -1.241730   -2.697686    0.669906
     89          1           0       -2.514692   -3.122835   -0.467763
     90          1           0        3.015079    3.628140   -1.828074
     91          1           0        3.596226    3.810350    0.061245
     92          1           0        1.723389    3.867730   -0.610331
     93          1           0       -0.262629   -1.021527   -0.001131
     94          1           0        1.542570    0.110738   -0.031800
     95          1           0       -1.941821    1.467298   -0.008501
     96          1           0       -0.154871    2.801041   -0.111402
 ---------------------------------------------------------------------

 SCF Done:  E(RB3LYP) =  -1557.53361793     A.U. after   15 cycles

 Excitation energies and oscillator strengths:

 Excited State   1:      Singlet-A      2.3584 eV  525.72 nm  f=2.7272  <S**2>=0.000
     148 ->149         0.69894
 This state for optimization and/or second-order correction.
 Total Energy, E(TD-HF/TD-DFT) =  -1557.44694990
 Copying the excited state density for this state as the 1-particle RhoCI density.

 The electronic state is 1-A.
 Alpha  occ. eigenvalues --  -10.21058 -10.20917 -10.20656 -10.20291 -10.20281
 Alpha  occ. eigenvalues --  -10.20228 -10.20170 -10.19995 -10.19945 -10.19903
 Alpha  occ. eigenvalues --  -10.19752 -10.19646 -10.19529 -10.19425 -10.19371
 Alpha  occ. eigenvalues --  -10.19366 -10.19237 -10.19202 -10.19164 -10.19053
 Alpha  occ. eigenvalues --  -10.18792 -10.18673 -10.18624 -10.18619 -10.18588
 Alpha  occ. eigenvalues --  -10.18584 -10.18553 -10.18537 -10.18495 -10.18433
 Alpha  occ. eigenvalues --  -10.18404 -10.18350 -10.18285 -10.18279 -10.18230
 Alpha  occ. eigenvalues --  -10.18090 -10.18014 -10.17675 -10.17565 -10.17523
 Alpha  occ. eigenvalues --   -0.85881  -0.85814  -0.84171  -0.83588  -0.82741
 Alpha  occ. eigenvalues --   -0.81652  -0.79768  -0.79076  -0.78246  -0.77068
 Alpha  occ. eigenvalues --   -0.76974  -0.76105  -0.75065  -0.72247  -0.71636
 Alpha  occ. eigenvalues --   -0.69892  -0.69031  -0.68254  -0.67929  -0.67516
 Alpha  occ. eigenvalues --   -0.67492  -0.66542  -0.66491  -0.66284  -0.66041
 Alpha  occ. eigenvalues --   -0.62719  -0.62010  -0.59227  -0.58009  -0.56886
 Alpha  occ. eigenvalues --   -0.56762  -0.55609  -0.55110  -0.53921  -0.52849
 Alpha  occ. eigenvalues --   -0.52689  -0.51601  -0.50331  -0.49606  -0.48916
 Alpha  occ. eigenvalues --   -0.48368  -0.47740  -0.47469  -0.46964  -0.46708
 Alpha  occ. eigenvalues --   -0.45874  -0.44920  -0.44813  -0.44460  -0.44217
 Alpha  occ. eigenvalues --   -0.43625  -0.42954  -0.42565  -0.42195  -0.41827
 Alpha  occ. eigenvalues --   -0.41658  -0.41533  -0.41046  -0.40863  -0.40733
 Alpha  occ. eigenvalues --   -0.40410  -0.39977  -0.39887  -0.39693  -0.39561
 Alpha  occ. eigenvalues --   -0.39449  -0.39000  -0.38573  -0.38273  -0.37924
 Alpha  occ. eigenvalues --   -0.37758  -0.37469  -0.37094  -0.36884  -0.36689
 Alpha  occ. eigenvalues --   -0.35999  -0.35742  -0.35617  -0.35478  -0.35140
 Alpha  occ. eigenvalues --   -0.34547  -0.34474  -0.34074  -0.33883  -0.33816
 Alpha  occ. eigenvalues --   -0.33558  -0.33343  -0.33205  -0.32870  -0.32812
 Alpha  occ. eigenvalues --   -0.32579  -0.31974  -0.31648  -0.30993  -0.30715
 Alpha  occ. eigenvalues --   -0.30499  -0.30119  -0.29797  -0.28781  -0.28521
 Alpha  occ. eigenvalues --   -0.27667  -0.26940  -0.25642  -0.24517  -0.22846
 Alpha  occ. eigenvalues --   -0.21385  -0.19058  -0.17075
 Alpha virt. eigenvalues --   -0.07842  -0.05635  -0.02161   0.00858   0.02033
 Alpha virt. eigenvalues --    0.03956   0.04722   0.05765   0.05930   0.06577
 Alpha virt. eigenvalues --    0.06957   0.07296   0.07689   0.08226   0.08532

 Mulliken charges:
               1
     1  C   -0.026061
     2  C   -0.009426
     3  C   -0.170411
     4  C   -0.147616
     5  C   -0.186577
     6  C   -0.165556
     7  C    0.184280
     8  C    0.053989
     9  C   -0.196646
    10  C   -0.207726
    11  C    0.019466
    12  C    0.126509
    13  C   -0.297799
    14  C   -0.312857
    15  C   -0.269067
    16  C   -0.276283
    17  C   -0.146502
    18  C   -0.173835
    19  C   -0.364648
    20  C   -0.365072
    21  C   -0.126350
    22  C   -0.093803
    23  C    0.177562
    24  C    0.132997
    25  C   -0.404076
    26  C   -0.373267
    27  C   -0.137476
    28  C   -0.129730
    29  C   -0.066796
    30  C   -0.067957
    31  C   -0.106963
    32  C   -0.117333
    33  C    0.105206
    34  C    0.159756
    35  C   -0.353635
    36  C   -0.343521
    37  C   -0.126820
    38  C   -0.125322
    39  C   -0.068648
    40  C   -0.108175
    41  H    0.101763
    42  H    0.083184
    43  H    0.040870
    44  H    0.075898
    45  H    0.057798
    46  H    0.074063
    47  H    0.059679
    48  H    0.107294
    49  H    0.113256
    50  H    0.101318
    51  H    0.069812
    52  H    0.093262
    53  H    0.100648
    54  H    0.115425
    55  H    0.095540
    56  H    0.119664
    57  H    0.078234
    58  H    0.072288
    59  H    0.097854
    60  H    0.103446
    61  H    0.076287
    62  H    0.111342
    63  H    0.095423
    64  H    0.085416
    65  H    0.073186
    66  H    0.086491
    67  H    0.083607
    68  H    0.101028
    69  H    0.128802
    70  H    0.118207
    71  H    0.105226
    72  H    0.089939
    73  H    0.074453
    74  H    0.071265
    75  H    0.116513
    76  H    0.097555
    77  H    0.122712
    78  H    0.117799
    79  H    0.132073
    80  H    0.092514
    81  H    0.060438
    82  H    0.075874
    83  H    0.082789
    84  H    0.062105
    85  H    0.089922
    86  H    0.077571
    87  H    0.109875
    88  H    0.124079
    89  H    0.102328
    90  H    0.092280
    91  H    0.081876
    92  H    0.121949
    93  H    0.064205
    94  H    0.076367
    95  H    0.071169
    96  H    0.072227
 Sum of Mulliken charges =  -0.00000

 Dipole moment (field-independent basis, Debye):
    X=              0.1931    Y=             -0.0862    Z=             -0.5693  Tot=              0.6073
 Quadrupole moment (field-independent basis, Debye-Ang):
   XX=           -228.3849   YY=           -238.3057   ZZ=           -258.8240
   XY=              4.2524   XZ=             -5.4789   YZ=             -0.9021

 Normal termination of Gaussian 16 at Wed Jul 31 18:51:27 2019.
