 Gaussian 16, Revision A.03,
 Gaussian 16:  ES64L-G16RevA.03 25-Dec-2016

 ---------------------------------
 # td=(NStates=1) B3LYP/6-31G(d,p)
 ---------------------------------

 --
 TD
 --
 Symbolic Z-matrix:
 Charge =  0 Multiplicity = 1

                         Standard orientation:
 ---------------------------------------------------------------------
 Center     Atomic      Atomic             Coordinates (Angstroms)
 Number     Number       Type             X           Y           Z
 ---------------------------------------------------------------------
      1          6           0      -12.051516    0.435375    0.901607
      2          6           0       12.106670    0.007413   -0.746040
      3          6           0      -13.383287   -0.175051    0.863267
      4          6           0       13.077447    1.103912   -1.171726
      5          6           0      -13.175163   -1.730542    0.768882
      6          6           0       13.451658    2.022879    0.055831
      7          6           0      -11.018571   -0.002536   -0.199425
      8          6           0       10.893819    0.473491    0.059872
      9          6           0      -12.390051   -2.010175   -0.471189
     10          6           0       12.132086    2.681379    0.645590
     11          6           0      -11.261482   -1.199870   -0.783706
     12          6           0       10.932637    1.711065    0.806311
     13          6           0      -11.387332    0.509513    2.341257
     14          6           0      -12.524151    1.921257    0.556316
     15          6           0       12.863789   -1.019325    0.049450
     16          6           0       11.594984   -0.724186   -2.089448
     17          6           0       -9.920590    0.841975   -0.425156
     18          6           0        9.909399   -0.516911    0.216580
     19          6           0      -10.275821   -1.764600   -1.892316
     20          6           0        9.902031    2.136686    1.727186
     21          6           0       -8.506457    0.519732   -0.432094
     22          6           0        8.534654   -0.372135    0.105444
     23          6           0       -7.349384    1.260599   -0.644318
     24          6           0        7.459975   -1.263872    0.443036
     25          6           0       -7.561171    2.881206   -0.863303
     26          6           0        7.889249   -2.639827    0.829146
     27          6           0       -6.118570    0.794999   -0.447029
     28          6           0        6.256321   -1.041552    0.245649
     29          6           0       -4.805390    1.437659   -0.528132
     30          6           0        5.051109   -1.732158    0.448021
     31          6           0       -3.690201    0.751833   -0.381548
     32          6           0        3.793029   -1.214277    0.191639
     33          6           0       -2.343548    1.287531   -0.381857
     34          6           0        2.542701   -1.932928    0.231135
     35          6           0       -2.311154    2.782828   -0.548027
     36          6           0        2.544398   -3.431279    0.580302
     37          6           0       -1.226051    0.469822   -0.270692
     38          6           0        1.416958   -1.174354   -0.006041
     39          6           0       -1.162921   -0.892210   -0.082847
     40          6           0        0.060503   -1.590624    0.014840
     41          1           0      -13.706213    0.038324   -0.048922
     42          1           0      -13.877994    0.107163    1.931680
     43          1           0       12.529782    1.529380   -1.821139
     44          1           0       13.829639    0.563118   -1.756434
     45          1           0      -14.099602   -2.348661    0.568175
     46          1           0      -12.647680   -1.941590    1.642353
     47          1           0       14.186102    2.731990   -0.404669
     48          1           0       13.834425    1.266323    0.901176
     49          1           0      -13.102913   -2.091747   -1.436480
     50          1           0      -11.934617   -3.013752   -0.392065
     51          1           0       11.837903    3.588969   -0.063387
     52          1           0       12.115940    3.161522    1.713999
     53          1           0      -11.459741   -0.496702    2.575344
     54          1           0      -12.132425    0.957749    3.068568
     55          1           0      -10.669213    1.063822    2.392888
     56          1           0      -12.732373    2.312984   -0.480476
     57          1           0      -11.774365    2.603279    0.802943
     58          1           0      -13.309985    2.278840    1.211599
     59          1           0       13.401300   -0.497449    1.001281
     60          1           0       13.841813   -1.489938   -0.570086
     61          1           0       12.288715   -1.811155    0.388866
     62          1           0       11.222337    0.209572   -2.647598
     63          1           0       10.832839   -1.500677   -1.926823
     64          1           0       12.691240   -1.195526   -2.481286
     65          1           0       -9.999920    2.138844   -0.626154
     66          1           0       10.197449   -1.569677    0.621896
     67          1           0       -9.602259   -1.203076   -2.465086
     68          1           0      -10.970044   -2.239082   -2.846820
     69          1           0       -9.797175   -2.899603   -1.708418
     70          1           0        9.239059    1.343257    2.135288
     71          1           0        9.088774    2.684235    1.245150
     72          1           0       10.217390    2.875020    2.518769
     73          1           0       -8.416190   -0.546593   -0.271518
     74          1           0        8.183012    0.696210   -0.326292
     75          1           0       -8.343741    3.166391   -1.610220
     76          1           0       -6.496437    3.348769   -1.399096
     77          1           0       -7.898692    3.495179    0.212962
     78          1           0        8.621870   -2.725301    1.781964
     79          1           0        8.385778   -3.027902    0.022899
     80          1           0        6.815624   -3.325257    1.279767
     81          1           0       -6.021995   -0.325192   -0.262116
     82          1           0        6.062316    0.025440    0.152437
     83          1           0       -4.771386    2.481322   -0.881304
     84          1           0        5.129764   -2.802785    0.764110
     85          1           0       -3.879090   -0.139654    0.297503
     86          1           0        3.589616   -0.090268   -0.236075
     87          1           0       -2.738036    3.185882   -1.636484
     88          1           0       -1.349250    3.064302   -0.591391
     89          1           0       -2.729565    3.484691    0.200102
     90          1           0        3.192712   -3.467359    1.471518
     91          1           0        2.935763   -4.061498   -0.280040
     92          1           0        1.517589   -3.845262    0.843256
     93          1           0       -0.326408    1.000672   -0.569838
     94          1           0        1.444744   -0.162234   -0.399835
     95          1           0       -2.025103   -1.533036    0.005708
     96          1           0       -0.124735   -2.668724    0.089042
 ---------------------------------------------------------------------

 SCF Done:  E(RB3LYP) =  -1557.44186680     A.U. after   16 cycles

 Excitation energies and oscillator strengths:

 Excited State   1:      Singlet-A      2.1287 eV  582.43 nm  f=3.0555  <S**2>=0.000
     148 ->149         0.70459
     148 <-149        -0.10172
 This state for optimization and/or second-order correction.
 Total Energy, E(TD-HF/TD-DFT) =  -1557.36363725
 Copying the excited state density for this state as the 1-particle RhoCI density.

 The electronic state is 1-A.
 Alpha  occ. eigenvalues --  -10.22080 -10.20972 -10.20964 -10.20934 -10.20657
 Alpha  occ. eigenvalues --  -10.20651 -10.20458 -10.20454 -10.20355 -10.20294
 Alpha  occ. eigenvalues --  -10.20190 -10.20027 -10.19966 -10.19811 -10.19791
 Alpha  occ. eigenvalues --  -10.19564 -10.19476 -10.19310 -10.19270 -10.19262
 Alpha  occ. eigenvalues --  -10.19257 -10.19186 -10.19169 -10.19040 -10.19021
 Alpha  occ. eigenvalues --  -10.18962 -10.18954 -10.18817 -10.18768 -10.18714
 Alpha  occ. eigenvalues --  -10.18494 -10.18392 -10.18260 -10.18015 -10.17491
 Alpha  occ. eigenvalues --  -10.17474 -10.16984 -10.16302 -10.15862 -10.15611
 Alpha  occ. eigenvalues --   -0.86101  -0.85259  -0.84400  -0.83775  -0.82631
 Alpha  occ. eigenvalues --   -0.81512  -0.79184  -0.78950  -0.78679  -0.77643
 Alpha  occ. eigenvalues --   -0.77139  -0.75400  -0.74217  -0.72093  -0.71211
 Alpha  occ. eigenvalues --   -0.70619  -0.69532  -0.68540  -0.68199  -0.67456
 Alpha  occ. eigenvalues --   -0.67067  -0.66743  -0.66584  -0.65880  -0.65749
 Alpha  occ. eigenvalues --   -0.63372  -0.62551  -0.60716  -0.59760  -0.57235
 Alpha  occ. eigenvalues --   -0.56665  -0.55492  -0.55132  -0.53933  -0.52853
 Alpha  occ. eigenvalues --   -0.52471  -0.52096  -0.51070  -0.49625  -0.49085
 Alpha  occ. eigenvalues --   -0.48625  -0.48021  -0.47229  -0.46862  -0.45994
 Alpha  occ. eigenvalues --   -0.45844  -0.45627  -0.44832  -0.44679  -0.44406
 Alpha  occ. eigenvalues --   -0.43990  -0.42992  -0.42869  -0.42628  -0.42236
 Alpha  occ. eigenvalues --   -0.42162  -0.41950  -0.41891  -0.41151  -0.40522
 Alpha  occ. eigenvalues --   -0.40190  -0.39919  -0.39675  -0.39358  -0.39078
 Alpha  occ. eigenvalues --   -0.38724  -0.38622  -0.38601  -0.38299  -0.38062
 Alpha  occ. eigenvalues --   -0.37462  -0.37011  -0.36815  -0.36709  -0.36391
 Alpha  occ. eigenvalues --   -0.36006  -0.35737  -0.35708  -0.35314  -0.35061
 Alpha  occ. eigenvalues --   -0.34718  -0.34467  -0.34440  -0.34001  -0.33587
 Alpha  occ. eigenvalues --   -0.33499  -0.33372  -0.33092  -0.33043  -0.32757
 Alpha  occ. eigenvalues --   -0.32245  -0.31659  -0.31583  -0.31333  -0.30845
 Alpha  occ. eigenvalues --   -0.30578  -0.30150  -0.29995  -0.29318  -0.28512
 Alpha  occ. eigenvalues --   -0.28343  -0.27399  -0.26177  -0.24220  -0.22919
 Alpha  occ. eigenvalues --   -0.20840  -0.19168  -0.16793
 Alpha virt. eigenvalues --   -0.08794  -0.05481  -0.02860  -0.00328   0.01396
 Alpha virt. eigenvalues --    0.02997   0.04926   0.05313   0.05972   0.06321
 Alpha virt. eigenvalues --    0.06940   0.07183   0.08189   0.08560   0.08799

 Mulliken charges:
               1
     1  C   -0.038726
     2  C   -0.045807
     3  C   -0.148355
     4  C   -0.141680
     5  C   -0.192205
     6  C   -0.190723
     7  C    0.086325
     8  C    0.063868
     9  C   -0.242174
    10  C   -0.212726
    11  C    0.114169
    12  C    0.098967
    13  C   -0.269089
    14  C   -0.319099
    15  C   -0.257263
    16  C   -0.283078
    17  C   -0.142774
    18  C   -0.143827
    19  C   -0.354277
    20  C   -0.385571
    21  C   -0.110008
    22  C   -0.116650
    23  C    0.132790
    24  C    0.171073
    25  C   -0.344872
    26  C   -0.362355
    27  C   -0.131119
    28  C   -0.108405
    29  C   -0.051608
    30  C   -0.104068
    31  C   -0.115492
    32  C   -0.100224
    33  C    0.086871
    34  C    0.126056
    35  C   -0.367642
    36  C   -0.369673
    37  C   -0.106385
    38  C   -0.108033
    39  C   -0.075378
    40  C   -0.113235
    41  H    0.111947
    42  H    0.080967
    43  H    0.097400
    44  H    0.086317
    45  H    0.085793
    46  H    0.102108
    47  H    0.099627
    48  H    0.094035
    49  H    0.091189
    50  H    0.109752
    51  H    0.094367
    52  H    0.089026
    53  H    0.106307
    54  H    0.079116
    55  H    0.113233
    56  H    0.091500
    57  H    0.092181
    58  H    0.093746
    59  H    0.070150
    60  H    0.057782
    61  H    0.107897
    62  H    0.096716
    63  H    0.112716
    64  H    0.067057
    65  H    0.054099
    66  H    0.081688
    67  H    0.140235
    68  H    0.054360
    69  H    0.084949
    70  H    0.125139
    71  H    0.125925
    72  H    0.099610
    73  H    0.078212
    74  H    0.058768
    75  H    0.120909
    76  H    0.073886
    77  H    0.091792
    78  H    0.098132
    79  H    0.139295
    80  H    0.054215
    81  H    0.072635
    82  H    0.066143
    83  H    0.081292
    84  H    0.077959
    85  H    0.082517
    86  H    0.072351
    87  H    0.087997
    88  H    0.110044
    89  H    0.127450
    90  H    0.126038
    91  H    0.126867
    92  H    0.110970
    93  H    0.079744
    94  H    0.079610
    95  H    0.091366
    96  H    0.067274
 Sum of Mulliken charges =  -0.00000

 Dipole moment (field-independent basis, Debye):
    X=              0.1941    Y=              0.0315    Z=              0.4344  Tot=              0.4768
 Quadrupole moment (field-independent basis, Debye-Ang):
   XX=           -244.1753   YY=           -236.0597   ZZ=           -255.1738
   XY=              8.1617   XZ=             -1.6172   YZ=             -2.0790

 Normal termination of Gaussian 16 at Mon Jul 29 11:20:40 2019.
