 Gaussian 16, Revision A.03,
 Gaussian 16:  ES64L-G16RevA.03 25-Dec-2016

 ---------------------------------
 # td=(NStates=1) B3LYP/6-31G(d,p)
 ---------------------------------

 --
 TD
 --
 Symbolic Z-matrix:
 Charge =  0 Multiplicity = 1

                         Standard orientation:
 ---------------------------------------------------------------------
 Center     Atomic      Atomic             Coordinates (Angstroms)
 Number     Number       Type             X           Y           Z
 ---------------------------------------------------------------------
      1          6           0       12.105183    0.514074   -0.735376
      2          6           0      -12.003736   -0.063829    0.934633
      3          6           0       13.330894   -0.359109   -0.557912
      4          6           0      -12.892828    1.140430    1.455333
      5          6           0       13.029845   -1.923943   -0.423214
      6          6           0      -13.195980    2.022216    0.377702
      7          6           0       11.034421   -0.015552    0.299424
      8          6           0      -10.923509    0.420184   -0.026107
      9          6           0       12.216015   -2.085053    0.909783
     10          6           0      -11.978794    2.703507   -0.311713
     11          6           0       11.089789   -1.139628    0.991776
     12          6           0      -10.992742    1.609102   -0.582357
     13          6           0       11.602500    0.480834   -2.190521
     14          6           0       12.484615    1.930689   -0.223187
     15          6           0      -12.885505   -1.134089    0.203378
     16          6           0      -11.316213   -0.683726    2.141198
     17          6           0        9.879341    0.905051    0.455097
     18          6           0       -9.899882   -0.538846   -0.367433
     19          6           0       10.102611   -1.586001    2.057433
     20          6           0      -10.083479    2.102602   -1.697182
     21          6           0        8.538609    0.579724    0.307664
     22          6           0       -8.518319   -0.334331   -0.357605
     23          6           0        7.340822    1.391085    0.350619
     24          6           0       -7.432728   -1.311494   -0.580727
     25          6           0        7.543716    2.875061    0.499018
     26          6           0       -7.838695   -2.704148   -0.987659
     27          6           0        6.083152    0.741896    0.229075
     28          6           0       -6.144989   -0.878967   -0.565508
     29          6           0        4.811280    1.457613    0.335183
     30          6           0       -4.951763   -1.603626   -0.545100
     31          6           0        3.598475    0.744023    0.149455
     32          6           0       -3.729544   -0.983379   -0.258841
     33          6           0        2.306353    1.315739    0.044873
     34          6           0       -2.580863   -1.803404   -0.295543
     35          6           0        2.155757    2.873165    0.233354
     36          6           0       -2.655306   -3.299442   -0.514647
     37          6           0        1.137237    0.481070   -0.105152
     38          6           0       -1.319718   -1.129001   -0.260461
     39          6           0        1.132370   -0.944562   -0.227334
     40          6           0        0.063454   -1.796124   -0.356870
     41          1           0       13.817337   -0.177099    0.280239
     42          1           0       14.078911   -0.290228   -1.380752
     43          1           0      -12.382076    1.696044    2.276093
     44          1           0      -13.669190    0.736539    2.076265
     45          1           0       14.052108   -2.569566   -0.379392
     46          1           0       12.361164   -2.297360   -1.266601
     47          1           0      -14.035964    2.799278    0.837700
     48          1           0      -13.888612    1.397084   -0.166019
     49          1           0       12.713811   -2.055595    1.773307
     50          1           0       11.682868   -3.033280    1.010051
     51          1           0      -11.539195    3.426780    0.303445
     52          1           0      -12.544190    2.964866   -1.234372
     53          1           0       11.249940   -0.495036   -2.500243
     54          1           0       12.309469    0.892749   -2.746404
     55          1           0       10.665825    1.026665   -2.282446
     56          1           0       13.038494    1.816368    0.734770
     57          1           0       11.566975    2.671212   -0.338107
     58          1           0       13.188964    2.374540   -1.103415
     59          1           0      -13.497864   -0.489186   -0.578205
     60          1           0      -13.553294   -1.661957    1.022670
     61          1           0      -12.260633   -2.054238    0.074781
     62          1           0      -10.592423    0.072940    2.524632
     63          1           0      -10.832166   -1.791501    1.971841
     64          1           0      -12.008580   -0.947085    2.818649
     65          1           0       10.175183    1.824617    0.837757
     66          1           0      -10.215534   -1.555780   -0.542613
     67          1           0        9.391580   -0.896177    2.287409
     68          1           0       10.541376   -1.933211    2.784483
     69          1           0        9.675389   -2.502523    1.673198
     70          1           0       -9.482455    1.127678   -1.922152
     71          1           0       -9.340865    2.677255   -1.249736
     72          1           0      -10.663758    2.381044   -2.501807
     73          1           0        8.461775   -0.599696    0.085876
     74          1           0       -8.092580    0.857880   -0.369785
     75          1           0        7.647439    3.057264    1.694384
     76          1           0        6.630914    3.440840    0.257759
     77          1           0        8.184221    3.360663   -0.116064
     78          1           0       -8.230744   -2.814386   -2.016606
     79          1           0       -8.669656   -3.135256   -0.329677
     80          1           0       -7.010134   -3.596504   -0.757466
     81          1           0        6.165020   -0.359870    0.043528
     82          1           0       -6.233280    0.113986   -0.386221
     83          1           0        4.883124    2.493401    0.326454
     84          1           0       -4.968749   -2.718356   -0.708921
     85          1           0        3.888260   -0.270461    0.534775
     86          1           0       -3.799021   -0.073931   -0.116560
     87          1           0        2.962960    3.117189    0.900749
     88          1           0        1.241916    3.251670    0.447957
     89          1           0        2.514451    3.360417   -0.727755
     90          1           0       -3.355205   -3.658221   -1.369249
     91          1           0       -3.235956   -3.630479    0.281354
     92          1           0       -1.722323   -3.798925   -0.484754
     93          1           0        0.367117    1.041958   -0.387603
     94          1           0       -1.254252   -0.017130   -0.031262
     95          1           0        2.260769   -1.525325   -0.133436
     96          1           0       -0.089734   -2.851439   -0.559814
 ---------------------------------------------------------------------

 SCF Done:  E(RB3LYP) =  -1557.51858978     A.U. after   16 cycles

 Excitation energies and oscillator strengths:

 Excited State   1:      Singlet-A      2.0017 eV  619.40 nm  f=2.6724  <S**2>=0.000
     148 ->149         0.70569
     148 <-149        -0.11543
 This state for optimization and/or second-order correction.
 Total Energy, E(TD-HF/TD-DFT) =  -1557.44502907
 Copying the excited state density for this state as the 1-particle RhoCI density.

 The electronic state is 1-A.
 Alpha  occ. eigenvalues --  -10.21125 -10.20815 -10.20746 -10.20415 -10.20234
 Alpha  occ. eigenvalues --  -10.19988 -10.19790 -10.19779 -10.19778 -10.19671
 Alpha  occ. eigenvalues --  -10.19638 -10.19609 -10.19579 -10.19458 -10.19338
 Alpha  occ. eigenvalues --  -10.19253 -10.19155 -10.19121 -10.18990 -10.18645
 Alpha  occ. eigenvalues --  -10.18566 -10.18517 -10.18469 -10.18355 -10.18209
 Alpha  occ. eigenvalues --  -10.17973 -10.17966 -10.17856 -10.17537 -10.17430
 Alpha  occ. eigenvalues --  -10.17275 -10.17241 -10.17109 -10.16792 -10.16780
 Alpha  occ. eigenvalues --  -10.16703 -10.16681 -10.15934 -10.15718 -10.14752
 Alpha  occ. eigenvalues --   -0.85528  -0.84984  -0.83355  -0.82490  -0.81406
 Alpha  occ. eigenvalues --   -0.80826  -0.79542  -0.78535  -0.78283  -0.77678
 Alpha  occ. eigenvalues --   -0.76366  -0.74752  -0.73874  -0.72325  -0.71705
 Alpha  occ. eigenvalues --   -0.69903  -0.69087  -0.69000  -0.68885  -0.67993
 Alpha  occ. eigenvalues --   -0.67841  -0.67379  -0.66977  -0.66829  -0.66017
 Alpha  occ. eigenvalues --   -0.62896  -0.61588  -0.59406  -0.58545  -0.57206
 Alpha  occ. eigenvalues --   -0.56575  -0.55926  -0.55407  -0.55023  -0.54032
 Alpha  occ. eigenvalues --   -0.52848  -0.51561  -0.50881  -0.49680  -0.49027
 Alpha  occ. eigenvalues --   -0.48728  -0.47289  -0.47169  -0.46641  -0.46510
 Alpha  occ. eigenvalues --   -0.45560  -0.45082  -0.44683  -0.44310  -0.43950
 Alpha  occ. eigenvalues --   -0.43516  -0.43400  -0.43018  -0.42806  -0.42656
 Alpha  occ. eigenvalues --   -0.42607  -0.42335  -0.41841  -0.41620  -0.41412
 Alpha  occ. eigenvalues --   -0.41072  -0.40759  -0.40396  -0.40159  -0.39890
 Alpha  occ. eigenvalues --   -0.39655  -0.39017  -0.38953  -0.38757  -0.38660
 Alpha  occ. eigenvalues --   -0.38133  -0.37354  -0.37276  -0.37174  -0.36686
 Alpha  occ. eigenvalues --   -0.36152  -0.36001  -0.35585  -0.35366  -0.34951
 Alpha  occ. eigenvalues --   -0.34925  -0.34450  -0.34156  -0.33956  -0.33799
 Alpha  occ. eigenvalues --   -0.33607  -0.33105  -0.32767  -0.32751  -0.32461
 Alpha  occ. eigenvalues --   -0.32280  -0.31919  -0.31664  -0.31047  -0.30526
 Alpha  occ. eigenvalues --   -0.30140  -0.29697  -0.29535  -0.28304  -0.28029
 Alpha  occ. eigenvalues --   -0.27277  -0.26553  -0.25543  -0.24042  -0.22819
 Alpha  occ. eigenvalues --   -0.21364  -0.18475  -0.15852
 Alpha virt. eigenvalues --   -0.08474  -0.05433  -0.01395   0.00958   0.03421
 Alpha virt. eigenvalues --    0.04684   0.05593   0.06069   0.07226   0.07482
 Alpha virt. eigenvalues --    0.07652   0.07891   0.08111   0.08431   0.09194

 Mulliken charges:
               1
     1  C    0.005804
     2  C   -0.029886
     3  C   -0.162560
     4  C   -0.163532
     5  C   -0.197224
     6  C   -0.194564
     7  C    0.034320
     8  C    0.155435
     9  C   -0.219920
    10  C   -0.197344
    11  C    0.052714
    12  C   -0.009247
    13  C   -0.298623
    14  C   -0.297132
    15  C   -0.293602
    16  C   -0.288221
    17  C   -0.146158
    18  C   -0.161589
    19  C   -0.337646
    20  C   -0.352084
    21  C   -0.107228
    22  C   -0.099361
    23  C    0.108643
    24  C    0.128343
    25  C   -0.366360
    26  C   -0.377179
    27  C   -0.124472
    28  C   -0.097286
    29  C   -0.102632
    30  C   -0.090462
    31  C   -0.101732
    32  C   -0.034388
    33  C    0.056338
    34  C    0.095781
    35  C   -0.364850
    36  C   -0.380647
    37  C   -0.097660
    38  C   -0.132206
    39  C   -0.081195
    40  C   -0.087787
    41  H    0.101813
    42  H    0.079179
    43  H    0.075970
    44  H    0.091212
    45  H    0.067598
    46  H    0.096059
    47  H    0.042870
    48  H    0.099785
    49  H    0.116642
    50  H    0.086132
    51  H    0.124133
    52  H    0.112943
    53  H    0.106483
    54  H    0.110265
    55  H    0.102578
    56  H    0.111759
    57  H    0.096168
    58  H    0.070106
    59  H    0.100997
    60  H    0.076559
    61  H    0.108734
    62  H    0.105097
    63  H    0.061295
    64  H    0.103796
    65  H    0.095187
    66  H    0.084145
    67  H    0.120101
    68  H    0.111184
    69  H    0.103964
    70  H    0.097419
    71  H    0.120741
    72  H    0.111770
    73  H    0.066165
    74  H    0.055442
    75  H    0.107858
    76  H    0.104046
    77  H    0.131988
    78  H    0.130623
    79  H    0.104318
    80  H    0.077109
    81  H    0.084701
    82  H    0.059308
    83  H    0.080031
    84  H    0.069927
    85  H    0.099909
    86  H    0.051323
    87  H    0.128368
    88  H    0.123095
    89  H    0.114170
    90  H    0.114696
    91  H    0.139400
    92  H    0.110369
    93  H    0.084602
    94  H    0.077239
    95  H    0.059660
    96  H    0.090367
 Sum of Mulliken charges =  -0.00000

 Dipole moment (field-independent basis, Debye):
    X=              1.3532    Y=              0.3960    Z=              0.6807  Tot=              1.5656
 Quadrupole moment (field-independent basis, Debye-Ang):
   XX=           -224.2191   YY=           -232.0491   ZZ=           -254.7318
   XY=              2.9503   XZ=              4.3445   YZ=             -0.2651

 Normal termination of Gaussian 16 at Wed Jul 31 03:12:25 2019.
