 Gaussian 16, Revision A.03,
 Gaussian 16:  ES64L-G16RevA.03 25-Dec-2016

 ---------------------------------
 # td=(NStates=1) B3LYP/6-31G(d,p)
 ---------------------------------

 --
 TD
 --
 Symbolic Z-matrix:
 Charge =  0 Multiplicity = 1

                         Standard orientation:
 ---------------------------------------------------------------------
 Center     Atomic      Atomic             Coordinates (Angstroms)
 Number     Number       Type             X           Y           Z
 ---------------------------------------------------------------------
      1          6           0      -12.133249   -0.551748   -0.599081
      2          6           0       12.075115   -0.062888    0.919992
      3          6           0      -13.467400    0.289632   -0.528673
      4          6           0       12.997048   -1.266889    1.371435
      5          6           0      -13.154974    1.729750   -0.637935
      6          6           0       13.338619   -2.043417    0.118908
      7          6           0      -10.978958   -0.002121    0.250515
      8          6           0       11.003367   -0.398583   -0.082503
      9          6           0      -12.287798    2.150938    0.517054
     10          6           0       12.151344   -2.576261   -0.617463
     11          6           0      -11.170113    1.115656    0.780625
     12          6           0       11.110958   -1.594952   -0.765690
     13          6           0      -11.669336   -0.629219   -2.093849
     14          6           0      -12.518834   -2.052294   -0.146804
     15          6           0       12.921622    1.048853    0.259255
     16          6           0       11.544616    0.509998    2.216023
     17          6           0       -9.853904   -0.898545    0.421222
     18          6           0        9.930042    0.520891   -0.232100
     19          6           0      -10.232604    1.685276    1.861323
     20          6           0        9.990648   -2.044149   -1.858600
     21          6           0       -8.556665   -0.427732    0.291800
     22          6           0        8.600085    0.298324   -0.350279
     23          6           0       -7.374088   -1.275275    0.458014
     24          6           0        7.432753    1.341103   -0.399702
     25          6           0       -7.600572   -2.756708    0.700386
     26          6           0        7.992087    2.729647   -0.611362
     27          6           0       -6.103205   -0.782904    0.251671
     28          6           0        6.206033    0.969629   -0.500906
     29          6           0       -4.856358   -1.480198    0.317884
     30          6           0        5.034834    1.713455   -0.504120
     31          6           0       -3.752226   -0.737682    0.092871
     32          6           0        3.737910    1.232766   -0.488993
     33          6           0       -2.399527   -1.275728    0.146586
     34          6           0        2.583221    1.914662   -0.313544
     35          6           0       -2.197311   -2.767069    0.471994
     36          6           0        2.526560    3.372862   -0.474026
     37          6           0       -1.273461   -0.463772    0.210741
     38          6           0        1.379488    1.184401   -0.374492
     39          6           0       -1.188837    0.925293   -0.046959
     40          6           0        0.017134    1.631424   -0.205525
     41          1           0      -13.989867    0.029989    0.345296
     42          1           0      -14.111643   -0.096854   -1.302099
     43          1           0       12.509395   -1.841525    2.293342
     44          1           0       13.775003   -0.945406    1.978272
     45          1           0      -14.118115    2.367466   -0.558688
     46          1           0      -12.675430    1.827323   -1.654717
     47          1           0       13.933851   -2.968793    0.347142
     48          1           0       13.911203   -1.392208   -0.737238
     49          1           0      -12.823887    2.328268    1.432745
     50          1           0      -11.833298    3.259020    0.118130
     51          1           0       11.814642   -3.326482    0.148137
     52          1           0       12.469361   -2.893695   -1.694154
     53          1           0      -11.113940    0.463080   -2.399140
     54          1           0      -12.349765   -1.188485   -2.742690
     55          1           0      -10.690467   -1.283883   -2.183339
     56          1           0      -12.847133   -1.881295    0.966597
     57          1           0      -11.623365   -2.838983   -0.228496
     58          1           0      -13.416565   -2.198192   -0.706711
     59          1           0       13.356184    0.936979   -0.735759
     60          1           0       13.757611    1.327842    0.928942
     61          1           0       12.411950    1.936154    0.236524
     62          1           0       10.676138   -0.067422    2.571822
     63          1           0       11.061307    1.627632    1.967130
     64          1           0       12.484054    0.662053    2.951084
     65          1           0      -10.169435   -2.042834    0.782236
     66          1           0       10.064606    1.654148   -0.058626
     67          1           0       -9.493995    0.950220    2.227999
     68          1           0      -10.686457    2.324576    2.623410
     69          1           0       -9.499016    2.331021    1.662518
     70          1           0        9.371739   -1.285936   -2.328689
     71          1           0        9.494774   -2.848949   -1.226075
     72          1           0       10.451417   -2.412714   -2.667751
     73          1           0       -8.411024    0.682802   -0.145801
     74          1           0        8.280263   -0.824606   -0.366738
     75          1           0       -8.065558   -2.874208    1.659979
     76          1           0       -6.556335   -3.020314    0.663592
     77          1           0       -8.402925   -3.046094   -0.033362
     78          1           0        8.470755    2.848641   -1.642118
     79          1           0        8.737343    2.907704    0.158492
     80          1           0        7.127572    3.283488   -0.534679
     81          1           0       -6.051761    0.118976   -0.329718
     82          1           0        5.957311   -0.146791   -0.463094
     83          1           0       -4.846828   -2.594329    0.678538
     84          1           0        5.258479    2.870137   -0.364849
     85          1           0       -3.785560    0.379625   -0.165251
     86          1           0        3.730041    0.153024   -0.344440
     87          1           0       -2.596614   -3.042605    1.508016
     88          1           0       -1.226766   -3.096010    0.470538
     89          1           0       -2.623590   -3.456897   -0.316420
     90          1           0        2.915197    3.546472   -1.571578
     91          1           0        3.009372    3.906351    0.311968
     92          1           0        1.532951    3.933804   -0.467505
     93          1           0       -0.308330   -1.187757    0.101861
     94          1           0        1.379280    0.183394    0.031142
     95          1           0       -2.130574    1.539663   -0.101232
     96          1           0       -0.317935    2.764845   -0.048650
 ---------------------------------------------------------------------

 SCF Done:  E(RB3LYP) =  -1557.56429278     A.U. after   16 cycles

 Excitation energies and oscillator strengths:

 Excited State   1:      Singlet-A      2.0862 eV  594.30 nm  f=3.1172  <S**2>=0.000
     148 ->149         0.70810
     148 <-149        -0.12452
 This state for optimization and/or second-order correction.
 Total Energy, E(TD-HF/TD-DFT) =  -1557.48762530
 Copying the excited state density for this state as the 1-particle RhoCI density.

 The electronic state is 1-A.
 Alpha  occ. eigenvalues --  -10.20251 -10.20185 -10.20150 -10.20037 -10.19982
 Alpha  occ. eigenvalues --  -10.19972 -10.19935 -10.19836 -10.19724 -10.19719
 Alpha  occ. eigenvalues --  -10.19719 -10.19698 -10.19588 -10.19580 -10.19447
 Alpha  occ. eigenvalues --  -10.19369 -10.19261 -10.19244 -10.19178 -10.19037
 Alpha  occ. eigenvalues --  -10.19035 -10.18871 -10.18846 -10.18803 -10.18741
 Alpha  occ. eigenvalues --  -10.18685 -10.18442 -10.18430 -10.18340 -10.18311
 Alpha  occ. eigenvalues --  -10.18179 -10.18041 -10.17964 -10.17960 -10.17870
 Alpha  occ. eigenvalues --  -10.17195 -10.16916 -10.16665 -10.16136 -10.15430
 Alpha  occ. eigenvalues --   -0.85650  -0.85486  -0.84313  -0.83319  -0.82414
 Alpha  occ. eigenvalues --   -0.81422  -0.79195  -0.78815  -0.78112  -0.77484
 Alpha  occ. eigenvalues --   -0.76867  -0.75447  -0.74379  -0.72106  -0.71668
 Alpha  occ. eigenvalues --   -0.69949  -0.69252  -0.68704  -0.68513  -0.68078
 Alpha  occ. eigenvalues --   -0.67944  -0.66619  -0.66534  -0.66227  -0.66090
 Alpha  occ. eigenvalues --   -0.63135  -0.61814  -0.60042  -0.58508  -0.56637
 Alpha  occ. eigenvalues --   -0.56310  -0.55496  -0.55121  -0.53936  -0.52964
 Alpha  occ. eigenvalues --   -0.52375  -0.51475  -0.49433  -0.49355  -0.48431
 Alpha  occ. eigenvalues --   -0.48385  -0.47591  -0.47361  -0.46802  -0.46060
 Alpha  occ. eigenvalues --   -0.45447  -0.45079  -0.44716  -0.44586  -0.44206
 Alpha  occ. eigenvalues --   -0.43111  -0.42800  -0.42475  -0.42313  -0.42023
 Alpha  occ. eigenvalues --   -0.41708  -0.41314  -0.41189  -0.41126  -0.41084
 Alpha  occ. eigenvalues --   -0.40878  -0.40519  -0.40115  -0.40054  -0.39914
 Alpha  occ. eigenvalues --   -0.39511  -0.39330  -0.39198  -0.38431  -0.37945
 Alpha  occ. eigenvalues --   -0.37771  -0.37523  -0.37166  -0.36727  -0.36626
 Alpha  occ. eigenvalues --   -0.36384  -0.36335  -0.35683  -0.35424  -0.34831
 Alpha  occ. eigenvalues --   -0.34674  -0.34558  -0.34072  -0.33903  -0.33844
 Alpha  occ. eigenvalues --   -0.33605  -0.33501  -0.32956  -0.32498  -0.32137
 Alpha  occ. eigenvalues --   -0.31981  -0.31586  -0.31009  -0.30722  -0.30542
 Alpha  occ. eigenvalues --   -0.29932  -0.29661  -0.29402  -0.28760  -0.28438
 Alpha  occ. eigenvalues --   -0.28033  -0.27360  -0.26782  -0.24731  -0.23288
 Alpha  occ. eigenvalues --   -0.20986  -0.19301  -0.16355
 Alpha virt. eigenvalues --   -0.08824  -0.05172  -0.01817   0.00388   0.03228
 Alpha virt. eigenvalues --    0.04720   0.05713   0.06508   0.06590   0.06846
 Alpha virt. eigenvalues --    0.06921   0.07217   0.07618   0.08250   0.08669

 Mulliken charges:
               1
     1  C   -0.033854
     2  C   -0.016830
     3  C   -0.165917
     4  C   -0.163754
     5  C   -0.184059
     6  C   -0.184216
     7  C    0.117752
     8  C    0.117985
     9  C   -0.199090
    10  C   -0.202812
    11  C    0.061022
    12  C    0.019922
    13  C   -0.287991
    14  C   -0.306327
    15  C   -0.294122
    16  C   -0.284561
    17  C   -0.133293
    18  C   -0.128916
    19  C   -0.380701
    20  C   -0.348319
    21  C   -0.100207
    22  C   -0.095009
    23  C    0.074788
    24  C    0.071781
    25  C   -0.349311
    26  C   -0.355656
    27  C   -0.121222
    28  C   -0.083263
    29  C   -0.080046
    30  C   -0.088382
    31  C   -0.106566
    32  C   -0.110839
    33  C    0.086888
    34  C    0.128181
    35  C   -0.367516
    36  C   -0.369248
    37  C   -0.110589
    38  C   -0.134919
    39  C   -0.100931
    40  C   -0.090727
    41  H    0.090643
    42  H    0.086987
    43  H    0.070088
    44  H    0.104233
    45  H    0.073181
    46  H    0.100821
    47  H    0.081904
    48  H    0.078697
    49  H    0.113751
    50  H    0.071011
    51  H    0.110112
    52  H    0.097069
    53  H    0.076605
    54  H    0.102169
    55  H    0.084626
    56  H    0.091467
    57  H    0.089770
    58  H    0.108296
    59  H    0.101298
    60  H    0.083965
    61  H    0.109181
    62  H    0.114465
    63  H    0.058362
    64  H    0.082888
    65  H    0.083385
    66  H    0.063918
    67  H    0.103703
    68  H    0.090013
    69  H    0.118903
    70  H    0.119875
    71  H    0.110659
    72  H    0.105629
    73  H    0.085498
    74  H    0.066066
    75  H    0.124846
    76  H    0.098399
    77  H    0.123075
    78  H    0.125487
    79  H    0.122537
    80  H    0.106540
    81  H    0.082317
    82  H    0.067923
    83  H    0.102234
    84  H    0.068886
    85  H    0.084168
    86  H    0.078303
    87  H    0.113414
    88  H    0.113228
    89  H    0.105663
    90  H    0.113691
    91  H    0.124966
    92  H    0.107458
    93  H    0.068880
    94  H    0.088598
    95  H    0.088884
    96  H    0.062135
 Sum of Mulliken charges =  -0.00000

 Dipole moment (field-independent basis, Debye):
    X=              1.1443    Y=             -0.3414    Z=              0.2927  Tot=              1.2295
 Quadrupole moment (field-independent basis, Debye-Ang):
   XX=           -220.0129   YY=           -237.1511   ZZ=           -255.1891
   XY=             -2.5697   XZ=              0.7638   YZ=             -0.8255

 Normal termination of Gaussian 16 at Tue Jul 23 11:36:00 2019.
