 Gaussian 16, Revision A.03,
 Gaussian 16:  ES64L-G16RevA.03 25-Dec-2016

 ---------------------------------
 # td=(NStates=1) B3LYP/6-31G(d,p)
 ---------------------------------

 --
 TD
 --
 Symbolic Z-matrix:
 Charge =  0 Multiplicity = 1

                         Standard orientation:
 ---------------------------------------------------------------------
 Center     Atomic      Atomic             Coordinates (Angstroms)
 Number     Number       Type             X           Y           Z
 ---------------------------------------------------------------------
      1          6           0      -12.079088   -0.574881   -0.716222
      2          6           0       12.075298    0.081714    0.931939
      3          6           0      -13.434714    0.288564   -0.691879
      4          6           0       13.012489   -1.147139    1.271267
      5          6           0      -13.138041    1.739605   -0.546500
      6          6           0       13.346936   -2.014426   -0.002926
      7          6           0      -10.976493    0.033535    0.162627
      8          6           0       10.963857   -0.394758   -0.153088
      9          6           0      -12.389253    2.071243    0.619815
     10          6           0       12.111027   -2.631826   -0.669105
     11          6           0      -11.206420    1.197455    0.836206
     12          6           0       10.996986   -1.656000   -0.784857
     13          6           0      -11.477071   -0.472599   -2.161575
     14          6           0      -12.531910   -1.989016   -0.351699
     15          6           0       13.002820    1.060748    0.023895
     16          6           0       11.543671    0.695152    2.094557
     17          6           0       -9.906230   -0.846083    0.320347
     18          6           0        9.785377    0.474423   -0.218590
     19          6           0      -10.243074    1.715979    1.895575
     20          6           0        9.764125   -2.027404   -1.652200
     21          6           0       -8.605433   -0.477772    0.254798
     22          6           0        8.426576    0.286511   -0.206181
     23          6           0       -7.324830   -1.278318    0.288347
     24          6           0        7.465537    1.217506   -0.360671
     25          6           0       -7.601473   -2.783410    0.677980
     26          6           0        7.982662    2.729378   -0.633445
     27          6           0       -6.072158   -0.827269    0.221340
     28          6           0        6.119338    0.770628   -0.282702
     29          6           0       -4.801561   -1.523085    0.471188
     30          6           0        4.999391    1.610072   -0.397454
     31          6           0       -3.648449   -0.809387    0.352761
     32          6           0        3.693412    1.132657   -0.198269
     33          6           0       -2.314453   -1.201749    0.448267
     34          6           0        2.603670    1.803775   -0.323750
     35          6           0       -2.163375   -2.732697    0.760507
     36          6           0        2.730639    3.383927   -0.661680
     37          6           0       -1.252515   -0.490069    0.083886
     38          6           0        1.394324    1.102953   -0.292587
     39          6           0       -1.069730    0.966665   -0.096519
     40          6           0       -0.016566    1.683463   -0.212011
     41          1           0      -13.822018    0.025772    0.211805
     42          1           0      -14.012886   -0.079731   -1.465074
     43          1           0       12.326684   -1.658602    1.961075
     44          1           0       13.848640   -0.593743    1.772329
     45          1           0      -14.141886    2.257145   -0.730935
     46          1           0      -12.489341    2.143341   -1.419559
     47          1           0       14.013355   -2.825801    0.397554
     48          1           0       14.103391   -1.283669   -0.401122
     49          1           0      -13.022152    1.880560    1.523112
     50          1           0      -11.801229    3.078818    0.592500
     51          1           0       11.887505   -3.596602   -0.089307
     52          1           0       12.145538   -3.088149   -1.775245
     53          1           0      -11.248155    0.667121   -2.489317
     54          1           0      -12.206248   -0.954637   -2.881903
     55          1           0      -10.539038   -0.895914   -2.477588
     56          1           0      -12.762102   -1.725169    0.728771
     57          1           0      -11.538222   -2.625034   -0.554187
     58          1           0      -13.466426   -2.432020   -0.897665
     59          1           0       13.403778    0.625345   -0.919092
     60          1           0       13.780526    1.490969    0.564947
     61          1           0       12.275273    1.870175   -0.198327
     62          1           0       10.913740    0.050737    2.623685
     63          1           0       10.935006    1.575862    2.110587
     64          1           0       12.472025    0.894768    2.804805
     65          1           0      -10.216300   -1.860510    0.278224
     66          1           0       10.026209    1.673858   -0.551840
     67          1           0       -9.482943    1.074871    2.176175
     68          1           0      -10.821976    1.772902    2.750427
     69          1           0       -9.751578    2.696809    1.609796
     70          1           0        9.072285   -1.301335   -1.897835
     71          1           0        9.357133   -2.906600   -1.378633
     72          1           0       10.257510   -2.460674   -2.778986
     73          1           0       -8.255663    0.485496    0.096974
     74          1           0        8.080499   -0.645737   -0.041152
     75          1           0       -7.907464   -2.744252    1.763351
     76          1           0       -6.547442   -3.436517    0.466743
     77          1           0       -8.442934   -3.297551    0.069198
     78          1           0        8.560492    2.736788   -1.650179
     79          1           0        8.630650    3.074920    0.203692
     80          1           0        7.090904    3.446756   -0.968212
     81          1           0       -6.136520    0.089262    0.059991
     82          1           0        5.747058   -0.203699    0.102224
     83          1           0       -4.812927   -2.692416    0.813937
     84          1           0        5.228283    2.670951   -0.763746
     85          1           0       -4.060497    0.280171    0.108274
     86          1           0        3.594710    0.131270    0.083696
     87          1           0       -2.682045   -2.961244    1.622957
     88          1           0       -1.030435   -2.781793    0.926785
     89          1           0       -2.165391   -3.408968   -0.447853
     90          1           0        3.034778    3.574366   -1.781068
     91          1           0        3.070199    4.019649    0.215829
     92          1           0        1.734232    3.938116   -0.870528
     93          1           0       -0.165762   -0.928086    0.391939
     94          1           0        1.506525   -0.088816   -0.089383
     95          1           0       -2.015866    1.437126    0.061413
     96          1           0       -0.143264    2.804969   -0.182408
 ---------------------------------------------------------------------

 SCF Done:  E(RB3LYP) =  -1557.45559985     A.U. after   16 cycles

 Excitation energies and oscillator strengths:

 Excited State   1:      Singlet-A      2.1477 eV  577.29 nm  f=2.8046  <S**2>=0.000
     148 ->149         0.67738
     148 ->150        -0.18681
     148 <-149        -0.11162
 This state for optimization and/or second-order correction.
 Total Energy, E(TD-HF/TD-DFT) =  -1557.37667392
 Copying the excited state density for this state as the 1-particle RhoCI density.

 The electronic state is 1-A.
 Alpha  occ. eigenvalues --  -10.20963 -10.20774 -10.20729 -10.20714 -10.20663
 Alpha  occ. eigenvalues --  -10.20628 -10.20310 -10.20019 -10.19900 -10.19883
 Alpha  occ. eigenvalues --  -10.19853 -10.19852 -10.19718 -10.19697 -10.19689
 Alpha  occ. eigenvalues --  -10.19658 -10.19528 -10.19329 -10.19324 -10.19323
 Alpha  occ. eigenvalues --  -10.19292 -10.19237 -10.19017 -10.18914 -10.18911
 Alpha  occ. eigenvalues --  -10.18489 -10.18227 -10.18158 -10.18096 -10.18013
 Alpha  occ. eigenvalues --  -10.17930 -10.17754 -10.17682 -10.17266 -10.17136
 Alpha  occ. eigenvalues --  -10.16876 -10.16859 -10.16768 -10.16544 -10.16518
 Alpha  occ. eigenvalues --   -0.86200  -0.84278  -0.83892  -0.83469  -0.82168
 Alpha  occ. eigenvalues --   -0.81760  -0.79862  -0.79014  -0.78586  -0.78361
 Alpha  occ. eigenvalues --   -0.76508  -0.74950  -0.74224  -0.72320  -0.70506
 Alpha  occ. eigenvalues --   -0.68840  -0.68550  -0.68377  -0.67998  -0.67793
 Alpha  occ. eigenvalues --   -0.67427  -0.67219  -0.66995  -0.66647  -0.65869
 Alpha  occ. eigenvalues --   -0.62917  -0.62440  -0.60069  -0.59424  -0.57322
 Alpha  occ. eigenvalues --   -0.56302  -0.55460  -0.54979  -0.53596  -0.53201
 Alpha  occ. eigenvalues --   -0.52337  -0.51624  -0.50209  -0.49884  -0.49410
 Alpha  occ. eigenvalues --   -0.48449  -0.47901  -0.47475  -0.46898  -0.46483
 Alpha  occ. eigenvalues --   -0.45942  -0.45167  -0.44535  -0.44371  -0.43953
 Alpha  occ. eigenvalues --   -0.43234  -0.42888  -0.42678  -0.42440  -0.42221
 Alpha  occ. eigenvalues --   -0.42104  -0.41871  -0.41751  -0.41556  -0.41321
 Alpha  occ. eigenvalues --   -0.40580  -0.40367  -0.39928  -0.39534  -0.39421
 Alpha  occ. eigenvalues --   -0.38822  -0.38615  -0.38439  -0.37849  -0.37737
 Alpha  occ. eigenvalues --   -0.37466  -0.37017  -0.36843  -0.36352  -0.36165
 Alpha  occ. eigenvalues --   -0.36026  -0.35881  -0.35645  -0.35477  -0.35397
 Alpha  occ. eigenvalues --   -0.35310  -0.35075  -0.34196  -0.34123  -0.33709
 Alpha  occ. eigenvalues --   -0.33479  -0.32983  -0.32740  -0.32458  -0.31989
 Alpha  occ. eigenvalues --   -0.31912  -0.31847  -0.31183  -0.31034  -0.30409
 Alpha  occ. eigenvalues --   -0.30146  -0.30115  -0.29430  -0.29053  -0.28629
 Alpha  occ. eigenvalues --   -0.27797  -0.27181  -0.26516  -0.24642  -0.22332
 Alpha  occ. eigenvalues --   -0.21265  -0.18739  -0.16173
 Alpha virt. eigenvalues --   -0.08389  -0.05698  -0.01512   0.00020   0.02590
 Alpha virt. eigenvalues --    0.03869   0.05725   0.06557   0.06685   0.06791
 Alpha virt. eigenvalues --    0.06984   0.07317   0.07558   0.08522   0.08713

 Mulliken charges:
               1
     1  C   -0.050039
     2  C    0.013823
     3  C   -0.157174
     4  C   -0.182999
     5  C   -0.173149
     6  C   -0.189336
     7  C    0.103679
     8  C    0.043174
     9  C   -0.199256
    10  C   -0.217505
    11  C    0.023931
    12  C    0.081815
    13  C   -0.295067
    14  C   -0.289579
    15  C   -0.314376
    16  C   -0.303276
    17  C   -0.115490
    18  C   -0.150876
    19  C   -0.353570
    20  C   -0.343969
    21  C   -0.080268
    22  C   -0.054957
    23  C    0.068559
    24  C    0.104307
    25  C   -0.354103
    26  C   -0.375423
    27  C   -0.079402
    28  C   -0.136322
    29  C   -0.068246
    30  C   -0.072575
    31  C   -0.080696
    32  C   -0.116462
    33  C    0.071732
    34  C    0.171411
    35  C   -0.327199
    36  C   -0.380894
    37  C   -0.109512
    38  C   -0.169861
    39  C   -0.067522
    40  C   -0.093837
    41  H    0.092596
    42  H    0.098382
    43  H    0.087486
    44  H    0.089573
    45  H    0.078628
    46  H    0.083305
    47  H    0.089570
    48  H    0.105820
    49  H    0.101541
    50  H    0.099566
    51  H    0.109967
    52  H    0.090561
    53  H    0.077654
    54  H    0.078210
    55  H    0.111786
    56  H    0.105352
    57  H    0.089015
    58  H    0.099548
    59  H    0.107521
    60  H    0.095631
    61  H    0.095360
    62  H    0.114606
    63  H    0.109924
    64  H    0.073556
    65  H    0.080844
    66  H    0.051407
    67  H    0.121785
    68  H    0.115697
    69  H    0.098730
    70  H    0.136316
    71  H    0.128648
    72  H    0.034246
    73  H    0.067451
    74  H    0.075025
    75  H    0.121168
    76  H    0.070991
    77  H    0.100071
    78  H    0.119819
    79  H    0.137365
    80  H    0.093899
    81  H    0.042828
    82  H    0.082155
    83  H    0.081517
    84  H    0.079527
    85  H    0.072281
    86  H    0.071536
    87  H    0.131815
    88  H    0.102390
    89  H    0.080830
    90  H    0.121096
    91  H    0.127346
    92  H    0.090865
    93  H    0.054788
    94  H    0.073947
    95  H    0.079195
    96  H    0.089778
 Sum of Mulliken charges =  -0.00000

 Dipole moment (field-independent basis, Debye):
    X=             -1.0850    Y=              0.5462    Z=              1.0213  Tot=              1.5870
 Quadrupole moment (field-independent basis, Debye-Ang):
   XX=           -221.3948   YY=           -238.6144   ZZ=           -255.2399
   XY=             -2.7559   XZ=              0.4124   YZ=             -1.5269

 Normal termination of Gaussian 16 at Fri Jul 26 12:23:30 2019.
