 Gaussian 16, Revision A.03,
 Gaussian 16:  ES64L-G16RevA.03 25-Dec-2016

 ---------------------------------
 # td=(NStates=1) B3LYP/6-31G(d,p)
 ---------------------------------

 --
 TD
 --
 Symbolic Z-matrix:
 Charge =  0 Multiplicity = 1

                         Standard orientation:
 ---------------------------------------------------------------------
 Center     Atomic      Atomic             Coordinates (Angstroms)
 Number     Number       Type             X           Y           Z
 ---------------------------------------------------------------------
      1          6           0      -12.130267   -0.601508   -0.712105
      2          6           0       12.114379   -0.016565    0.838527
      3          6           0      -13.509697    0.203106   -0.555873
      4          6           0       13.114629   -1.053018    1.255251
      5          6           0      -13.109528    1.693537   -0.431563
      6          6           0       13.378205   -2.028313    0.132614
      7          6           0      -11.093227   -0.005652    0.220267
      8          6           0       10.899962   -0.514063   -0.047350
      9          6           0      -12.408481    2.020398    0.807467
     10          6           0       12.097669   -2.711281   -0.368933
     11          6           0      -11.288068    1.063672    0.986347
     12          6           0       10.959979   -1.780965   -0.652259
     13          6           0      -11.536888   -0.497370   -2.142934
     14          6           0      -12.582671   -2.082038   -0.434459
     15          6           0       12.889245    1.132999    0.051921
     16          6           0       11.559015    0.701805    2.094097
     17          6           0       -9.885400   -0.764096    0.366893
     18          6           0        9.844948    0.422225   -0.167192
     19          6           0      -10.093850    1.668033    1.944442
     20          6           0        9.965049   -2.316124   -1.547545
     21          6           0       -8.575365   -0.435493    0.339404
     22          6           0        8.446555    0.213075   -0.297520
     23          6           0       -7.405367   -1.301795    0.362922
     24          6           0        7.504527    1.272056   -0.322832
     25          6           0       -7.585175   -2.738874    0.779907
     26          6           0        7.906162    2.719691   -0.561599
     27          6           0       -6.061089   -0.766408    0.248788
     28          6           0        6.132368    0.939496   -0.298126
     29          6           0       -4.795796   -1.401611    0.204189
     30          6           0        5.083479    1.783649   -0.395308
     31          6           0       -3.654945   -0.701993    0.180926
     32          6           0        3.769472    1.259784   -0.414506
     33          6           0       -2.289164   -1.282407    0.238048
     34          6           0        2.552622    2.031231   -0.446381
     35          6           0       -2.189364   -2.652784    0.503980
     36          6           0        2.505461    3.407371   -0.750872
     37          6           0       -1.169148   -0.467655    0.046069
     38          6           0        1.372978    1.247178   -0.351971
     39          6           0       -1.085572    1.004613   -0.242917
     40          6           0        0.047737    1.674596   -0.432029
     41          1           0      -14.078572   -0.154853    0.296177
     42          1           0      -14.031223    0.131625   -1.362024
     43          1           0       12.660729   -1.585455    2.131155
     44          1           0       14.051771   -0.551443    1.598267
     45          1           0      -14.203925    2.334407   -0.631312
     46          1           0      -12.716274    2.130377   -1.378740
     47          1           0       14.344445   -2.725763    0.303176
     48          1           0       13.898004   -1.363494   -0.757384
     49          1           0      -13.044603    1.927880    1.581270
     50          1           0      -12.115954    3.084282    0.870766
     51          1           0       12.018796   -3.397440    0.262561
     52          1           0       12.559180   -3.097655   -1.413310
     53          1           0      -11.464844    0.614686   -2.472720
     54          1           0      -12.226488   -0.974289   -3.009526
     55          1           0      -10.484931   -1.038207   -1.912366
     56          1           0      -12.945897   -2.044578    0.507920
     57          1           0      -11.699232   -3.002742   -0.453364
     58          1           0      -13.398409   -2.339246   -1.138495
     59          1           0       13.248677    0.754838   -1.006978
     60          1           0       13.717273    1.422536    0.709689
     61          1           0       12.181035    1.946284   -0.146439
     62          1           0       10.882946    0.068429    2.638470
     63          1           0       11.155614    1.598297    1.820515
     64          1           0       12.484681    0.842666    2.579084
     65          1           0      -10.024511   -1.906847    0.320970
     66          1           0       10.242917    1.559257   -0.258413
     67          1           0       -9.248960    0.847008    2.167104
     68          1           0      -10.678284    1.877610    2.830405
     69          1           0       -9.457097    2.591387    1.552287
     70          1           0        9.455006   -1.475985   -2.164658
     71          1           0        9.227268   -3.082764   -1.216874
     72          1           0       10.420338   -2.789275   -2.320872
     73          1           0       -8.422848    0.591298    0.166846
     74          1           0        8.013381   -0.840985   -0.193905
     75          1           0       -8.277621   -2.774675    1.723870
     76          1           0       -6.461795   -3.232697    1.109113
     77          1           0       -8.077575   -3.335404    0.013548
     78          1           0        8.396999    2.964398   -1.580687
     79          1           0        8.802126    2.978723    0.086776
     80          1           0        7.096033    3.301795   -0.161078
     81          1           0       -5.920761    0.268988    0.242542
     82          1           0        5.823606   -0.173280   -0.218405
     83          1           0       -4.859521   -2.528725    0.232273
     84          1           0        5.176902    2.860489   -0.495238
     85          1           0       -3.683750    0.332831    0.087829
     86          1           0        3.625769    0.104485   -0.416298
     87          1           0       -2.522917   -2.894941    1.537172
     88          1           0       -1.266538   -3.221405    0.502578
     89          1           0       -2.998544   -3.343316   -0.105841
     90          1           0        3.172683    3.492316   -1.520831
     91          1           0        2.868870    4.050756    0.002646
     92          1           0        1.498643    3.836936   -0.962175
     93          1           0       -0.254036   -1.030749    0.311517
     94          1           0        1.572807    0.210222   -0.080246
     95          1           0       -1.958932    1.464073   -0.386133
     96          1           0       -0.244743    2.686332   -0.588919
 ---------------------------------------------------------------------

 SCF Done:  E(RB3LYP) =  -1557.59517847     A.U. after   16 cycles

 Excitation energies and oscillator strengths:

 Excited State   1:      Singlet-A      1.9696 eV  629.49 nm  f=3.0883  <S**2>=0.000
     148 ->149         0.70020
     148 ->150        -0.10215
     148 <-149        -0.12326
 This state for optimization and/or second-order correction.
 Total Energy, E(TD-HF/TD-DFT) =  -1557.52279653
 Copying the excited state density for this state as the 1-particle RhoCI density.

 The electronic state is 1-A.
 Alpha  occ. eigenvalues --  -10.20796 -10.20206 -10.20184 -10.20002 -10.19979
 Alpha  occ. eigenvalues --  -10.19891 -10.19855 -10.19823 -10.19574 -10.19480
 Alpha  occ. eigenvalues --  -10.19427 -10.19417 -10.19397 -10.19358 -10.19270
 Alpha  occ. eigenvalues --  -10.19181 -10.19175 -10.19165 -10.19049 -10.18848
 Alpha  occ. eigenvalues --  -10.18844 -10.18831 -10.18692 -10.18668 -10.18645
 Alpha  occ. eigenvalues --  -10.18441 -10.18408 -10.18375 -10.18250 -10.18230
 Alpha  occ. eigenvalues --  -10.18091 -10.18006 -10.17990 -10.17735 -10.17642
 Alpha  occ. eigenvalues --  -10.17299 -10.17114 -10.16868 -10.16847 -10.15350
 Alpha  occ. eigenvalues --   -0.85612  -0.84833  -0.84158  -0.83334  -0.82205
 Alpha  occ. eigenvalues --   -0.81216  -0.79522  -0.79217  -0.78376  -0.77868
 Alpha  occ. eigenvalues --   -0.77450  -0.75537  -0.75285  -0.72078  -0.71143
 Alpha  occ. eigenvalues --   -0.70853  -0.68610  -0.68457  -0.68032  -0.67925
 Alpha  occ. eigenvalues --   -0.67495  -0.67177  -0.66995  -0.66417  -0.65928
 Alpha  occ. eigenvalues --   -0.62726  -0.61753  -0.59314  -0.58740  -0.56882
 Alpha  occ. eigenvalues --   -0.56663  -0.55724  -0.55330  -0.54152  -0.53518
 Alpha  occ. eigenvalues --   -0.52841  -0.52098  -0.50700  -0.49857  -0.49519
 Alpha  occ. eigenvalues --   -0.48715  -0.47884  -0.47548  -0.47299  -0.46407
 Alpha  occ. eigenvalues --   -0.45880  -0.45002  -0.44598  -0.44313  -0.43887
 Alpha  occ. eigenvalues --   -0.43593  -0.43152  -0.42791  -0.42634  -0.42403
 Alpha  occ. eigenvalues --   -0.42261  -0.41933  -0.41827  -0.41314  -0.41067
 Alpha  occ. eigenvalues --   -0.40992  -0.40817  -0.40306  -0.40066  -0.39543
 Alpha  occ. eigenvalues --   -0.39402  -0.39106  -0.38804  -0.38707  -0.38273
 Alpha  occ. eigenvalues --   -0.37882  -0.37493  -0.37182  -0.36993  -0.36785
 Alpha  occ. eigenvalues --   -0.36410  -0.36214  -0.35729  -0.35443  -0.35362
 Alpha  occ. eigenvalues --   -0.34838  -0.34322  -0.34310  -0.34271  -0.33996
 Alpha  occ. eigenvalues --   -0.33631  -0.33428  -0.33058  -0.32923  -0.32497
 Alpha  occ. eigenvalues --   -0.32160  -0.32024  -0.31918  -0.31604  -0.31333
 Alpha  occ. eigenvalues --   -0.30672  -0.29950  -0.29401  -0.28933  -0.28513
 Alpha  occ. eigenvalues --   -0.27969  -0.26713  -0.26182  -0.24295  -0.23027
 Alpha  occ. eigenvalues --   -0.21080  -0.18229  -0.15811
 Alpha virt. eigenvalues --   -0.08716  -0.05941  -0.02162   0.00522   0.02362
 Alpha virt. eigenvalues --    0.04055   0.06002   0.06398   0.07039   0.07365
 Alpha virt. eigenvalues --    0.07574   0.07688   0.08343   0.08666   0.08850

 Mulliken charges:
               1
     1  C   -0.028094
     2  C   -0.033944
     3  C   -0.156576
     4  C   -0.162184
     5  C   -0.200985
     6  C   -0.193709
     7  C    0.119856
     8  C    0.114328
     9  C   -0.191577
    10  C   -0.194549
    11  C    0.020567
    12  C    0.063334
    13  C   -0.274467
    14  C   -0.283885
    15  C   -0.291933
    16  C   -0.280182
    17  C   -0.153142
    18  C   -0.158143
    19  C   -0.353046
    20  C   -0.374873
    21  C   -0.081726
    22  C   -0.101136
    23  C    0.094098
    24  C    0.108613
    25  C   -0.363838
    26  C   -0.370521
    27  C   -0.121106
    28  C   -0.106759
    29  C   -0.047701
    30  C   -0.075009
    31  C   -0.113658
    32  C   -0.143079
    33  C    0.157456
    34  C    0.145270
    35  C   -0.402548
    36  C   -0.389731
    37  C   -0.144166
    38  C   -0.120905
    39  C   -0.084185
    40  C   -0.071606
    41  H    0.094824
    42  H    0.098693
    43  H    0.082504
    44  H    0.085305
    45  H    0.022301
    46  H    0.105359
    47  H    0.067098
    48  H    0.063299
    49  H    0.122231
    50  H    0.105448
    51  H    0.124191
    52  H    0.080635
    53  H    0.091830
    54  H    0.075755
    55  H    0.100327
    56  H    0.117239
    57  H    0.057263
    58  H    0.103333
    59  H    0.091792
    60  H    0.098516
    61  H    0.094515
    62  H    0.105248
    63  H    0.101426
    64  H    0.093596
    65  H    0.065840
    66  H    0.066046
    67  H    0.107472
    68  H    0.108202
    69  H    0.100251
    70  H    0.104571
    71  H    0.109895
    72  H    0.115053
    73  H    0.083775
    74  H    0.087225
    75  H    0.114847
    76  H    0.079876
    77  H    0.125088
    78  H    0.122320
    79  H    0.104842
    80  H    0.115302
    81  H    0.067822
    82  H    0.072085
    83  H    0.071642
    84  H    0.084442
    85  H    0.079129
    86  H    0.077613
    87  H    0.123216
    88  H    0.113885
    89  H    0.094525
    90  H    0.132236
    91  H    0.126743
    92  H    0.113703
    93  H    0.072106
    94  H    0.077814
    95  H    0.074106
    96  H    0.071042
 Sum of Mulliken charges =  -0.00000

 Dipole moment (field-independent basis, Debye):
    X=              0.0190    Y=              0.6120    Z=              0.3020  Tot=              0.6827
 Quadrupole moment (field-independent basis, Debye-Ang):
   XX=           -226.6456   YY=           -233.9458   ZZ=           -256.7338
   XY=             -2.7621   XZ=             -1.7971   YZ=             -2.5650

 Normal termination of Gaussian 16 at Mon Jul 29 20:56:25 2019.
