 Gaussian 16, Revision A.03,
 Gaussian 16:  ES64L-G16RevA.03 25-Dec-2016

 ---------------------------------
 # td=(NStates=1) B3LYP/6-31G(d,p)
 ---------------------------------

 --
 TD
 --
 Symbolic Z-matrix:
 Charge =  0 Multiplicity = 1

                         Standard orientation:
 ---------------------------------------------------------------------
 Center     Atomic      Atomic             Coordinates (Angstroms)
 Number     Number       Type             X           Y           Z
 ---------------------------------------------------------------------
      1          6           0      -12.157070   -0.500356   -0.645911
      2          6           0       12.201838    0.218549    0.820295
      3          6           0      -13.353464    0.424744   -0.778491
      4          6           0       13.071287   -1.017034    1.227412
      5          6           0      -13.064839    1.933971   -0.779329
      6          6           0       13.571719   -1.840520    0.049552
      7          6           0      -11.030723    0.054807    0.316739
      8          6           0       10.988833   -0.410422   -0.121608
      9          6           0      -12.260787    2.252540    0.519586
     10          6           0       12.374593   -2.382156   -0.673724
     11          6           0      -11.103126    1.293865    0.845467
     12          6           0       11.085494   -1.583710   -0.679780
     13          6           0      -11.547929   -0.641322   -2.052329
     14          6           0      -12.664425   -1.917629   -0.318858
     15          6           0       13.001725    1.216310    0.032332
     16          6           0       11.503365    0.825844    2.027346
     17          6           0       -9.939668   -0.771711    0.375252
     18          6           0        9.847488    0.589038   -0.239673
     19          6           0      -10.048770    1.950368    1.723165
     20          6           0       10.139727   -2.050434   -1.719539
     21          6           0       -8.570974   -0.453266    0.417114
     22          6           0        8.527013    0.184706   -0.175772
     23          6           0       -7.404812   -1.315406    0.411736
     24          6           0        7.489778    1.151305   -0.395933
     25          6           0       -7.637212   -2.819512    0.621593
     26          6           0        7.885957    2.720048   -0.535746
     27          6           0       -6.241094   -0.904150    0.259664
     28          6           0        6.165522    0.789231   -0.323287
     29          6           0       -4.934022   -1.530499    0.404952
     30          6           0        4.929295    1.526895   -0.440780
     31          6           0       -3.740826   -0.816854    0.325183
     32          6           0        3.699404    1.028620   -0.333440
     33          6           0       -2.462450   -1.328691    0.482165
     34          6           0        2.494563    1.681588   -0.459929
     35          6           0       -2.324062   -2.888179    0.783221
     36          6           0        2.382994    3.243125   -0.544996
     37          6           0       -1.275081   -0.686011    0.237200
     38          6           0        1.372814    0.946661   -0.247863
     39          6           0       -1.169356    0.742957   -0.057333
     40          6           0       -0.039177    1.430886   -0.230635
     41          1           0      -13.929664    0.117074    0.117279
     42          1           0      -13.898788   -0.037609   -1.580623
     43          1           0       12.583035   -1.617889    1.998265
     44          1           0       13.998898   -0.516591    1.636834
     45          1           0      -13.913249    2.569079   -0.951551
     46          1           0      -12.429314    2.016159   -1.584479
     47          1           0       14.128898   -2.716472    0.547908
     48          1           0       14.379380   -1.377746   -0.398004
     49          1           0      -12.780548    2.253788    1.460622
     50          1           0      -11.926976    3.177154    0.600548
     51          1           0       12.107254   -3.364519   -0.169911
     52          1           0       12.679021   -2.789737   -1.603257
     53          1           0      -11.307585    0.234671   -2.576981
     54          1           0      -12.292316   -1.215543   -2.635272
     55          1           0      -10.863846   -1.341625   -1.926559
     56          1           0      -13.331132   -1.953323    0.589105
     57          1           0      -11.975489   -2.662566   -0.383848
     58          1           0      -13.482898   -2.072708   -0.960923
     59          1           0       13.529244    1.012709   -0.881247
     60          1           0       14.019267    1.422253    0.664153
     61          1           0       12.362095    2.318205    0.062405
     62          1           0       10.784551   -0.028324    2.396462
     63          1           0       10.835716    1.605659    1.671889
     64          1           0       12.140800    0.873439    2.814746
     65          1           0       -9.939179   -1.828684    0.644607
     66          1           0       10.178458    1.612065   -0.610767
     67          1           0       -9.403800    1.066408    2.174148
     68          1           0      -10.584871    2.740120    2.498640
     69          1           0       -9.423174    2.572869    1.246593
     70          1           0        9.557621   -1.359952   -2.094398
     71          1           0        9.302635   -2.843622   -1.292832
     72          1           0       10.673543   -2.654396   -2.498907
     73          1           0       -8.568094    0.590386    0.031494
     74          1           0        8.290853   -0.915341   -0.061177
     75          1           0       -8.221824   -2.991808    1.740837
     76          1           0       -6.671123   -3.271052    0.547273
     77          1           0       -8.362188   -3.217487   -0.146690
     78          1           0        8.505854    2.734527   -1.380727
     79          1           0        8.484014    2.805758    0.365828
     80          1           0        7.107946    3.551328   -0.857399
     81          1           0       -6.142145    0.157423    0.046608
     82          1           0        5.965404   -0.331691   -0.133047
     83          1           0       -4.867784   -2.609514    0.735904
     84          1           0        4.933345    2.620243   -0.506886
     85          1           0       -3.817976    0.213372    0.114600
     86          1           0        3.854859   -0.246350   -0.480356
     87          1           0       -2.926857   -3.142092    1.691972
     88          1           0       -1.123506   -3.164437    1.173931
     89          1           0       -2.458394   -3.397811   -0.116553
     90          1           0        3.105743    3.503892   -1.216324
     91          1           0        2.562499    3.883995    0.340418
     92          1           0        1.292201    3.530300   -0.840203
     93          1           0       -0.352687   -1.220006    0.212556
     94          1           0        1.348939   -0.279525   -0.239981
     95          1           0       -2.036219    1.473804   -0.093892
     96          1           0       -0.261688    2.422578   -0.652931
 ---------------------------------------------------------------------

 SCF Done:  E(RB3LYP) =  -1557.55723281     A.U. after   14 cycles

 Excitation energies and oscillator strengths:

 Excited State   1:      Singlet-A      2.3229 eV  533.74 nm  f=2.9596  <S**2>=0.000
     148 ->149         0.70704
 This state for optimization and/or second-order correction.
 Total Energy, E(TD-HF/TD-DFT) =  -1557.47186691
 Copying the excited state density for this state as the 1-particle RhoCI density.

 The electronic state is 1-A.
 Alpha  occ. eigenvalues --  -10.20394 -10.20284 -10.20202 -10.20086 -10.19974
 Alpha  occ. eigenvalues --  -10.19871 -10.19776 -10.19725 -10.19722 -10.19576
 Alpha  occ. eigenvalues --  -10.19515 -10.19412 -10.19333 -10.19282 -10.19170
 Alpha  occ. eigenvalues --  -10.19142 -10.19090 -10.18994 -10.18974 -10.18843
 Alpha  occ. eigenvalues --  -10.18716 -10.18710 -10.18648 -10.18534 -10.18365
 Alpha  occ. eigenvalues --  -10.18138 -10.18048 -10.18025 -10.17971 -10.17925
 Alpha  occ. eigenvalues --  -10.17714 -10.17598 -10.17570 -10.17492 -10.17452
 Alpha  occ. eigenvalues --  -10.17247 -10.16901 -10.16688 -10.16346 -10.14990
 Alpha  occ. eigenvalues --   -0.85370  -0.84597  -0.84041  -0.83490  -0.82324
 Alpha  occ. eigenvalues --   -0.81244  -0.79474  -0.78877  -0.78693  -0.78028
 Alpha  occ. eigenvalues --   -0.77020  -0.75283  -0.74005  -0.72330  -0.71412
 Alpha  occ. eigenvalues --   -0.69154  -0.68826  -0.68504  -0.68246  -0.67984
 Alpha  occ. eigenvalues --   -0.67965  -0.67684  -0.67608  -0.67020  -0.66523
 Alpha  occ. eigenvalues --   -0.63417  -0.62318  -0.61376  -0.59601  -0.58016
 Alpha  occ. eigenvalues --   -0.57181  -0.55285  -0.54601  -0.53322  -0.52170
 Alpha  occ. eigenvalues --   -0.51980  -0.51698  -0.50437  -0.49841  -0.48979
 Alpha  occ. eigenvalues --   -0.48294  -0.47455  -0.46952  -0.46571  -0.46359
 Alpha  occ. eigenvalues --   -0.45953  -0.45870  -0.45113  -0.44853  -0.44431
 Alpha  occ. eigenvalues --   -0.43624  -0.43428  -0.43356  -0.42778  -0.42581
 Alpha  occ. eigenvalues --   -0.42317  -0.41950  -0.41860  -0.41391  -0.40930
 Alpha  occ. eigenvalues --   -0.40516  -0.40492  -0.40209  -0.40100  -0.39842
 Alpha  occ. eigenvalues --   -0.39182  -0.38868  -0.38447  -0.38335  -0.38176
 Alpha  occ. eigenvalues --   -0.37901  -0.37738  -0.37503  -0.37350  -0.36684
 Alpha  occ. eigenvalues --   -0.36610  -0.36161  -0.36034  -0.35586  -0.34687
 Alpha  occ. eigenvalues --   -0.34387  -0.34223  -0.34071  -0.33737  -0.33522
 Alpha  occ. eigenvalues --   -0.33097  -0.32997  -0.32972  -0.32700  -0.32275
 Alpha  occ. eigenvalues --   -0.32098  -0.31912  -0.31646  -0.31499  -0.31026
 Alpha  occ. eigenvalues --   -0.30630  -0.30298  -0.29615  -0.29421  -0.29249
 Alpha  occ. eigenvalues --   -0.27985  -0.26710  -0.26061  -0.24868  -0.23122
 Alpha  occ. eigenvalues --   -0.21455  -0.19055  -0.16905
 Alpha virt. eigenvalues --   -0.07891  -0.05196  -0.01664   0.00494   0.03705
 Alpha virt. eigenvalues --    0.04831   0.05957   0.06295   0.06311   0.07446
 Alpha virt. eigenvalues --    0.07819   0.08102   0.08420   0.08734   0.09115

 Mulliken charges:
               1
     1  C   -0.040901
     2  C    0.017337
     3  C   -0.171957
     4  C   -0.185312
     5  C   -0.193580
     6  C   -0.188718
     7  C    0.127687
     8  C    0.044497
     9  C   -0.214767
    10  C   -0.227175
    11  C    0.034031
    12  C    0.094691
    13  C   -0.278009
    14  C   -0.313532
    15  C   -0.279730
    16  C   -0.290655
    17  C   -0.142276
    18  C   -0.167877
    19  C   -0.362210
    20  C   -0.355372
    21  C   -0.141519
    22  C   -0.090159
    23  C    0.149746
    24  C    0.090250
    25  C   -0.361865
    26  C   -0.371144
    27  C   -0.116687
    28  C   -0.136051
    29  C   -0.100778
    30  C   -0.073132
    31  C   -0.087339
    32  C   -0.071200
    33  C    0.090805
    34  C    0.089583
    35  C   -0.360766
    36  C   -0.360742
    37  C   -0.114952
    38  C   -0.100114
    39  C   -0.088833
    40  C   -0.102285
    41  H    0.078768
    42  H    0.082566
    43  H    0.094008
    44  H    0.069632
    45  H    0.097320
    46  H    0.111864
    47  H    0.080820
    48  H    0.105027
    49  H    0.111795
    50  H    0.102247
    51  H    0.097539
    52  H    0.105499
    53  H    0.102885
    54  H    0.081272
    55  H    0.109658
    56  H    0.091475
    57  H    0.110202
    58  H    0.105586
    59  H    0.120518
    60  H    0.065323
    61  H    0.064756
    62  H    0.087516
    63  H    0.107729
    64  H    0.108445
    65  H    0.075426
    66  H    0.104215
    67  H    0.114758
    68  H    0.065570
    69  H    0.138126
    70  H    0.132713
    71  H    0.068576
    72  H    0.100664
    73  H    0.076505
    74  H    0.100673
    75  H    0.084096
    76  H    0.111015
    77  H    0.118271
    78  H    0.131345
    79  H    0.133268
    80  H    0.102711
    81  H    0.069262
    82  H    0.058722
    83  H    0.084455
    84  H    0.064860
    85  H    0.078980
    86  H    0.047387
    87  H    0.121202
    88  H    0.063206
    89  H    0.142438
    90  H    0.126567
    91  H    0.125771
    92  H    0.105234
    93  H    0.087410
    94  H    0.069811
    95  H    0.081670
    96  H    0.073652
 Sum of Mulliken charges =  -0.00000

 Dipole moment (field-independent basis, Debye):
    X=              0.1780    Y=              0.4859    Z=             -1.1265  Tot=              1.2396
 Quadrupole moment (field-independent basis, Debye-Ang):
   XX=           -213.4491   YY=           -233.4358   ZZ=           -256.1439
   XY=             -6.5801   XZ=             -0.6720   YZ=             -2.1582

 Normal termination of Gaussian 16 at Mon Jul 29 07:57:56 2019.
