 Gaussian 16, Revision A.03,
 Gaussian 16:  ES64L-G16RevA.03 25-Dec-2016

 ---------------------------------
 # td=(NStates=1) B3LYP/6-31G(d,p)
 ---------------------------------

 --
 TD
 --
 Symbolic Z-matrix:
 Charge =  0 Multiplicity = 1

                         Standard orientation:
 ---------------------------------------------------------------------
 Center     Atomic      Atomic             Coordinates (Angstroms)
 Number     Number       Type             X           Y           Z
 ---------------------------------------------------------------------
      1          6           0      -12.247815   -0.565388   -0.629052
      2          6           0       12.190144    0.053859    0.799890
      3          6           0      -13.486687    0.266690   -0.597854
      4          6           0       12.990579   -1.151361    1.240876
      5          6           0      -13.172474    1.769933   -0.645445
      6          6           0       13.402302   -2.129807    0.153638
      7          6           0      -11.048049    0.023090    0.171971
      8          6           0       10.983151   -0.476089   -0.047643
      9          6           0      -12.372987    1.985217    0.633943
     10          6           0       12.112510   -2.768641   -0.461168
     11          6           0      -11.188828    1.120830    0.943563
     12          6           0       11.028964   -1.659260   -0.764578
     13          6           0      -11.671541   -0.635726   -2.066944
     14          6           0      -12.584778   -2.010386   -0.235063
     15          6           0       13.088257    1.021760    0.104429
     16          6           0       11.613451    0.736303    2.113424
     17          6           0       -9.862572   -0.899291    0.241788
     18          6           0        9.907043    0.503705   -0.269808
     19          6           0      -10.218727    1.608048    1.993570
     20          6           0        9.926401   -2.115798   -1.659733
     21          6           0       -8.532702   -0.526003    0.276864
     22          6           0        8.609103    0.219029   -0.209390
     23          6           0       -7.440171   -1.374083    0.389197
     24          6           0        7.447400    1.198809   -0.433969
     25          6           0       -7.597983   -2.857412    0.739734
     26          6           0        7.864293    2.706253   -0.696465
     27          6           0       -6.143398   -0.684966    0.159719
     28          6           0        6.175762    0.878589   -0.303625
     29          6           0       -4.785265   -1.252780    0.232368
     30          6           0        4.974113    1.643157   -0.431405
     31          6           0       -3.696610   -0.562511    0.212651
     32          6           0        3.729425    1.120384   -0.286690
     33          6           0       -2.348280   -1.138047    0.317426
     34          6           0        2.564606    1.938876   -0.322986
     35          6           0       -2.310229   -2.554361    0.546554
     36          6           0        2.714087    3.401868   -0.718973
     37          6           0       -1.234921   -0.439859    0.102397
     38          6           0        1.443420    1.245057   -0.126962
     39          6           0       -1.095584    1.008078   -0.135792
     40          6           0        0.008386    1.714726   -0.210389
     41          1           0      -14.198222    0.111467    0.239380
     42          1           0      -14.106281   -0.052431   -1.570457
     43          1           0       12.463429   -1.964187    1.848797
     44          1           0       13.942698   -0.650405    1.860751
     45          1           0      -14.179864    2.155174   -0.841013
     46          1           0      -12.367714    1.785140   -1.461545
     47          1           0       13.975317   -2.958834    0.714294
     48          1           0       13.938064   -1.475253   -0.623625
     49          1           0      -13.068506    2.021824    1.500816
     50          1           0      -12.100863    2.904806    0.852244
     51          1           0       11.610219   -3.373552    0.251233
     52          1           0       12.280860   -3.416587   -1.457057
     53          1           0      -11.258657    0.331147   -2.379770
     54          1           0      -12.199949   -1.168418   -2.868602
     55          1           0      -10.790494   -1.174243   -2.497866
     56          1           0      -12.844232   -1.905700    0.924990
     57          1           0      -11.728092   -2.890271   -0.280232
     58          1           0      -13.430745   -2.323749   -0.979399
     59          1           0       13.600989    0.521824   -0.652119
     60          1           0       13.810025    1.471389    0.839178
     61          1           0       12.681012    1.914473   -0.257166
     62          1           0       11.048077   -0.002278    2.606241
     63          1           0       11.073271    1.560718    1.960950
     64          1           0       12.406957    1.126312    2.729559
     65          1           0      -10.003055   -2.043284    0.202139
     66          1           0       10.187360    1.521839   -0.646542
     67          1           0       -9.747672    0.713409    2.604326
     68          1           0      -10.929702    2.379955    2.652599
     69          1           0       -9.610442    2.318807    1.624528
     70          1           0        9.507192   -1.286298   -2.319475
     71          1           0        9.275622   -2.808697   -1.216347
     72          1           0       10.352465   -2.742326   -2.618885
     73          1           0       -8.222104    0.597581    0.289089
     74          1           0        8.235583   -0.756529    0.060788
     75          1           0       -8.024087   -2.786237    1.740576
     76          1           0       -6.604381   -3.456871    0.464583
     77          1           0       -8.271213   -3.141538   -0.047144
     78          1           0        8.448956    2.659666   -1.671614
     79          1           0        8.347189    3.401774    0.004975
     80          1           0        7.073799    3.570078   -0.829783
     81          1           0       -6.133188    0.452447    0.133424
     82          1           0        6.004137   -0.281621   -0.172508
     83          1           0       -4.672895   -2.281460    0.308159
     84          1           0        5.074299    2.789654   -0.812147
     85          1           0       -3.739041    0.563763    0.042020
     86          1           0        3.722025    0.007948   -0.036710
     87          1           0       -2.851248   -2.718046    1.481343
     88          1           0       -1.262653   -3.023116    0.694094
     89          1           0       -2.755067   -3.077662   -0.230437
     90          1           0        3.356150    3.296418   -1.597458
     91          1           0        3.219588    3.979864   -0.125103
     92          1           0        1.797535    3.860797   -0.821195
     93          1           0       -0.354079   -1.072635    0.268626
     94          1           0        1.557922    0.350746    0.409969
     95          1           0       -2.039506    1.525695   -0.193919
     96          1           0        0.100448    2.762553   -0.821970
 ---------------------------------------------------------------------

 SCF Done:  E(RB3LYP) =  -1557.56067525     A.U. after   15 cycles

 Excitation energies and oscillator strengths:

 Excited State   1:      Singlet-A      2.5010 eV  495.73 nm  f=2.6630  <S**2>=0.000
     148 ->149         0.70340
 This state for optimization and/or second-order correction.
 Total Energy, E(TD-HF/TD-DFT) =  -1557.46876379
 Copying the excited state density for this state as the 1-particle RhoCI density.

 The electronic state is 1-A.
 Alpha  occ. eigenvalues --  -10.20675 -10.20316 -10.20292 -10.20088 -10.20063
 Alpha  occ. eigenvalues --  -10.19837 -10.19611 -10.19572 -10.19570 -10.19465
 Alpha  occ. eigenvalues --  -10.19456 -10.19453 -10.19305 -10.19292 -10.19270
 Alpha  occ. eigenvalues --  -10.19255 -10.19144 -10.18884 -10.18775 -10.18762
 Alpha  occ. eigenvalues --  -10.18731 -10.18720 -10.18702 -10.18697 -10.18659
 Alpha  occ. eigenvalues --  -10.18621 -10.18487 -10.18479 -10.18445 -10.18290
 Alpha  occ. eigenvalues --  -10.18166 -10.18162 -10.17843 -10.17719 -10.17633
 Alpha  occ. eigenvalues --  -10.17367 -10.16761 -10.16728 -10.16336 -10.15032
 Alpha  occ. eigenvalues --   -0.85531  -0.84523  -0.84246  -0.83585  -0.81766
 Alpha  occ. eigenvalues --   -0.81050  -0.78966  -0.78879  -0.78216  -0.77313
 Alpha  occ. eigenvalues --   -0.76769  -0.75786  -0.74230  -0.71962  -0.71724
 Alpha  occ. eigenvalues --   -0.71372  -0.69057  -0.68665  -0.68627  -0.68096
 Alpha  occ. eigenvalues --   -0.67435  -0.67357  -0.66909  -0.66612  -0.66289
 Alpha  occ. eigenvalues --   -0.62118  -0.61513  -0.59135  -0.58858  -0.56837
 Alpha  occ. eigenvalues --   -0.56580  -0.55355  -0.54888  -0.53248  -0.52446
 Alpha  occ. eigenvalues --   -0.52228  -0.51413  -0.50279  -0.49825  -0.49297
 Alpha  occ. eigenvalues --   -0.48813  -0.47514  -0.46854  -0.46512  -0.45695
 Alpha  occ. eigenvalues --   -0.45312  -0.45156  -0.44841  -0.44518  -0.44000
 Alpha  occ. eigenvalues --   -0.43675  -0.43505  -0.43176  -0.42940  -0.42862
 Alpha  occ. eigenvalues --   -0.42743  -0.42164  -0.42029  -0.41922  -0.41732
 Alpha  occ. eigenvalues --   -0.41388  -0.40534  -0.40424  -0.39950  -0.39200
 Alpha  occ. eigenvalues --   -0.38763  -0.38436  -0.38340  -0.38069  -0.37825
 Alpha  occ. eigenvalues --   -0.37753  -0.37489  -0.37131  -0.36804  -0.36596
 Alpha  occ. eigenvalues --   -0.36432  -0.36339  -0.35507  -0.35172  -0.34960
 Alpha  occ. eigenvalues --   -0.34494  -0.34300  -0.33894  -0.33569  -0.33520
 Alpha  occ. eigenvalues --   -0.33174  -0.33027  -0.32859  -0.32568  -0.32266
 Alpha  occ. eigenvalues --   -0.31614  -0.31598  -0.31224  -0.31177  -0.30519
 Alpha  occ. eigenvalues --   -0.30275  -0.30029  -0.29256  -0.29066  -0.28521
 Alpha  occ. eigenvalues --   -0.28118  -0.27548  -0.26215  -0.24081  -0.22892
 Alpha  occ. eigenvalues --   -0.21380  -0.18650  -0.16947
 Alpha virt. eigenvalues --   -0.07040  -0.04919  -0.01228   0.01084   0.02869
 Alpha virt. eigenvalues --    0.04301   0.06484   0.06833   0.06877   0.07078
 Alpha virt. eigenvalues --    0.07470   0.08169   0.08369   0.08873   0.09491

 Mulliken charges:
               1
     1  C    0.007131
     2  C   -0.001263
     3  C   -0.164936
     4  C   -0.145910
     5  C   -0.197377
     6  C   -0.187476
     7  C    0.059928
     8  C    0.051503
     9  C   -0.210260
    10  C   -0.209250
    11  C    0.071224
    12  C    0.052623
    13  C   -0.309732
    14  C   -0.275110
    15  C   -0.297084
    16  C   -0.299500
    17  C   -0.155197
    18  C   -0.132476
    19  C   -0.349736
    20  C   -0.359877
    21  C   -0.067157
    22  C   -0.070114
    23  C    0.077534
    24  C    0.110875
    25  C   -0.360238
    26  C   -0.377028
    27  C   -0.149566
    28  C   -0.138248
    29  C   -0.066041
    30  C   -0.076886
    31  C   -0.086060
    32  C   -0.103947
    33  C    0.130844
    34  C    0.124072
    35  C   -0.390039
    36  C   -0.363582
    37  C   -0.135087
    38  C   -0.130107
    39  C   -0.071674
    40  C   -0.113936
    41  H    0.093840
    42  H    0.068387
    43  H    0.079103
    44  H    0.052584
    45  H    0.104642
    46  H    0.102091
    47  H    0.089644
    48  H    0.090414
    49  H    0.089217
    50  H    0.098742
    51  H    0.118226
    52  H    0.083171
    53  H    0.100925
    54  H    0.084952
    55  H    0.098017
    56  H    0.086133
    57  H    0.078815
    58  H    0.094118
    59  H    0.105638
    60  H    0.091381
    61  H    0.107145
    62  H    0.106214
    63  H    0.108757
    64  H    0.087646
    65  H    0.073004
    66  H    0.088796
    67  H    0.122811
    68  H    0.064496
    69  H    0.142282
    70  H    0.122815
    71  H    0.128562
    72  H    0.064341
    73  H    0.074570
    74  H    0.076760
    75  H    0.141662
    76  H    0.103921
    77  H    0.135028
    78  H    0.110496
    79  H    0.119151
    80  H    0.083144
    81  H    0.071822
    82  H    0.057971
    83  H    0.068693
    84  H    0.068569
    85  H    0.068845
    86  H    0.081134
    87  H    0.122308
    88  H    0.092737
    89  H    0.134908
    90  H    0.123297
    91  H    0.138607
    92  H    0.110624
    93  H    0.068107
    94  H    0.082904
    95  H    0.084460
    96  H    0.062531
 Sum of Mulliken charges =  -0.00000

 Dipole moment (field-independent basis, Debye):
    X=             -1.0384    Y=              0.0147    Z=              0.1775  Tot=              1.0536
 Quadrupole moment (field-independent basis, Debye-Ang):
   XX=           -230.5571   YY=           -231.8428   ZZ=           -255.5154
   XY=              1.1899   XZ=             -4.2039   YZ=             -0.7070

 Normal termination of Gaussian 16 at Thu Aug  1 20:06:40 2019.
