 Gaussian 16, Revision A.03,
 Gaussian 16:  ES64L-G16RevA.03 25-Dec-2016

 ---------------------------------
 # td=(NStates=1) B3LYP/6-31G(d,p)
 ---------------------------------

 --
 TD
 --
 Symbolic Z-matrix:
 Charge =  0 Multiplicity = 1

                         Standard orientation:
 ---------------------------------------------------------------------
 Center     Atomic      Atomic             Coordinates (Angstroms)
 Number     Number       Type             X           Y           Z
 ---------------------------------------------------------------------
      1          6           0       12.143032    0.423833   -0.633004
      2          6           0      -12.008993   -0.053692    0.978724
      3          6           0       13.396730   -0.457079   -0.447807
      4          6           0      -12.865914    1.177007    1.425828
      5          6           0       13.106052   -1.983421   -0.230932
      6          6           0      -13.415433    1.972787    0.217490
      7          6           0       10.974952   -0.059872    0.239087
      8          6           0      -10.836506    0.475276    0.010879
      9          6           0       12.181663   -2.077064    0.992488
     10          6           0      -12.133995    2.583827   -0.422491
     11          6           0       11.061414   -1.158695    1.046424
     12          6           0      -10.989376    1.693858   -0.623624
     13          6           0       11.629651    0.371617   -2.063121
     14          6           0       12.564816    1.831188   -0.298433
     15          6           0      -12.874814   -1.127065    0.289896
     16          6           0      -11.307370   -0.669533    2.235393
     17          6           0        9.821478    0.884110    0.337016
     18          6           0       -9.898236   -0.627163   -0.264273
     19          6           0        9.934753   -1.580519    2.110418
     20          6           0       -9.981762    1.920213   -1.776932
     21          6           0        8.505124    0.563792    0.295986
     22          6           0       -8.469727   -0.327562   -0.189084
     23          6           0        7.395755    1.381940    0.353208
     24          6           0       -7.494746   -1.368072   -0.331728
     25          6           0        7.684948    2.875534    0.539566
     26          6           0       -7.891682   -2.838399   -0.547717
     27          6           0        6.117262    0.836119    0.210590
     28          6           0       -6.246678   -0.832774   -0.400471
     29          6           0        4.849703    1.512393    0.138432
     30          6           0       -5.023299   -1.697832   -0.572883
     31          6           0        3.666436    0.872406   -0.049731
     32          6           0       -3.753964   -1.175394   -0.479267
     33          6           0        2.297723    1.420230    0.126270
     34          6           0       -2.466093   -1.884922   -0.497567
     35          6           0        2.127572    2.935787    0.371589
     36          6           0       -2.478138   -3.300283   -0.838964
     37          6           0        1.122702    0.676341   -0.106880
     38          6           0       -1.370447   -1.076363   -0.371165
     39          6           0        1.109600   -0.799570   -0.405529
     40          6           0        0.005164   -1.555426   -0.626835
     41          1           0       13.703684   -0.243146    0.472506
     42          1           0       14.135717   -0.221742   -1.326696
     43          1           0      -12.361349    1.948737    2.123538
     44          1           0      -13.678863    0.728759    1.998989
     45          1           0       14.194974   -2.501550   -0.129532
     46          1           0       12.615754   -2.400242   -1.254542
     47          1           0      -13.952239    2.748565    0.534047
     48          1           0      -13.824174    1.206498   -0.552927
     49          1           0       13.014928   -2.226347    1.833617
     50          1           0       11.827019   -3.079171    1.011732
     51          1           0      -11.817626    3.267315    0.420809
     52          1           0      -12.503929    3.118947   -1.300059
     53          1           0       11.357915   -0.664588   -2.539641
     54          1           0       12.179875    0.928567   -2.827315
     55          1           0       10.707229    1.150066   -2.047324
     56          1           0       12.760368    2.082952    0.909360
     57          1           0       11.809606    2.591209   -0.748222
     58          1           0       13.379164    2.090745   -0.882985
     59          1           0      -13.084383   -0.929193   -0.707325
     60          1           0      -13.510907   -1.500203    0.854481
     61          1           0      -12.271950   -1.996109    0.186132
     62          1           0      -10.661674    0.080495    2.760970
     63          1           0      -10.666750   -1.569317    2.142600
     64          1           0      -12.060266   -0.707137    3.046378
     65          1           0       10.145081    1.961403    0.220076
     66          1           0      -10.269191   -1.733799   -0.353580
     67          1           0        9.502364   -0.516074    2.708968
     68          1           0       10.537355   -2.268043    2.789608
     69          1           0        8.879313   -2.257903    1.518148
     70          1           0       -9.528503    1.072863   -2.299342
     71          1           0       -9.308133    2.765898   -1.434588
     72          1           0      -10.661230    2.374978   -2.402473
     73          1           0        8.001328   -0.465796    0.216004
     74          1           0       -8.304224    0.661363    0.040907
     75          1           0        8.222912    2.991401    1.531564
     76          1           0        6.717099    3.443162    0.364175
     77          1           0        8.231662    3.180562   -0.393823
     78          1           0       -8.288570   -2.934034   -1.482040
     79          1           0       -8.856094   -3.107687    0.261395
     80          1           0       -6.954986   -3.199304   -0.421208
     81          1           0        6.050155   -0.346885    0.400020
     82          1           0       -6.063775    0.139839   -0.189540
     83          1           0        4.850555    2.630039    0.446408
     84          1           0       -4.874174   -2.776841   -0.735992
     85          1           0        3.550957   -0.213157   -0.210865
     86          1           0       -3.580999   -0.038003   -0.518703
     87          1           0        2.450194    3.258459    1.248676
     88          1           0        1.068958    3.451800    0.563072
     89          1           0        2.701666    3.503379   -0.242424
     90          1           0       -3.056294   -3.722317   -1.614023
     91          1           0       -2.946721   -3.790442    0.108527
     92          1           0       -1.535070   -3.863745   -1.059645
     93          1           0        0.188832    1.173696   -0.145036
     94          1           0       -1.530515   -0.081908   -0.209637
     95          1           0        2.085800   -1.225628   -0.385542
     96          1           0        0.145974   -2.516730   -0.742760
 ---------------------------------------------------------------------

 SCF Done:  E(RB3LYP) =  -1557.50966635     A.U. after   15 cycles

 Excitation energies and oscillator strengths:

 Excited State   1:      Singlet-A      2.1868 eV  566.98 nm  f=2.1253  <S**2>=0.000
     148 ->149         0.70346
 This state for optimization and/or second-order correction.
 Total Energy, E(TD-HF/TD-DFT) =  -1557.42930454
 Copying the excited state density for this state as the 1-particle RhoCI density.

 The electronic state is 1-A.
 Alpha  occ. eigenvalues --  -10.22650 -10.20980 -10.20145 -10.20092 -10.20065
 Alpha  occ. eigenvalues --  -10.19864 -10.19853 -10.19691 -10.19687 -10.19567
 Alpha  occ. eigenvalues --  -10.19457 -10.19381 -10.19309 -10.19253 -10.19156
 Alpha  occ. eigenvalues --  -10.19068 -10.19059 -10.18941 -10.18903 -10.18891
 Alpha  occ. eigenvalues --  -10.18888 -10.18888 -10.18878 -10.18817 -10.18731
 Alpha  occ. eigenvalues --  -10.18554 -10.18541 -10.18403 -10.18227 -10.18161
 Alpha  occ. eigenvalues --  -10.17876 -10.17874 -10.17863 -10.17797 -10.17680
 Alpha  occ. eigenvalues --  -10.17234 -10.17073 -10.16866 -10.16750 -10.14627
 Alpha  occ. eigenvalues --   -0.85287  -0.83982  -0.83295  -0.82928  -0.82042
 Alpha  occ. eigenvalues --   -0.81136  -0.78788  -0.78294  -0.78145  -0.76751
 Alpha  occ. eigenvalues --   -0.76358  -0.74785  -0.73923  -0.71655  -0.70992
 Alpha  occ. eigenvalues --   -0.70583  -0.69604  -0.69054  -0.68385  -0.67885
 Alpha  occ. eigenvalues --   -0.67357  -0.67098  -0.66718  -0.65823  -0.65441
 Alpha  occ. eigenvalues --   -0.62672  -0.61664  -0.59415  -0.58381  -0.56733
 Alpha  occ. eigenvalues --   -0.56401  -0.55680  -0.54982  -0.54145  -0.53229
 Alpha  occ. eigenvalues --   -0.52336  -0.51118  -0.50271  -0.49778  -0.49021
 Alpha  occ. eigenvalues --   -0.48215  -0.48048  -0.47278  -0.46457  -0.46097
 Alpha  occ. eigenvalues --   -0.45642  -0.45179  -0.44792  -0.44409  -0.43818
 Alpha  occ. eigenvalues --   -0.43490  -0.43218  -0.42686  -0.42309  -0.42255
 Alpha  occ. eigenvalues --   -0.42077  -0.41834  -0.41534  -0.41487  -0.41138
 Alpha  occ. eigenvalues --   -0.40491  -0.40393  -0.40042  -0.39567  -0.39339
 Alpha  occ. eigenvalues --   -0.38893  -0.38565  -0.38500  -0.37939  -0.37656
 Alpha  occ. eigenvalues --   -0.37360  -0.37336  -0.37143  -0.36680  -0.36202
 Alpha  occ. eigenvalues --   -0.35900  -0.35678  -0.35492  -0.35382  -0.35126
 Alpha  occ. eigenvalues --   -0.34667  -0.34465  -0.34367  -0.34211  -0.33952
 Alpha  occ. eigenvalues --   -0.33637  -0.33301  -0.32891  -0.32454  -0.31939
 Alpha  occ. eigenvalues --   -0.31832  -0.31763  -0.31534  -0.31127  -0.31014
 Alpha  occ. eigenvalues --   -0.30524  -0.29859  -0.29761  -0.29114  -0.28547
 Alpha  occ. eigenvalues --   -0.27810  -0.26889  -0.25634  -0.23978  -0.22653
 Alpha  occ. eigenvalues --   -0.20569  -0.18102  -0.16369
 Alpha virt. eigenvalues --   -0.07652  -0.05275  -0.01985   0.00396   0.02241
 Alpha virt. eigenvalues --    0.03527   0.05300   0.05764   0.06269   0.06861
 Alpha virt. eigenvalues --    0.07437   0.07837   0.08489   0.08978   0.09207

 Mulliken charges:
               1
     1  C   -0.006833
     2  C   -0.008509
     3  C   -0.155612
     4  C   -0.180325
     5  C   -0.190722
     6  C   -0.168018
     7  C    0.098408
     8  C    0.062166
     9  C   -0.239702
    10  C   -0.236461
    11  C    0.072250
    12  C    0.046384
    13  C   -0.290720
    14  C   -0.290827
    15  C   -0.282582
    16  C   -0.313482
    17  C   -0.185329
    18  C   -0.158893
    19  C   -0.304523
    20  C   -0.349916
    21  C   -0.039919
    22  C   -0.088368
    23  C    0.124156
    24  C    0.093928
    25  C   -0.367894
    26  C   -0.338679
    27  C   -0.146061
    28  C   -0.105709
    29  C   -0.091008
    30  C   -0.107514
    31  C   -0.092844
    32  C   -0.134182
    33  C    0.084272
    34  C    0.157481
    35  C   -0.379567
    36  C   -0.401831
    37  C   -0.117352
    38  C   -0.117111
    39  C   -0.088858
    40  C   -0.079163
    41  H    0.106402
    42  H    0.074301
    43  H    0.076716
    44  H    0.079084
    45  H    0.073928
    46  H    0.070975
    47  H    0.100481
    48  H    0.092101
    49  H    0.091588
    50  H    0.118994
    51  H    0.100943
    52  H    0.097326
    53  H    0.101995
    54  H    0.095282
    55  H    0.077654
    56  H    0.084565
    57  H    0.080366
    58  H    0.113695
    59  H    0.109027
    60  H    0.105223
    61  H    0.089929
    62  H    0.096120
    63  H    0.101743
    64  H    0.084554
    65  H    0.090688
    66  H    0.080998
    67  H    0.095219
    68  H    0.105982
    69  H    0.063800
    70  H    0.127372
    71  H    0.099649
    72  H    0.105697
    73  H    0.065837
    74  H    0.087878
    75  H    0.127518
    76  H    0.095564
    77  H    0.120450
    78  H    0.143915
    79  H    0.083271
    80  H    0.123771
    81  H    0.075255
    82  H    0.087617
    83  H    0.085549
    84  H    0.079432
    85  H    0.076860
    86  H    0.064990
    87  H    0.131607
    88  H    0.085118
    89  H    0.125577
    90  H    0.135548
    91  H    0.111886
    92  H    0.110257
    93  H    0.086107
    94  H    0.075738
    95  H    0.077662
    96  H    0.069664
 Sum of Mulliken charges =  -0.00000

 Dipole moment (field-independent basis, Debye):
    X=              0.1149    Y=              0.1622    Z=             -0.0377  Tot=              0.2023
 Quadrupole moment (field-independent basis, Debye-Ang):
   XX=           -214.6480   YY=           -232.6307   ZZ=           -255.1626
   XY=              2.8117   XZ=              4.3006   YZ=              3.8043

 Normal termination of Gaussian 16 at Sat Jul 27 17:46:54 2019.
