 Gaussian 16, Revision A.03,
 Gaussian 16:  ES64L-G16RevA.03 25-Dec-2016

 ---------------------------------
 # td=(NStates=1) B3LYP/6-31G(d,p)
 ---------------------------------

 --
 TD
 --
 Symbolic Z-matrix:
 Charge =  0 Multiplicity = 1

                         Standard orientation:
 ---------------------------------------------------------------------
 Center     Atomic      Atomic             Coordinates (Angstroms)
 Number     Number       Type             X           Y           Z
 ---------------------------------------------------------------------
      1          6           0       12.145296    0.561005   -0.710607
      2          6           0      -12.101380   -0.161663    0.911523
      3          6           0       13.481529   -0.317792   -0.603167
      4          6           0      -13.007649    1.051558    1.407160
      5          6           0       13.157996   -1.793657   -0.463167
      6          6           0      -13.428442    2.016448    0.257466
      7          6           0       11.066002   -0.072410    0.224820
      8          6           0      -11.058651    0.359662   -0.035666
      9          6           0       12.332932   -2.105416    0.818713
     10          6           0      -12.224968    2.598221   -0.496181
     11          6           0       11.267809   -1.234044    1.028277
     12          6           0      -11.151662    1.627059   -0.682356
     13          6           0       11.618093    0.434605   -2.196772
     14          6           0       12.415618    2.065645   -0.326011
     15          6           0      -12.996391   -1.172038    0.096466
     16          6           0      -11.462066   -0.724666    2.234647
     17          6           0        9.858942    0.727455    0.418533
     18          6           0       -9.923110   -0.605757   -0.333233
     19          6           0       10.286253   -1.678488    1.962371
     20          6           0       -9.996291    2.180647   -1.588131
     21          6           0        8.529826    0.408562    0.325628
     22          6           0       -8.599685   -0.350788   -0.279484
     23          6           0        7.477154    1.291919    0.357210
     24          6           0       -7.509797   -1.302556   -0.476014
     25          6           0        7.732552    2.767999    0.545730
     26          6           0       -7.922584   -2.717258   -0.846626
     27          6           0        6.212447    0.749675    0.226212
     28          6           0       -6.244593   -0.773889   -0.325631
     29          6           0        4.866993    1.419671    0.238229
     30          6           0       -5.050078   -1.588616   -0.522663
     31          6           0        3.729884    0.715756    0.277433
     32          6           0       -3.876762   -1.051513   -0.289863
     33          6           0        2.379600    1.261438    0.179594
     34          6           0       -2.530086   -1.712992   -0.514266
     35          6           0        2.272855    2.813474    0.412880
     36          6           0       -2.559751   -3.164021   -0.759381
     37          6           0        1.238338    0.593298    0.078741
     38          6           0       -1.401078   -1.130542   -0.346302
     39          6           0        1.164019   -0.881022   -0.099247
     40          6           0       -0.019226   -1.595329   -0.233669
     41          1           0       13.945726    0.158983    0.188005
     42          1           0       14.002990   -0.268459   -1.574165
     43          1           0      -12.489789    1.543003    2.265093
     44          1           0      -13.934718    0.760240    1.896552
     45          1           0       14.035227   -2.558425   -0.559888
     46          1           0       12.578446   -2.091080   -1.488094
     47          1           0      -13.990775    2.904713    0.483764
     48          1           0      -14.004772    1.404863   -0.487055
     49          1           0       13.175082   -1.868136    1.675626
     50          1           0       12.058328   -3.092984    0.831556
     51          1           0      -11.869222    3.319571    0.207267
     52          1           0      -12.588466    2.907749   -1.564117
     53          1           0       11.093502   -0.469707   -2.533193
     54          1           0       12.396054    0.968897   -2.741634
     55          1           0       10.721938    1.197848   -2.093711
     56          1           0       12.939794    2.065359    0.702228
     57          1           0       11.465911    2.770333   -0.577491
     58          1           0       13.279894    2.653942   -0.714212
     59          1           0      -13.360203   -0.618168   -0.760545
     60          1           0      -13.641764   -1.583725    0.848340
     61          1           0      -12.430097   -1.878110   -0.077717
     62          1           0      -10.904100    0.204660    2.609180
     63          1           0      -10.768401   -1.633328    2.074965
     64          1           0      -12.268572   -1.124076    2.873149
     65          1           0        9.960485    1.719236    0.594794
     66          1           0      -10.175274   -1.591864   -0.330421
     67          1           0        9.244332   -1.254359    2.082473
     68          1           0       10.837984   -1.777014    2.914359
     69          1           0       10.097410   -2.811007    1.590509
     70          1           0       -9.559664    1.169125   -2.035070
     71          1           0       -9.245334    2.743776   -0.986400
     72          1           0      -10.649055    2.588972   -2.308616
     73          1           0        8.379944   -0.643757    0.150099
     74          1           0       -8.574871    0.744570   -0.009340
     75          1           0        8.243587    2.919094    1.505079
     76          1           0        6.835593    3.418063    1.095007
     77          1           0        8.127323    3.315486   -0.347541
     78          1           0       -8.334795   -2.663855   -1.790235
     79          1           0       -8.531314   -3.157724   -0.215957
     80          1           0       -7.183571   -3.238787   -0.839541
     81          1           0        6.197170   -0.310276    0.160194
     82          1           0       -6.011657    0.284549   -0.209578
     83          1           0        4.935198    2.467595    0.304411
     84          1           0       -5.129333   -2.560346   -0.900118
     85          1           0        4.138720   -0.267347    0.169935
     86          1           0       -3.796901    0.043567   -0.077209
     87          1           0        2.466285    2.935165    1.721936
     88          1           0        1.245687    3.293115   -0.081362
     89          1           0        3.029793    3.507667   -0.083807
     90          1           0       -2.881084   -3.438360   -1.804555
     91          1           0       -3.581896   -3.511967   -0.188329
     92          1           0       -1.621860   -3.755431   -0.375132
     93          1           0        0.505802    1.149736    0.155465
     94          1           0       -1.527830    0.041225   -0.105251
     95          1           0        2.086747   -1.450234   -0.016941
     96          1           0        0.011005   -2.640424   -0.461917
 ---------------------------------------------------------------------

 SCF Done:  E(RB3LYP) =  -1557.49734025     A.U. after   14 cycles

 Excitation energies and oscillator strengths:

 Excited State   1:      Singlet-A      2.5285 eV  490.35 nm  f=2.6105  <S**2>=0.000
     148 ->149         0.70306
 This state for optimization and/or second-order correction.
 Total Energy, E(TD-HF/TD-DFT) =  -1557.40442086
 Copying the excited state density for this state as the 1-particle RhoCI density.

 The electronic state is 1-A.
 Alpha  occ. eigenvalues --  -10.22085 -10.21011 -10.20214 -10.20213 -10.19999
 Alpha  occ. eigenvalues --  -10.19894 -10.19826 -10.19709 -10.19658 -10.19644
 Alpha  occ. eigenvalues --  -10.19534 -10.19016 -10.18902 -10.18838 -10.18804
 Alpha  occ. eigenvalues --  -10.18720 -10.18670 -10.18596 -10.18579 -10.18561
 Alpha  occ. eigenvalues --  -10.18461 -10.18456 -10.18391 -10.18373 -10.18352
 Alpha  occ. eigenvalues --  -10.18216 -10.17944 -10.17901 -10.17885 -10.17791
 Alpha  occ. eigenvalues --  -10.17782 -10.17652 -10.17629 -10.17534 -10.17443
 Alpha  occ. eigenvalues --  -10.17076 -10.17000 -10.16816 -10.15324 -10.15103
 Alpha  occ. eigenvalues --   -0.85169  -0.84124  -0.83624  -0.83305  -0.82385
 Alpha  occ. eigenvalues --   -0.81828  -0.79360  -0.78716  -0.78297  -0.77608
 Alpha  occ. eigenvalues --   -0.76161  -0.75698  -0.74075  -0.72678  -0.72103
 Alpha  occ. eigenvalues --   -0.70075  -0.69150  -0.68781  -0.67985  -0.67631
 Alpha  occ. eigenvalues --   -0.67345  -0.66761  -0.66467  -0.66209  -0.65712
 Alpha  occ. eigenvalues --   -0.62000  -0.61464  -0.59235  -0.58996  -0.56896
 Alpha  occ. eigenvalues --   -0.56322  -0.55137  -0.55097  -0.54705  -0.54023
 Alpha  occ. eigenvalues --   -0.53203  -0.52546  -0.50677  -0.49989  -0.48977
 Alpha  occ. eigenvalues --   -0.48379  -0.47735  -0.46967  -0.46379  -0.45918
 Alpha  occ. eigenvalues --   -0.45330  -0.45164  -0.45077  -0.44680  -0.44520
 Alpha  occ. eigenvalues --   -0.44336  -0.43943  -0.43550  -0.43282  -0.43078
 Alpha  occ. eigenvalues --   -0.42427  -0.42351  -0.41881  -0.41557  -0.41105
 Alpha  occ. eigenvalues --   -0.41002  -0.40440  -0.39977  -0.39603  -0.39425
 Alpha  occ. eigenvalues --   -0.38993  -0.38908  -0.38538  -0.38272  -0.38254
 Alpha  occ. eigenvalues --   -0.37573  -0.37348  -0.37017  -0.36842  -0.36278
 Alpha  occ. eigenvalues --   -0.35850  -0.35788  -0.35419  -0.35174  -0.34830
 Alpha  occ. eigenvalues --   -0.34557  -0.34391  -0.34009  -0.33784  -0.33354
 Alpha  occ. eigenvalues --   -0.33082  -0.33024  -0.32620  -0.32499  -0.32334
 Alpha  occ. eigenvalues --   -0.32023  -0.31985  -0.31617  -0.31315  -0.31112
 Alpha  occ. eigenvalues --   -0.30134  -0.29811  -0.29349  -0.29072  -0.28804
 Alpha  occ. eigenvalues --   -0.28085  -0.27544  -0.26138  -0.23307  -0.22164
 Alpha  occ. eigenvalues --   -0.20451  -0.18438  -0.17097
 Alpha virt. eigenvalues --   -0.06967  -0.04716  -0.01782   0.00757   0.02357
 Alpha virt. eigenvalues --    0.04003   0.06026   0.06723   0.07105   0.07545
 Alpha virt. eigenvalues --    0.07758   0.08237   0.08670   0.08968   0.09185

 Mulliken charges:
               1
     1  C   -0.012490
     2  C   -0.044701
     3  C   -0.160615
     4  C   -0.170428
     5  C   -0.181847
     6  C   -0.199513
     7  C    0.053850
     8  C    0.072178
     9  C   -0.213853
    10  C   -0.204710
    11  C    0.123883
    12  C    0.005810
    13  C   -0.293147
    14  C   -0.318203
    15  C   -0.273236
    16  C   -0.300088
    17  C   -0.142809
    18  C   -0.139532
    19  C   -0.355709
    20  C   -0.341789
    21  C   -0.093894
    22  C   -0.076018
    23  C    0.149562
    24  C    0.050253
    25  C   -0.387899
    26  C   -0.332570
    27  C   -0.159213
    28  C   -0.113893
    29  C   -0.058143
    30  C   -0.059759
    31  C   -0.094920
    32  C   -0.114248
    33  C    0.079089
    34  C    0.164361
    35  C   -0.342340
    36  C   -0.387282
    37  C   -0.029886
    38  C   -0.123653
    39  C   -0.097729
    40  C   -0.094243
    41  H    0.092430
    42  H    0.090588
    43  H    0.078782
    44  H    0.088276
    45  H    0.077851
    46  H    0.070460
    47  H    0.091223
    48  H    0.089625
    49  H    0.078592
    50  H    0.107176
    51  H    0.117093
    52  H    0.087635
    53  H    0.116948
    54  H    0.105997
    55  H    0.077726
    56  H    0.097161
    57  H    0.096824
    58  H    0.100898
    59  H    0.107433
    60  H    0.090653
    61  H    0.108158
    62  H    0.106816
    63  H    0.087149
    64  H    0.099684
    65  H    0.076130
    66  H    0.064106
    67  H    0.122893
    68  H    0.111701
    69  H    0.077138
    70  H    0.108502
    71  H    0.120656
    72  H    0.104317
    73  H    0.072943
    74  H    0.076119
    75  H    0.130374
    76  H    0.079774
    77  H    0.130324
    78  H    0.134244
    79  H    0.126950
    80  H    0.103424
    81  H    0.068886
    82  H    0.089225
    83  H    0.070045
    84  H    0.084389
    85  H    0.077447
    86  H    0.072011
    87  H    0.083753
    88  H    0.088242
    89  H    0.116727
    90  H    0.119134
    91  H    0.083817
    92  H    0.107590
    93  H    0.043914
    94  H    0.045488
    95  H    0.093984
    96  H    0.069946
 Sum of Mulliken charges =  -0.00000

 Dipole moment (field-independent basis, Debye):
    X=              0.9961    Y=             -0.1273    Z=              0.2463  Tot=              1.0340
 Quadrupole moment (field-independent basis, Debye-Ang):
   XX=           -210.7219   YY=           -233.0559   ZZ=           -255.3033
   XY=              5.2867   XZ=              3.0246   YZ=              3.1595

 Normal termination of Gaussian 16 at Fri Jul 26 18:03:55 2019.
