 Gaussian 16, Revision A.03,
 Gaussian 16:  ES64L-G16RevA.03 25-Dec-2016

 ---------------------------------
 # td=(NStates=1) B3LYP/6-31G(d,p)
 ---------------------------------

 --
 TD
 --
 Symbolic Z-matrix:
 Charge =  0 Multiplicity = 1

                         Standard orientation:
 ---------------------------------------------------------------------
 Center     Atomic      Atomic             Coordinates (Angstroms)
 Number     Number       Type             X           Y           Z
 ---------------------------------------------------------------------
      1          6           0       12.195207    0.575801   -0.604014
      2          6           0      -12.047675    0.020214    0.960198
      3          6           0       13.533324   -0.301927   -0.482228
      4          6           0      -12.806371    1.279387    1.365061
      5          6           0       13.246309   -1.819557   -0.393013
      6          6           0      -13.315591    2.174921    0.295940
      7          6           0       11.054534   -0.051759    0.238098
      8          6           0      -10.934532    0.471392   -0.121074
      9          6           0       12.267759   -2.019542    0.805547
     10          6           0      -12.114919    2.644782   -0.451757
     11          6           0       11.132510   -1.248676    0.846850
     12          6           0      -11.052878    1.637117   -0.725708
     13          6           0       11.725306    0.497521   -2.089899
     14          6           0       12.591232    1.999945   -0.243243
     15          6           0      -13.032634   -0.975952    0.327870
     16          6           0      -11.348380   -0.584187    2.295162
     17          6           0        9.820790    0.893836    0.297919
     18          6           0       -9.992963   -0.661020   -0.277335
     19          6           0       10.088801   -1.669539    1.850979
     20          6           0      -10.057532    2.067990   -1.755754
     21          6           0        8.576233    0.492077    0.353624
     22          6           0       -8.675764   -0.459393   -0.280792
     23          6           0        7.375635    1.287555    0.479574
     24          6           0       -7.548858   -1.466098   -0.569149
     25          6           0        7.540649    2.854654    0.545277
     26          6           0       -8.012590   -2.885826   -0.778202
     27          6           0        6.179097    0.783299    0.430752
     28          6           0       -6.344145   -1.014251   -0.423843
     29          6           0        4.937260    1.460121    0.374671
     30          6           0       -5.116038   -1.706253   -0.472653
     31          6           0        3.748229    0.763780    0.068128
     32          6           0       -3.832641   -1.252610   -0.378947
     33          6           0        2.339998    1.306326    0.053563
     34          6           0       -2.479033   -1.835185   -0.488680
     35          6           0        2.203977    2.826057    0.308858
     36          6           0       -2.580878   -3.259779   -0.613360
     37          6           0        1.170002    0.536616   -0.018907
     38          6           0       -1.381565   -1.143904   -0.170257
     39          6           0        1.163794   -0.905540   -0.240697
     40          6           0       -0.026894   -1.600443   -0.371814
     41          1           0       14.081191   -0.098758    0.524856
     42          1           0       14.141333   -0.175056   -1.221218
     43          1           0      -12.268980    2.012446    2.148718
     44          1           0      -13.647103    0.934023    1.912383
     45          1           0       14.077271   -2.349096   -0.379884
     46          1           0       12.753264   -2.089387   -1.372495
     47          1           0      -13.877157    3.191571    0.475582
     48          1           0      -14.006280    1.605877   -0.423061
     49          1           0       12.818688   -1.980944    1.664006
     50          1           0       12.124325   -3.196123    0.849592
     51          1           0      -11.598303    3.516877   -0.055734
     52          1           0      -12.521280    3.250393   -1.353239
     53          1           0       11.757150   -0.603537   -2.350195
     54          1           0       12.533928    1.175792   -2.586957
     55          1           0       10.827969    0.953368   -2.326869
     56          1           0       12.859774    1.829272    0.749723
     57          1           0       11.843908    2.887691   -0.328097
     58          1           0       13.544543    2.283564   -1.049609
     59          1           0      -13.469817   -0.640003   -0.356342
     60          1           0      -13.620878   -1.428177    1.172141
     61          1           0      -12.425008   -1.979679   -0.108838
     62          1           0      -10.582140   -0.029572    2.496291
     63          1           0      -11.094150   -1.606844    1.957778
     64          1           0      -12.230167   -0.659545    3.092633
     65          1           0       10.056547    1.906755    0.444182
     66          1           0      -10.510968   -1.715859   -0.494729
     67          1           0        9.130971   -1.052708    2.225609
     68          1           0       10.639263   -2.099431    2.746770
     69          1           0        9.614266   -2.612225    1.584498
     70          1           0       -9.610836    1.094052   -2.344999
     71          1           0       -9.133930    2.500386   -1.277178
     72          1           0      -10.444632    2.606055   -2.557963
     73          1           0        8.393820   -0.551148    0.193019
     74          1           0       -8.221792    0.411613    0.319829
     75          1           0        8.203329    3.254589    1.376644
     76          1           0        6.670676    3.410945    0.471367
     77          1           0        8.041669    3.274525   -0.502269
     78          1           0       -8.760796   -2.945465   -1.649974
     79          1           0       -8.739347   -3.190620    0.072726
     80          1           0       -7.121557   -3.597611   -0.743858
     81          1           0        5.913016   -0.370810    0.532035
     82          1           0       -6.285451    0.059572   -0.284452
     83          1           0        4.848601    2.596879    0.482094
     84          1           0       -4.980523   -2.863636   -0.593996
     85          1           0        3.902548   -0.246946   -0.059999
     86          1           0       -3.969829   -0.208197   -0.335629
     87          1           0        2.781685    2.935302    1.183070
     88          1           0        0.924347    3.131550    0.347826
     89          1           0        2.506812    3.503911   -0.478878
     90          1           0       -2.742669   -3.565146   -1.778711
     91          1           0       -3.403793   -3.776446    0.065408
     92          1           0       -1.589582   -3.767683   -0.411604
     93          1           0        0.200749    0.954753   -0.194176
     94          1           0       -1.600878   -0.078394   -0.209060
     95          1           0        2.048702   -1.333735   -0.515450
     96          1           0        0.084907   -2.740690   -0.423787
 ---------------------------------------------------------------------

 SCF Done:  E(RB3LYP) =  -1557.51812981     A.U. after   14 cycles

 Excitation energies and oscillator strengths:

 Excited State   1:      Singlet-A      2.4494 eV  506.19 nm  f=2.7783  <S**2>=0.000
     148 ->149         0.70518
 This state for optimization and/or second-order correction.
 Total Energy, E(TD-HF/TD-DFT) =  -1557.42811728
 Copying the excited state density for this state as the 1-particle RhoCI density.

 The electronic state is 1-A.
 Alpha  occ. eigenvalues --  -10.21197 -10.20098 -10.19993 -10.19981 -10.19974
 Alpha  occ. eigenvalues --  -10.19918 -10.19792 -10.19783 -10.19741 -10.19678
 Alpha  occ. eigenvalues --  -10.19637 -10.19590 -10.19518 -10.19455 -10.19220
 Alpha  occ. eigenvalues --  -10.19189 -10.19136 -10.19064 -10.18922 -10.18767
 Alpha  occ. eigenvalues --  -10.18728 -10.18682 -10.18655 -10.18644 -10.18620
 Alpha  occ. eigenvalues --  -10.18587 -10.18153 -10.18136 -10.18047 -10.17955
 Alpha  occ. eigenvalues --  -10.17918 -10.17853 -10.17716 -10.17616 -10.17588
 Alpha  occ. eigenvalues --  -10.17400 -10.17301 -10.17212 -10.17146 -10.17063
 Alpha  occ. eigenvalues --   -0.85435  -0.85047  -0.84026  -0.83411  -0.82556
 Alpha  occ. eigenvalues --   -0.81118  -0.79312  -0.78752  -0.78410  -0.78058
 Alpha  occ. eigenvalues --   -0.76923  -0.75383  -0.74485  -0.72495  -0.71991
 Alpha  occ. eigenvalues --   -0.69888  -0.69166  -0.68427  -0.68087  -0.67727
 Alpha  occ. eigenvalues --   -0.67570  -0.67242  -0.67002  -0.66860  -0.66275
 Alpha  occ. eigenvalues --   -0.62796  -0.61757  -0.60193  -0.59338  -0.57397
 Alpha  occ. eigenvalues --   -0.56895  -0.55562  -0.55259  -0.53368  -0.52669
 Alpha  occ. eigenvalues --   -0.52486  -0.52304  -0.50702  -0.49949  -0.48938
 Alpha  occ. eigenvalues --   -0.48414  -0.48122  -0.47615  -0.47024  -0.46545
 Alpha  occ. eigenvalues --   -0.46292  -0.45654  -0.45197  -0.44724  -0.44480
 Alpha  occ. eigenvalues --   -0.43908  -0.43313  -0.42869  -0.42654  -0.42379
 Alpha  occ. eigenvalues --   -0.42210  -0.41704  -0.41486  -0.41387  -0.40617
 Alpha  occ. eigenvalues --   -0.40483  -0.40334  -0.39935  -0.39738  -0.39422
 Alpha  occ. eigenvalues --   -0.39110  -0.38952  -0.38488  -0.38340  -0.38133
 Alpha  occ. eigenvalues --   -0.38002  -0.37772  -0.37564  -0.37353  -0.36651
 Alpha  occ. eigenvalues --   -0.36268  -0.35920  -0.35445  -0.35357  -0.35145
 Alpha  occ. eigenvalues --   -0.34933  -0.34524  -0.34075  -0.33982  -0.33672
 Alpha  occ. eigenvalues --   -0.33526  -0.32938  -0.32916  -0.32709  -0.32011
 Alpha  occ. eigenvalues --   -0.31769  -0.31746  -0.31200  -0.30745  -0.30722
 Alpha  occ. eigenvalues --   -0.30683  -0.30063  -0.29860  -0.29410  -0.28874
 Alpha  occ. eigenvalues --   -0.28500  -0.27194  -0.25258  -0.24119  -0.22951
 Alpha  occ. eigenvalues --   -0.21481  -0.19744  -0.17348
 Alpha virt. eigenvalues --   -0.07795  -0.04936  -0.01623   0.00532   0.02520
 Alpha virt. eigenvalues --    0.04162   0.05791   0.06353   0.06780   0.06992
 Alpha virt. eigenvalues --    0.07273   0.07943   0.08104   0.08470   0.08758

 Mulliken charges:
               1
     1  C   -0.021595
     2  C   -0.027827
     3  C   -0.159806
     4  C   -0.159376
     5  C   -0.192043
     6  C   -0.179330
     7  C    0.031190
     8  C    0.052600
     9  C   -0.255154
    10  C   -0.221804
    11  C    0.139722
    12  C    0.086405
    13  C   -0.277900
    14  C   -0.278835
    15  C   -0.249282
    16  C   -0.283591
    17  C   -0.108802
    18  C   -0.136563
    19  C   -0.380135
    20  C   -0.363256
    21  C   -0.091173
    22  C   -0.104995
    23  C    0.126638
    24  C    0.163542
    25  C   -0.366783
    26  C   -0.377558
    27  C   -0.129529
    28  C   -0.138660
    29  C   -0.075265
    30  C   -0.072041
    31  C   -0.105978
    32  C   -0.124130
    33  C    0.072365
    34  C    0.162246
    35  C   -0.351000
    36  C   -0.382391
    37  C   -0.114828
    38  C   -0.104372
    39  C   -0.069775
    40  C   -0.118564
    41  H    0.071685
    42  H    0.092452
    43  H    0.069050
    44  H    0.082014
    45  H    0.096442
    46  H    0.087791
    47  H    0.080327
    48  H    0.087761
    49  H    0.125228
    50  H    0.073250
    51  H    0.111694
    52  H    0.079464
    53  H    0.094167
    54  H    0.070883
    55  H    0.116651
    56  H    0.117038
    57  H    0.092405
    58  H    0.064503
    59  H    0.107691
    60  H    0.096007
    61  H    0.052710
    62  H    0.121251
    63  H    0.098824
    64  H    0.081407
    65  H    0.081272
    66  H    0.082452
    67  H    0.114634
    68  H    0.093449
    69  H    0.111112
    70  H    0.091159
    71  H    0.114753
    72  H    0.111104
    73  H    0.085424
    74  H    0.082196
    75  H    0.117295
    76  H    0.118801
    77  H    0.083244
    78  H    0.118303
    79  H    0.111685
    80  H    0.111191
    81  H    0.073775
    82  H    0.078937
    83  H    0.080074
    84  H    0.051043
    85  H    0.073226
    86  H    0.052217
    87  H    0.133083
    88  H    0.063539
    89  H    0.126049
    90  H    0.103159
    91  H    0.116488
    92  H    0.101050
    93  H    0.089221
    94  H    0.083460
    95  H    0.088138
    96  H    0.075406
 Sum of Mulliken charges =  -0.00000

 Dipole moment (field-independent basis, Debye):
    X=              0.4993    Y=              0.0434    Z=              0.0606  Tot=              0.5049
 Quadrupole moment (field-independent basis, Debye-Ang):
   XX=           -212.7844   YY=           -234.9706   ZZ=           -257.1926
   XY=             -6.7298   XZ=              5.3401   YZ=             -0.3143

 Normal termination of Gaussian 16 at Sat Jul 27 03:35:06 2019.
