 Gaussian 16, Revision A.03,
 Gaussian 16:  ES64L-G16RevA.03 25-Dec-2016

 ---------------------------------
 # td=(NStates=1) B3LYP/6-31G(d,p)
 ---------------------------------

 --
 TD
 --
 Symbolic Z-matrix:
 Charge =  0 Multiplicity = 1

                         Standard orientation:
 ---------------------------------------------------------------------
 Center     Atomic      Atomic             Coordinates (Angstroms)
 Number     Number       Type             X           Y           Z
 ---------------------------------------------------------------------
      1          6           0      -12.162779    0.550339    0.695086
      2          6           0       12.125852   -0.064206   -0.784271
      3          6           0      -13.402152   -0.339766    0.657478
      4          6           0       13.109714    1.149100   -1.167489
      5          6           0      -13.152973   -1.803137    0.624705
      6          6           0       13.379365    2.032415   -0.045467
      7          6           0      -11.047900    0.043013   -0.191703
      8          6           0       11.027415    0.446225    0.150466
      9          6           0      -12.250247   -2.183397   -0.580229
     10          6           0       12.136689    2.679952    0.451088
     11          6           0      -11.213714   -1.161595   -0.826102
     12          6           0       11.048294    1.686331    0.731332
     13          6           0      -11.708138    0.627357    2.300759
     14          6           0      -12.492202    2.051850    0.246109
     15          6           0       12.981327   -1.084792   -0.031369
     16          6           0       11.656390   -0.732733   -2.053393
     17          6           0       -9.880778    0.870731   -0.411761
     18          6           0        9.894061   -0.560298    0.348999
     19          6           0      -10.176310   -1.685292   -1.813127
     20          6           0        9.949649    2.064678    1.748085
     21          6           0       -8.624349    0.432500   -0.365498
     22          6           0        8.577912   -0.261453    0.151977
     23          6           0       -7.412519    1.227545   -0.587243
     24          6           0        7.531465   -1.267648    0.286943
     25          6           0       -7.635982    2.697939   -0.973564
     26          6           0        7.916583   -2.690559    0.553045
     27          6           0       -6.129080    0.686493   -0.319541
     28          6           0        6.256395   -0.910553    0.191973
     29          6           0       -4.901682    1.405788   -0.377285
     30          6           0        5.065176   -1.670799    0.267833
     31          6           0       -3.739586    0.691045   -0.138752
     32          6           0        3.787558   -1.187825    0.246797
     33          6           0       -2.388324    1.312608   -0.168116
     34          6           0        2.465490   -1.808627    0.397985
     35          6           0       -2.219603    2.793840   -0.345536
     36          6           0        2.537999   -3.305234    0.700201
     37          6           0       -1.299358    0.557748   -0.104404
     38          6           0        1.366795   -1.138002    0.192329
     39          6           0       -1.138832   -0.841762    0.092103
     40          6           0       -0.073615   -1.612986    0.215121
     41          1           0      -14.020879    0.135372   -0.123053
     42          1           0      -14.184356   -0.141756    1.589901
     43          1           0       12.571240    1.736154   -1.846233
     44          1           0       14.112875    0.705143   -1.561034
     45          1           0      -14.183027   -2.361735    0.607707
     46          1           0      -12.676382   -2.172736    1.477388
     47          1           0       14.213950    2.696906   -0.442503
     48          1           0       13.950666    1.406403    0.717961
     49          1           0      -12.952858   -2.180615   -1.499163
     50          1           0      -12.000432   -3.194325   -0.408086
     51          1           0       12.004671    3.360645   -0.355034
     52          1           0       12.185737    3.278508    1.289881
     53          1           0      -11.561705   -0.434926    2.590550
     54          1           0      -12.610533    0.990823    2.881940
     55          1           0      -10.782147    1.389935    2.448053
     56          1           0      -12.888577    2.017337   -0.827155
     57          1           0      -11.661487    2.708758    0.460803
     58          1           0      -13.240224    2.325618    1.053485
     59          1           0       13.813329   -0.781583    0.660500
     60          1           0       13.655857   -1.588078   -0.798145
     61          1           0       12.271980   -1.708364    0.640995
     62          1           0       10.999603   -0.301247   -2.595198
     63          1           0       11.330812   -1.864494   -1.829371
     64          1           0       12.537336   -0.813484   -2.868855
     65          1           0       -9.958131    1.976885   -0.762059
     66          1           0       10.051005   -1.847004    0.253447
     67          1           0       -9.458809   -0.972594   -2.316319
     68          1           0      -10.733029   -2.023101   -2.705294
     69          1           0       -9.269878   -2.289132   -1.575746
     70          1           0        9.545490    1.112994    2.336465
     71          1           0        9.527945    2.858820    1.227739
     72          1           0       10.403017    2.605576    2.581384
     73          1           0       -8.517154   -0.623186   -0.226582
     74          1           0        8.271929    0.691251   -0.030489
     75          1           0       -7.791545    2.877208   -2.186412
     76          1           0       -6.736979    3.423041   -0.618899
     77          1           0       -8.577902    3.118850   -0.282408
     78          1           0        8.438482   -2.728264    1.631786
     79          1           0        8.509881   -3.185403   -0.105644
     80          1           0        6.983617   -3.119374    0.722694
     81          1           0       -6.224724   -0.336727   -0.176425
     82          1           0        5.931809    0.134886   -0.116173
     83          1           0       -4.814646    2.476840   -0.891402
     84          1           0        5.226113   -2.839680    0.377348
     85          1           0       -3.623903   -0.361565    0.271186
     86          1           0        3.962139    0.001827    0.016971
     87          1           0       -2.939844    3.378850   -1.146621
     88          1           0       -1.093773    3.036383   -0.571108
     89          1           0       -2.789723    3.221862    0.425010
     90          1           0        3.100328   -3.327750    1.558433
     91          1           0        3.087474   -3.831570    0.013587
     92          1           0        1.465548   -3.830236    0.977085
     93          1           0       -0.327641    1.092627   -0.181868
     94          1           0        1.279664   -0.017366    0.115045
     95          1           0       -2.187656   -1.393880    0.022661
     96          1           0       -0.208567   -2.670327    0.303894
 ---------------------------------------------------------------------

 SCF Done:  E(RB3LYP) =  -1557.56240984     A.U. after   14 cycles

 Excitation energies and oscillator strengths:

 Excited State   1:      Singlet-A      2.4831 eV  499.31 nm  f=2.6608  <S**2>=0.000
     148 ->149         0.70498
 This state for optimization and/or second-order correction.
 Total Energy, E(TD-HF/TD-DFT) =  -1557.47115663
 Copying the excited state density for this state as the 1-particle RhoCI density.

 The electronic state is 1-A.
 Alpha  occ. eigenvalues --  -10.21926 -10.20820 -10.20645 -10.20452 -10.20347
 Alpha  occ. eigenvalues --  -10.20282 -10.20137 -10.20119 -10.20043 -10.20017
 Alpha  occ. eigenvalues --  -10.19719 -10.19554 -10.19506 -10.19376 -10.19310
 Alpha  occ. eigenvalues --  -10.19257 -10.19127 -10.19029 -10.19025 -10.18948
 Alpha  occ. eigenvalues --  -10.18910 -10.18609 -10.18591 -10.18570 -10.18540
 Alpha  occ. eigenvalues --  -10.18467 -10.18390 -10.18374 -10.18157 -10.18130
 Alpha  occ. eigenvalues --  -10.18121 -10.18114 -10.17703 -10.17702 -10.17669
 Alpha  occ. eigenvalues --  -10.17617 -10.17459 -10.17459 -10.17390 -10.17269
 Alpha  occ. eigenvalues --   -0.85195  -0.84941  -0.83968  -0.83544  -0.82351
 Alpha  occ. eigenvalues --   -0.81612  -0.79057  -0.78686  -0.78037  -0.77391
 Alpha  occ. eigenvalues --   -0.77315  -0.75637  -0.74804  -0.72368  -0.71395
 Alpha  occ. eigenvalues --   -0.70440  -0.68854  -0.68223  -0.68101  -0.67623
 Alpha  occ. eigenvalues --   -0.67485  -0.67073  -0.66785  -0.66676  -0.65851
 Alpha  occ. eigenvalues --   -0.62399  -0.61598  -0.59661  -0.58730  -0.57218
 Alpha  occ. eigenvalues --   -0.56448  -0.55986  -0.55245  -0.53881  -0.52410
 Alpha  occ. eigenvalues --   -0.52073  -0.51620  -0.50546  -0.50344  -0.49255
 Alpha  occ. eigenvalues --   -0.48668  -0.47779  -0.46773  -0.46731  -0.46174
 Alpha  occ. eigenvalues --   -0.45783  -0.45614  -0.45328  -0.45005  -0.44082
 Alpha  occ. eigenvalues --   -0.43587  -0.43221  -0.43064  -0.42678  -0.42409
 Alpha  occ. eigenvalues --   -0.42356  -0.42079  -0.41137  -0.41042  -0.40724
 Alpha  occ. eigenvalues --   -0.40306  -0.40085  -0.39768  -0.39437  -0.39062
 Alpha  occ. eigenvalues --   -0.39024  -0.38684  -0.38571  -0.38106  -0.37726
 Alpha  occ. eigenvalues --   -0.37517  -0.37272  -0.36859  -0.36753  -0.36474
 Alpha  occ. eigenvalues --   -0.36419  -0.36071  -0.35649  -0.35541  -0.35256
 Alpha  occ. eigenvalues --   -0.34764  -0.34602  -0.34003  -0.33823  -0.33642
 Alpha  occ. eigenvalues --   -0.33532  -0.33483  -0.33270  -0.32916  -0.32428
 Alpha  occ. eigenvalues --   -0.32238  -0.31531  -0.31207  -0.31038  -0.30684
 Alpha  occ. eigenvalues --   -0.30422  -0.29732  -0.29674  -0.29195  -0.28139
 Alpha  occ. eigenvalues --   -0.27649  -0.27514  -0.26712  -0.24085  -0.22645
 Alpha  occ. eigenvalues --   -0.21492  -0.19022  -0.17494
 Alpha virt. eigenvalues --   -0.07614  -0.05358  -0.01736   0.00715   0.02290
 Alpha virt. eigenvalues --    0.04155   0.05590   0.05798   0.06789   0.06804
 Alpha virt. eigenvalues --    0.07517   0.07624   0.07775   0.08176   0.08591

 Mulliken charges:
               1
     1  C   -0.023903
     2  C    0.016720
     3  C   -0.161208
     4  C   -0.167578
     5  C   -0.191512
     6  C   -0.183893
     7  C    0.093501
     8  C    0.062405
     9  C   -0.216105
    10  C   -0.205991
    11  C    0.066474
    12  C    0.032242
    13  C   -0.299844
    14  C   -0.307407
    15  C   -0.299658
    16  C   -0.276806
    17  C   -0.129508
    18  C   -0.159698
    19  C   -0.381570
    20  C   -0.364544
    21  C   -0.078083
    22  C   -0.046375
    23  C    0.099867
    24  C    0.114617
    25  C   -0.358038
    26  C   -0.372841
    27  C   -0.096672
    28  C   -0.123493
    29  C   -0.103312
    30  C   -0.068418
    31  C   -0.098730
    32  C   -0.124695
    33  C    0.141080
    34  C    0.120170
    35  C   -0.372900
    36  C   -0.366440
    37  C   -0.128240
    38  C   -0.122068
    39  C   -0.076195
    40  C   -0.097700
    41  H    0.092876
    42  H    0.054167
    43  H    0.090798
    44  H    0.074795
    45  H    0.076074
    46  H    0.111725
    47  H    0.078449
    48  H    0.084187
    49  H    0.095359
    50  H    0.115024
    51  H    0.111519
    52  H    0.100299
    53  H    0.103923
    54  H    0.096250
    55  H    0.086045
    56  H    0.099262
    57  H    0.109981
    58  H    0.092551
    59  H    0.093050
    60  H    0.090597
    61  H    0.095998
    62  H    0.115491
    63  H    0.077309
    64  H    0.068708
    65  H    0.085281
    66  H    0.062937
    67  H    0.105348
    68  H    0.098122
    69  H    0.110901
    70  H    0.128582
    71  H    0.130295
    72  H    0.098892
    73  H    0.076575
    74  H    0.078134
    75  H    0.106761
    76  H    0.091032
    77  H    0.095743
    78  H    0.099868
    79  H    0.136147
    80  H    0.107808
    81  H    0.080463
    82  H    0.067790
    83  H    0.094014
    84  H    0.061155
    85  H    0.090171
    86  H    0.056371
    87  H    0.083393
    88  H    0.109132
    89  H    0.139120
    90  H    0.137902
    91  H    0.134992
    92  H    0.088288
    93  H    0.068114
    94  H    0.076506
    95  H    0.064233
    96  H    0.077843
 Sum of Mulliken charges =  -0.00000

 Dipole moment (field-independent basis, Debye):
    X=              0.1545    Y=              0.3808    Z=             -0.1984  Tot=              0.4564
 Quadrupole moment (field-independent basis, Debye-Ang):
   XX=           -234.2328   YY=           -235.1500   ZZ=           -255.9971
   XY=              9.6276   XZ=              0.1230   YZ=             -3.4914

 Normal termination of Gaussian 16 at Sat Jul 27 13:57:44 2019.
