 Gaussian 16, Revision A.03,
 Gaussian 16:  ES64L-G16RevA.03 25-Dec-2016

 ---------------------------------
 # td=(NStates=1) B3LYP/6-31G(d,p)
 ---------------------------------

 --
 TD
 --
 Symbolic Z-matrix:
 Charge =  0 Multiplicity = 1

                         Standard orientation:
 ---------------------------------------------------------------------
 Center     Atomic      Atomic             Coordinates (Angstroms)
 Number     Number       Type             X           Y           Z
 ---------------------------------------------------------------------
      1          6           0       12.149523    0.564820   -0.677069
      2          6           0      -12.083475   -0.106345    0.869238
      3          6           0       13.475102   -0.219958   -0.466779
      4          6           0      -13.104663    1.133279    1.311940
      5          6           0       13.293468   -1.674430   -0.405818
      6          6           0      -13.397318    2.070948    0.100373
      7          6           0       11.051301    0.002313    0.125989
      8          6           0      -10.955438    0.490240    0.049821
      9          6           0       12.376677   -2.030861    0.746767
     10          6           0      -12.146596    2.742067   -0.505696
     11          6           0       11.140782   -1.217308    0.878762
     12          6           0      -10.945059    1.743831   -0.627900
     13          6           0       11.785533    0.543035   -2.163762
     14          6           0       12.411758    2.108946   -0.319396
     15          6           0      -12.902999   -1.115463   -0.024653
     16          6           0      -11.452403   -0.688616    2.009194
     17          6           0        9.911347    0.926952    0.314554
     18          6           0       -9.826325   -0.421426   -0.152538
     19          6           0       10.135125   -1.700133    1.766983
     20          6           0       -9.962425    2.314734   -1.653827
     21          6           0        8.582613    0.508308    0.238520
     22          6           0       -8.484190   -0.244963   -0.138566
     23          6           0        7.419147    1.356701    0.417053
     24          6           0       -7.538681   -1.336087   -0.214858
     25          6           0        7.465858    2.857419    0.712991
     26          6           0       -8.073321   -2.716659   -0.712462
     27          6           0        6.136174    0.728504    0.285105
     28          6           0       -6.200245   -0.997598   -0.361873
     29          6           0        4.859401    1.321025    0.358187
     30          6           0       -5.019603   -1.782955   -0.493729
     31          6           0        3.653362    0.594982    0.166595
     32          6           0       -3.796904   -1.186693   -0.265106
     33          6           0        2.301632    1.223246    0.155884
     34          6           0       -2.509531   -1.876399   -0.498152
     35          6           0        2.160963    2.648368    0.540234
     36          6           0       -2.615494   -3.344800   -0.767879
     37          6           0        1.133786    0.488894    0.122353
     38          6           0       -1.345051   -1.201550   -0.237920
     39          6           0        1.147209   -1.025833   -0.012061
     40          6           0        0.034488   -1.802295   -0.294951
     41          1           0       13.873860    0.137037    0.334655
     42          1           0       14.108469    0.073721   -1.246806
     43          1           0      -12.660374    1.501419    2.154628
     44          1           0      -14.115894    0.508487    1.615930
     45          1           0       14.419398   -2.338699   -0.372326
     46          1           0       12.836837   -1.930674   -1.441309
     47          1           0      -14.191192    2.859924    0.412539
     48          1           0      -14.044194    1.543339   -0.682676
     49          1           0       12.949132   -1.863460    1.813850
     50          1           0       12.102114   -3.183043    0.552250
     51          1           0      -11.885457    3.620591    0.011020
     52          1           0      -12.342683    3.182148   -1.581950
     53          1           0       11.623801   -0.430308   -2.700623
     54          1           0       12.591353    1.033803   -2.704546
     55          1           0       10.724512    0.955199   -2.578746
     56          1           0       12.885255    2.120242    0.805466
     57          1           0       11.650435    2.774709   -0.480500
     58          1           0       13.299457    2.398360   -1.065006
     59          1           0      -13.187423   -0.885927   -1.002620
     60          1           0      -13.742438   -1.440473    0.600974
     61          1           0      -12.167776   -2.143113   -0.220203
     62          1           0      -10.739335   -0.056134    2.551596
     63          1           0      -11.005127   -1.569091    1.812084
     64          1           0      -12.273619   -0.736189    2.698148
     65          1           0       10.014171    1.983790    0.373710
     66          1           0      -10.131262   -1.607975   -0.078748
     67          1           0        9.377471   -1.135735    2.101563
     68          1           0       10.646320   -1.832909    2.773437
     69          1           0        9.707127   -2.930687    1.694657
     70          1           0       -8.997143    1.735631   -1.875478
     71          1           0       -9.629714    3.455598   -1.256433
     72          1           0      -10.724760    2.259355   -2.602196
     73          1           0        8.348881   -0.427307   -0.052820
     74          1           0       -8.249463    0.811208    0.077758
     75          1           0        8.219149    2.914010    1.645761
     76          1           0        6.528586    3.214734    0.936189
     77          1           0        8.098445    3.437809   -0.181192
     78          1           0       -8.837163   -2.544084   -1.497784
     79          1           0       -8.492565   -3.260533    0.237241
     80          1           0       -7.166262   -3.436377   -0.830029
     81          1           0        6.298693   -0.325393   -0.211471
     82          1           0       -6.002295   -0.050270   -0.308215
     83          1           0        4.774054    2.352272    0.550917
     84          1           0       -5.258891   -2.815508   -0.804987
     85          1           0        3.808969   -0.323973   -0.101001
     86          1           0       -3.830361   -0.102544   -0.033273
     87          1           0        2.777365    2.787706    1.457476
     88          1           0        0.960759    3.023689    0.820427
     89          1           0        2.494669    3.202492   -0.200015
     90          1           0       -3.399695   -3.504883   -1.612305
     91          1           0       -2.928435   -3.974696    0.021943
     92          1           0       -1.651022   -3.832884   -1.151809
     93          1           0        0.230589    1.042525    0.248223
     94          1           0       -1.438990   -0.170015    0.120614
     95          1           0        2.147021   -1.413459   -0.086286
     96          1           0        0.003470   -2.732909   -0.514996
 ---------------------------------------------------------------------

 SCF Done:  E(RB3LYP) =  -1557.52416283     A.U. after   15 cycles

 Excitation energies and oscillator strengths:

 Excited State   1:      Singlet-A      2.1252 eV  583.41 nm  f=2.3479  <S**2>=0.000
     148 ->149         0.70213
 This state for optimization and/or second-order correction.
 Total Energy, E(TD-HF/TD-DFT) =  -1557.44606453
 Copying the excited state density for this state as the 1-particle RhoCI density.

 The electronic state is 1-A.
 Alpha  occ. eigenvalues --  -10.21077 -10.20608 -10.20462 -10.20457 -10.20403
 Alpha  occ. eigenvalues --  -10.20153 -10.20034 -10.20030 -10.19995 -10.19898
 Alpha  occ. eigenvalues --  -10.19884 -10.19786 -10.19724 -10.19663 -10.19642
 Alpha  occ. eigenvalues --  -10.19595 -10.19519 -10.19352 -10.19316 -10.19272
 Alpha  occ. eigenvalues --  -10.19260 -10.18956 -10.18894 -10.18845 -10.18835
 Alpha  occ. eigenvalues --  -10.18798 -10.18772 -10.18726 -10.18704 -10.18626
 Alpha  occ. eigenvalues --  -10.18618 -10.18602 -10.18560 -10.18393 -10.18340
 Alpha  occ. eigenvalues --  -10.17973 -10.17942 -10.16699 -10.15732 -10.15283
 Alpha  occ. eigenvalues --   -0.85780  -0.84391  -0.82908  -0.82545  -0.81430
 Alpha  occ. eigenvalues --   -0.80823  -0.79143  -0.78292  -0.78172  -0.77515
 Alpha  occ. eigenvalues --   -0.76074  -0.75101  -0.73870  -0.72146  -0.71040
 Alpha  occ. eigenvalues --   -0.69495  -0.68787  -0.68632  -0.67804  -0.67694
 Alpha  occ. eigenvalues --   -0.67314  -0.67086  -0.66820  -0.66199  -0.65801
 Alpha  occ. eigenvalues --   -0.62735  -0.61138  -0.59211  -0.58929  -0.56948
 Alpha  occ. eigenvalues --   -0.56479  -0.55864  -0.55749  -0.54349  -0.53642
 Alpha  occ. eigenvalues --   -0.52656  -0.51896  -0.51215  -0.49964  -0.49231
 Alpha  occ. eigenvalues --   -0.48008  -0.47737  -0.47222  -0.46572  -0.45939
 Alpha  occ. eigenvalues --   -0.45352  -0.45010  -0.44672  -0.44254  -0.43757
 Alpha  occ. eigenvalues --   -0.43561  -0.43486  -0.43263  -0.42954  -0.42510
 Alpha  occ. eigenvalues --   -0.41935  -0.41789  -0.41368  -0.41184  -0.41046
 Alpha  occ. eigenvalues --   -0.40351  -0.39876  -0.39608  -0.39501  -0.39326
 Alpha  occ. eigenvalues --   -0.39214  -0.38735  -0.38691  -0.38272  -0.37483
 Alpha  occ. eigenvalues --   -0.37399  -0.37091  -0.36656  -0.36578  -0.36445
 Alpha  occ. eigenvalues --   -0.36344  -0.35929  -0.35797  -0.35630  -0.35322
 Alpha  occ. eigenvalues --   -0.35035  -0.34664  -0.34302  -0.33874  -0.33811
 Alpha  occ. eigenvalues --   -0.33677  -0.33237  -0.33174  -0.32940  -0.32321
 Alpha  occ. eigenvalues --   -0.32268  -0.32013  -0.31821  -0.31547  -0.31066
 Alpha  occ. eigenvalues --   -0.30977  -0.30415  -0.29594  -0.29088  -0.28890
 Alpha  occ. eigenvalues --   -0.28046  -0.27376  -0.26074  -0.23678  -0.22058
 Alpha  occ. eigenvalues --   -0.20489  -0.17810  -0.16248
 Alpha virt. eigenvalues --   -0.07859  -0.05695  -0.01981  -0.00229   0.01659
 Alpha virt. eigenvalues --    0.03635   0.05724   0.06026   0.06274   0.06802
 Alpha virt. eigenvalues --    0.06976   0.07313   0.07934   0.08312   0.08479

 Mulliken charges:
               1
     1  C   -0.039371
     2  C   -0.011271
     3  C   -0.143240
     4  C   -0.173679
     5  C   -0.169918
     6  C   -0.186246
     7  C    0.081363
     8  C    0.077518
     9  C   -0.205177
    10  C   -0.206378
    11  C    0.109020
    12  C    0.036295
    13  C   -0.294007
    14  C   -0.290648
    15  C   -0.282392
    16  C   -0.295913
    17  C   -0.141889
    18  C   -0.142988
    19  C   -0.354281
    20  C   -0.328127
    21  C   -0.084005
    22  C   -0.085615
    23  C    0.109136
    24  C    0.069728
    25  C   -0.352196
    26  C   -0.367062
    27  C   -0.135726
    28  C   -0.090063
    29  C   -0.091824
    30  C   -0.060134
    31  C   -0.081592
    32  C   -0.129836
    33  C    0.081597
    34  C    0.114798
    35  C   -0.356041
    36  C   -0.378079
    37  C   -0.106420
    38  C   -0.113135
    39  C   -0.100249
    40  C   -0.057865
    41  H    0.098681
    42  H    0.087793
    43  H    0.107846
    44  H    0.061685
    45  H    0.048937
    46  H    0.093338
    47  H    0.076655
    48  H    0.096985
    49  H    0.085699
    50  H    0.087881
    51  H    0.116926
    52  H    0.078720
    53  H    0.099126
    54  H    0.099707
    55  H    0.082755
    56  H    0.082843
    57  H    0.122234
    58  H    0.078882
    59  H    0.124896
    60  H    0.102132
    61  H    0.051760
    62  H    0.110124
    63  H    0.113996
    64  H    0.089641
    65  H    0.082901
    66  H    0.056424
    67  H    0.134868
    68  H    0.097681
    69  H    0.069063
    70  H    0.114264
    71  H    0.086561
    72  H    0.103817
    73  H    0.080340
    74  H    0.082291
    75  H    0.101752
    76  H    0.121435
    77  H    0.099348
    78  H    0.138891
    79  H    0.102806
    80  H    0.097378
    81  H    0.069900
    82  H    0.057231
    83  H    0.077745
    84  H    0.074454
    85  H    0.070102
    86  H    0.084780
    87  H    0.121547
    88  H    0.070996
    89  H    0.136341
    90  H    0.105091
    91  H    0.137756
    92  H    0.097835
    93  H    0.081169
    94  H    0.075562
    95  H    0.084247
    96  H    0.062088
 Sum of Mulliken charges =  -0.00000

 Dipole moment (field-independent basis, Debye):
    X=              0.7863    Y=              0.7591    Z=              0.0086  Tot=              1.0930
 Quadrupole moment (field-independent basis, Debye-Ang):
   XX=           -216.7301   YY=           -237.5376   ZZ=           -254.7543
   XY=              1.4993   XZ=             -0.4313   YZ=              2.4685

 Normal termination of Gaussian 16 at Tue Jul 30 01:44:24 2019.
