 Gaussian 16, Revision A.03,
 Gaussian 16:  ES64L-G16RevA.03 25-Dec-2016

 ---------------------------------
 # td=(NStates=1) B3LYP/6-31G(d,p)
 ---------------------------------

 --
 TD
 --
 Symbolic Z-matrix:
 Charge =  0 Multiplicity = 1

                         Standard orientation:
 ---------------------------------------------------------------------
 Center     Atomic      Atomic             Coordinates (Angstroms)
 Number     Number       Type             X           Y           Z
 ---------------------------------------------------------------------
      1          6           0      -12.102474   -0.513865   -0.756412
      2          6           0       12.045008    0.059530    0.931003
      3          6           0      -13.400834    0.411400   -0.562968
      4          6           0       12.908570   -1.179942    1.282511
      5          6           0      -13.041659    1.888978   -0.565704
      6          6           0       13.392246   -1.924731    0.031267
      7          6           0      -11.030553    0.042707    0.192544
      8          6           0       11.054457   -0.372124   -0.116948
      9          6           0      -12.236066    2.256078    0.653682
     10          6           0       12.297396   -2.556647   -0.819702
     11          6           0      -11.101266    1.212293    0.840296
     12          6           0       11.085198   -1.536372   -0.789769
     13          6           0      -11.591059   -0.542420   -2.267712
     14          6           0      -12.541791   -1.967628   -0.351172
     15          6           0       12.897307    1.154931    0.136370
     16          6           0       11.391853    0.572504    2.184166
     17          6           0       -9.812982   -0.857119    0.330094
     18          6           0        9.916024    0.627437   -0.281485
     19          6           0      -10.228298    1.759605    1.783422
     20          6           0       10.021611   -1.910547   -1.744541
     21          6           0       -8.501093   -0.522332    0.332376
     22          6           0        8.568827    0.321549   -0.166679
     23          6           0       -7.369616   -1.380660    0.491410
     24          6           0        7.469533    1.323403   -0.284008
     25          6           0       -7.659445   -2.806785    0.638386
     26          6           0        7.883495    2.784779   -0.395322
     27          6           0       -6.119598   -0.826037    0.277647
     28          6           0        6.181387    0.830019   -0.366917
     29          6           0       -4.825845   -1.589464    0.352320
     30          6           0        4.926228    1.613953   -0.451324
     31          6           0       -3.722412   -0.847482    0.348780
     32          6           0        3.719808    0.975546   -0.282074
     33          6           0       -2.287575   -1.363798    0.333469
     34          6           0        2.474764    1.784695   -0.416569
     35          6           0       -2.092170   -2.836443    0.764539
     36          6           0        2.544479    3.290530   -0.675562
     37          6           0       -1.168259   -0.626348    0.110008
     38          6           0        1.304029    1.012911   -0.258114
     39          6           0       -1.159086    0.868569   -0.158162
     40          6           0        0.005414    1.568261   -0.324460
     41          1           0      -13.902864    0.036545    0.454817
     42          1           0      -14.120377    0.204403   -1.362761
     43          1           0       12.241252   -1.852262    2.006508
     44          1           0       13.817453   -0.867944    1.918807
     45          1           0      -14.107859    2.512226   -0.387380
     46          1           0      -12.753363    2.313827   -1.470854
     47          1           0       14.077472   -2.653799    0.388658
     48          1           0       13.935043   -1.182373   -0.699560
     49          1           0      -12.712407    1.988419    1.545287
     50          1           0      -11.765844    3.322283    0.557670
     51          1           0       12.031630   -3.399697   -0.388095
     52          1           0       12.446406   -2.897759   -1.751481
     53          1           0      -11.195117    0.399439   -2.699284
     54          1           0      -12.405143   -0.853223   -2.905399
     55          1           0      -10.834891   -1.324842   -2.441954
     56          1           0      -12.605052   -1.750148    0.828010
     57          1           0      -11.825348   -2.881565   -0.536775
     58          1           0      -13.545819   -2.339407   -0.848942
     59          1           0       13.558133    0.503762   -0.507390
     60          1           0       13.419307    1.991874    0.759178
     61          1           0       12.132939    1.671558   -0.407827
     62          1           0       10.536368   -0.077550    2.682015
     63          1           0       10.966763    1.540702    1.820133
     64          1           0       12.227254    0.667638    2.838823
     65          1           0      -10.077542   -1.989187    0.584418
     66          1           0       10.242583    1.611747   -0.295380
     67          1           0       -9.785598    0.928439    2.324657
     68          1           0      -10.699499    2.434922    2.497647
     69          1           0       -9.510065    2.524705    1.446344
     70          1           0        9.332650   -1.016125   -2.097547
     71          1           0        9.484705   -2.574557   -1.199208
     72          1           0       10.659358   -2.263331   -2.536879
     73          1           0       -8.278708    0.719226    0.119159
     74          1           0        8.398290   -0.833532   -0.206989
     75          1           0       -8.450407   -3.068113    1.475762
     76          1           0       -6.775668   -3.327598    0.826097
     77          1           0       -8.233961   -3.235867   -0.242835
     78          1           0        8.741350    2.984915   -1.125034
     79          1           0        8.298293    3.274331    0.525175
     80          1           0        6.974327    3.440549   -0.826778
     81          1           0       -6.078854    0.207416    0.202139
     82          1           0        6.036682   -0.271906   -0.120080
     83          1           0       -4.956028   -2.530829    0.458855
     84          1           0        4.740310    2.733459   -0.756612
     85          1           0       -3.818426    0.236218    0.149087
     86          1           0        3.551048   -0.008850   -0.079806
     87          1           0       -2.947811   -2.957026    1.613026
     88          1           0       -1.173958   -3.092204    1.156125
     89          1           0       -2.358296   -3.644205   -0.222174
     90          1           0        3.105420    3.457057   -1.777950
     91          1           0        2.943542    3.837098    0.127992
     92          1           0        1.417730    3.573845   -0.863579
     93          1           0       -0.159468   -1.125535    0.158210
     94          1           0        1.404553   -0.192109    0.084912
     95          1           0       -2.161000    1.306585   -0.109891
     96          1           0       -0.054812    2.594764   -0.553189
 ---------------------------------------------------------------------

 SCF Done:  E(RB3LYP) =  -1557.59245686     A.U. after   14 cycles

 Excitation energies and oscillator strengths:

 Excited State   1:      Singlet-A      2.4752 eV  500.91 nm  f=2.6713  <S**2>=0.000
     148 ->149         0.69917
 This state for optimization and/or second-order correction.
 Total Energy, E(TD-HF/TD-DFT) =  -1557.50149595
 Copying the excited state density for this state as the 1-particle RhoCI density.

 The electronic state is 1-A.
 Alpha  occ. eigenvalues --  -10.21143 -10.20808 -10.20724 -10.20686 -10.20541
 Alpha  occ. eigenvalues --  -10.20491 -10.20451 -10.20164 -10.19942 -10.19894
 Alpha  occ. eigenvalues --  -10.19853 -10.19691 -10.19606 -10.19555 -10.19481
 Alpha  occ. eigenvalues --  -10.19443 -10.19419 -10.19031 -10.18950 -10.18941
 Alpha  occ. eigenvalues --  -10.18923 -10.18731 -10.18684 -10.18663 -10.18421
 Alpha  occ. eigenvalues --  -10.18366 -10.18350 -10.18305 -10.18291 -10.18270
 Alpha  occ. eigenvalues --  -10.18125 -10.18047 -10.17873 -10.17871 -10.17370
 Alpha  occ. eigenvalues --  -10.17330 -10.17016 -10.16673 -10.16439 -10.16326
 Alpha  occ. eigenvalues --   -0.84876  -0.84712  -0.83192  -0.82728  -0.81323
 Alpha  occ. eigenvalues --   -0.80589  -0.78818  -0.78527  -0.78479  -0.76984
 Alpha  occ. eigenvalues --   -0.76416  -0.75424  -0.73631  -0.71942  -0.71305
 Alpha  occ. eigenvalues --   -0.69092  -0.68484  -0.68062  -0.67939  -0.67738
 Alpha  occ. eigenvalues --   -0.67455  -0.66943  -0.66643  -0.65907  -0.65581
 Alpha  occ. eigenvalues --   -0.62030  -0.61156  -0.59193  -0.58929  -0.57245
 Alpha  occ. eigenvalues --   -0.56544  -0.55545  -0.54941  -0.54175  -0.53361
 Alpha  occ. eigenvalues --   -0.52316  -0.51488  -0.49776  -0.49534  -0.48197
 Alpha  occ. eigenvalues --   -0.47858  -0.47280  -0.46997  -0.46275  -0.45969
 Alpha  occ. eigenvalues --   -0.45092  -0.44800  -0.44445  -0.44250  -0.44114
 Alpha  occ. eigenvalues --   -0.43606  -0.42900  -0.42739  -0.42650  -0.42446
 Alpha  occ. eigenvalues --   -0.41975  -0.41373  -0.41160  -0.40868  -0.40680
 Alpha  occ. eigenvalues --   -0.40401  -0.40155  -0.40077  -0.39793  -0.39455
 Alpha  occ. eigenvalues --   -0.38901  -0.38654  -0.38493  -0.38159  -0.37862
 Alpha  occ. eigenvalues --   -0.37669  -0.37385  -0.37300  -0.37273  -0.36731
 Alpha  occ. eigenvalues --   -0.36409  -0.35991  -0.35821  -0.35503  -0.35172
 Alpha  occ. eigenvalues --   -0.34994  -0.34575  -0.34406  -0.33975  -0.33923
 Alpha  occ. eigenvalues --   -0.33656  -0.33217  -0.33083  -0.32851  -0.32791
 Alpha  occ. eigenvalues --   -0.31891  -0.31800  -0.31251  -0.30953  -0.30760
 Alpha  occ. eigenvalues --   -0.30593  -0.30522  -0.29392  -0.28799  -0.28079
 Alpha  occ. eigenvalues --   -0.27405  -0.26023  -0.25886  -0.23694  -0.22727
 Alpha  occ. eigenvalues --   -0.21010  -0.19133  -0.16978
 Alpha virt. eigenvalues --   -0.07288  -0.04742  -0.01611   0.01084   0.03215
 Alpha virt. eigenvalues --    0.04087   0.06087   0.06209   0.06883   0.07044
 Alpha virt. eigenvalues --    0.07499   0.07584   0.08147   0.08500   0.08653

 Mulliken charges:
               1
     1  C    0.008905
     2  C   -0.005599
     3  C   -0.172479
     4  C   -0.168909
     5  C   -0.173208
     6  C   -0.197368
     7  C    0.060519
     8  C    0.075174
     9  C   -0.202545
    10  C   -0.195310
    11  C    0.068119
    12  C    0.005077
    13  C   -0.309663
    14  C   -0.294367
    15  C   -0.301805
    16  C   -0.278885
    17  C   -0.147464
    18  C   -0.132226
    19  C   -0.373976
    20  C   -0.354336
    21  C   -0.082268
    22  C   -0.103719
    23  C    0.137222
    24  C    0.131944
    25  C   -0.381174
    26  C   -0.378034
    27  C   -0.128835
    28  C   -0.144292
    29  C   -0.024260
    30  C   -0.100875
    31  C   -0.113818
    32  C   -0.057024
    33  C    0.096590
    34  C    0.090775
    35  C   -0.338280
    36  C   -0.373026
    37  C   -0.118314
    38  C   -0.099971
    39  C   -0.099274
    40  C   -0.088545
    41  H    0.077267
    42  H    0.089865
    43  H    0.075153
    44  H    0.078399
    45  H    0.043662
    46  H    0.112604
    47  H    0.090461
    48  H    0.086685
    49  H    0.128127
    50  H    0.089472
    51  H    0.115388
    52  H    0.104167
    53  H    0.098788
    54  H    0.096866
    55  H    0.105391
    56  H    0.087080
    57  H    0.089620
    58  H    0.090625
    59  H    0.102794
    60  H    0.080661
    61  H    0.109189
    62  H    0.092503
    63  H    0.088117
    64  H    0.102349
    65  H    0.066724
    66  H    0.076693
    67  H    0.116189
    68  H    0.098591
    69  H    0.113336
    70  H    0.108928
    71  H    0.129072
    72  H    0.097154
    73  H    0.053271
    74  H    0.078899
    75  H    0.105428
    76  H    0.109020
    77  H    0.123970
    78  H    0.113376
    79  H    0.125859
    80  H    0.095789
    81  H    0.074797
    82  H    0.086663
    83  H    0.068970
    84  H    0.082173
    85  H    0.081918
    86  H    0.070499
    87  H    0.093934
    88  H    0.123161
    89  H    0.072765
    90  H    0.106610
    91  H    0.149089
    92  H    0.100995
    93  H    0.074790
    94  H    0.069128
    95  H    0.083434
    96  H    0.079060
 Sum of Mulliken charges =  -0.00000

 Dipole moment (field-independent basis, Debye):
    X=              0.1918    Y=              0.1594    Z=              0.1645  Tot=              0.2988
 Quadrupole moment (field-independent basis, Debye-Ang):
   XX=           -237.9836   YY=           -232.1583   ZZ=           -256.4309
   XY=             -5.6067   XZ=              0.0262   YZ=             -1.7787

 Normal termination of Gaussian 16 at Fri Jul 26 17:57:58 2019.
