 Gaussian 16, Revision A.03,
 Gaussian 16:  ES64L-G16RevA.03 25-Dec-2016

 ---------------------------------
 # td=(NStates=1) B3LYP/6-31G(d,p)
 ---------------------------------

 --
 TD
 --
 Symbolic Z-matrix:
 Charge =  0 Multiplicity = 1

                         Standard orientation:
 ---------------------------------------------------------------------
 Center     Atomic      Atomic             Coordinates (Angstroms)
 Number     Number       Type             X           Y           Z
 ---------------------------------------------------------------------
      1          6           0       12.231021    0.419078   -0.728703
      2          6           0      -12.179218   -0.303276    0.806684
      3          6           0       13.438724   -0.381078   -0.568412
      4          6           0      -13.125813    0.891362    1.382905
      5          6           0       13.220313   -1.845605   -0.589516
      6          6           0      -13.685822    1.720221    0.284431
      7          6           0       11.071014   -0.076433    0.247678
      8          6           0      -11.136058    0.363007   -0.138637
      9          6           0       12.360182   -2.248349    0.563905
     10          6           0      -12.511425    2.461547   -0.427884
     11          6           0       11.211740   -1.274432    0.915016
     12          6           0      -11.186336    1.578802   -0.742284
     13          6           0       11.568017    0.491319   -2.153310
     14          6           0       12.784246    1.915371   -0.471210
     15          6           0      -13.018261   -1.332204    0.229664
     16          6           0      -11.464134   -0.950701    2.101654
     17          6           0        9.921007    0.785792    0.359503
     18          6           0       -9.991725   -0.491019   -0.390722
     19          6           0       10.339768   -1.691233    2.092921
     20          6           0      -10.261748    2.155296   -1.634192
     21          6           0        8.642563    0.367261    0.437972
     22          6           0       -8.617452   -0.309104   -0.221692
     23          6           0        7.432625    1.394753    0.457544
     24          6           0       -7.483557   -1.184723   -0.522645
     25          6           0        7.667000    2.771788    0.710366
     26          6           0       -7.764472   -2.609163   -0.894245
     27          6           0        6.227327    0.816225    0.308272
     28          6           0       -6.196748   -0.681965   -0.273152
     29          6           0        4.932938    1.436458    0.431596
     30          6           0       -4.960781   -1.430107   -0.439522
     31          6           0        3.758719    0.725910    0.254127
     32          6           0       -3.704122   -0.902838   -0.372618
     33          6           0        2.364461    1.348981    0.307072
     34          6           0       -2.485458   -1.545123   -0.491620
     35          6           0        2.370018    2.779846    0.441140
     36          6           0       -2.609038   -3.092685   -0.802940
     37          6           0        1.214157    0.647284    0.190897
     38          6           0       -1.343791   -0.928495   -0.269977
     39          6           0        1.125558   -0.730278   -0.142101
     40          6           0       -0.004645   -1.393737   -0.299900
     41          1           0       14.025396   -0.128373    0.443224
     42          1           0       14.207468   -0.162198   -1.262867
     43          1           0      -12.675765    1.540288    2.181402
     44          1           0      -13.951298    0.550726    2.056058
     45          1           0       14.185314   -2.392999   -0.507884
     46          1           0       12.776983   -2.146961   -1.531604
     47          1           0      -14.249554    2.532140    0.824116
     48          1           0      -14.335998    1.111259   -0.249212
     49          1           0       12.974477   -2.554556    1.404338
     50          1           0       11.819783   -3.159992    0.391648
     51          1           0      -12.026986    3.290830    0.169468
     52          1           0      -13.051638    2.884220   -1.322181
     53          1           0       11.288879   -0.473166   -2.432149
     54          1           0       12.308783    0.904879   -2.727151
     55          1           0       10.552455    1.238690   -2.346189
     56          1           0       12.794773    1.914231    0.541459
     57          1           0       12.119391    2.638954   -0.792426
     58          1           0       13.741778    2.113697   -1.210290
     59          1           0      -13.549337   -1.145743   -0.703192
     60          1           0      -13.750848   -1.420080    1.057161
     61          1           0      -12.278826   -2.128477   -0.209011
     62          1           0      -10.970590   -0.163870    2.609374
     63          1           0      -10.981571   -1.735315    1.831394
     64          1           0      -12.281583   -1.140362    2.940263
     65          1           0       10.221844    1.857859    0.501155
     66          1           0      -10.320885   -1.432374   -0.636649
     67          1           0        9.650880   -0.857966    2.654948
     68          1           0       11.000643   -2.333131    2.739535
     69          1           0        9.597123   -2.544423    1.900195
     70          1           0       -9.714560    1.426268   -2.258417
     71          1           0       -9.469528    2.701377   -1.290213
     72          1           0      -10.488289    2.768531   -2.544520
     73          1           0        8.622474   -0.885294    0.483983
     74          1           0       -8.464537    0.779501    0.216436
     75          1           0        8.236240    2.780881    1.693300
     76          1           0        6.851523    3.567752    0.825782
     77          1           0        8.188670    3.507777   -0.027997
     78          1           0       -8.375523   -2.354169   -1.810687
     79          1           0       -8.515988   -2.967025   -0.165207
     80          1           0       -6.808729   -3.135224   -1.105320
     81          1           0        6.170859   -0.266308    0.173660
     82          1           0       -6.411913    0.441487    0.163031
     83          1           0        4.865038    2.427509    0.704322
     84          1           0       -5.028964   -2.523299   -0.597821
     85          1           0        3.781885   -0.348249   -0.189934
     86          1           0       -3.757487    0.104141   -0.326012
     87          1           0        2.616170    3.248905    1.452302
     88          1           0        1.266813    3.035482    0.478164
     89          1           0        2.817001    3.257305   -0.371350
     90          1           0       -3.064144   -3.274911   -1.778258
     91          1           0       -2.901818   -3.528887    0.169098
     92          1           0       -1.452313   -3.180261   -1.067527
     93          1           0        0.462035    1.247346    0.085273
     94          1           0       -1.449984    0.245157   -0.362663
     95          1           0        2.050178   -1.289556   -0.165135
     96          1           0        0.229015   -2.450558   -0.387602
 ---------------------------------------------------------------------

 SCF Done:  E(RB3LYP) =  -1557.54757810     A.U. after   14 cycles

 Excitation energies and oscillator strengths:

 Excited State   1:      Singlet-A      2.4211 eV  512.09 nm  f=2.9530  <S**2>=0.000
     148 ->149         0.69832
 This state for optimization and/or second-order correction.
 Total Energy, E(TD-HF/TD-DFT) =  -1557.45860285
 Copying the excited state density for this state as the 1-particle RhoCI density.

 The electronic state is 1-A.
 Alpha  occ. eigenvalues --  -10.20629 -10.20312 -10.20270 -10.20156 -10.19943
 Alpha  occ. eigenvalues --  -10.19791 -10.19777 -10.19638 -10.19622 -10.19616
 Alpha  occ. eigenvalues --  -10.19498 -10.19463 -10.19325 -10.19170 -10.19064
 Alpha  occ. eigenvalues --  -10.18974 -10.18922 -10.18873 -10.18750 -10.18465
 Alpha  occ. eigenvalues --  -10.18434 -10.18246 -10.18166 -10.18078 -10.18054
 Alpha  occ. eigenvalues --  -10.17955 -10.17844 -10.17821 -10.17805 -10.17721
 Alpha  occ. eigenvalues --  -10.17562 -10.17435 -10.17317 -10.17241 -10.17178
 Alpha  occ. eigenvalues --  -10.17131 -10.16857 -10.16696 -10.16566 -10.16486
 Alpha  occ. eigenvalues --   -0.84853  -0.84549  -0.84163  -0.83134  -0.82123
 Alpha  occ. eigenvalues --   -0.81418  -0.79202  -0.78829  -0.78200  -0.77758
 Alpha  occ. eigenvalues --   -0.77191  -0.75447  -0.74585  -0.72801  -0.72238
 Alpha  occ. eigenvalues --   -0.69934  -0.68506  -0.68373  -0.68197  -0.67964
 Alpha  occ. eigenvalues --   -0.67873  -0.67338  -0.67097  -0.66601  -0.66145
 Alpha  occ. eigenvalues --   -0.62537  -0.61475  -0.59461  -0.59254  -0.57171
 Alpha  occ. eigenvalues --   -0.56540  -0.56318  -0.54571  -0.54036  -0.53124
 Alpha  occ. eigenvalues --   -0.52621  -0.51562  -0.50383  -0.49592  -0.49184
 Alpha  occ. eigenvalues --   -0.48163  -0.47439  -0.47118  -0.46709  -0.46448
 Alpha  occ. eigenvalues --   -0.45999  -0.45318  -0.45018  -0.44594  -0.44283
 Alpha  occ. eigenvalues --   -0.44141  -0.43941  -0.43646  -0.43479  -0.43361
 Alpha  occ. eigenvalues --   -0.42857  -0.42444  -0.42032  -0.41437  -0.41280
 Alpha  occ. eigenvalues --   -0.40946  -0.40430  -0.40070  -0.39697  -0.39561
 Alpha  occ. eigenvalues --   -0.39329  -0.38757  -0.38474  -0.38347  -0.37998
 Alpha  occ. eigenvalues --   -0.37818  -0.37087  -0.36896  -0.36725  -0.36311
 Alpha  occ. eigenvalues --   -0.36009  -0.35958  -0.35658  -0.34986  -0.34553
 Alpha  occ. eigenvalues --   -0.34504  -0.34405  -0.34186  -0.33952  -0.33846
 Alpha  occ. eigenvalues --   -0.33509  -0.33039  -0.32330  -0.32208  -0.32025
 Alpha  occ. eigenvalues --   -0.31899  -0.31694  -0.31154  -0.31101  -0.30688
 Alpha  occ. eigenvalues --   -0.30256  -0.29863  -0.29474  -0.28463  -0.28385
 Alpha  occ. eigenvalues --   -0.27410  -0.26715  -0.26171  -0.23984  -0.22487
 Alpha  occ. eigenvalues --   -0.20999  -0.18910  -0.16778
 Alpha virt. eigenvalues --   -0.07400  -0.04657  -0.01364   0.00649   0.02741
 Alpha virt. eigenvalues --    0.04415   0.06393   0.06814   0.07081   0.07360
 Alpha virt. eigenvalues --    0.07748   0.08246   0.08381   0.08778   0.08972

 Mulliken charges:
               1
     1  C   -0.008124
     2  C   -0.026230
     3  C   -0.153729
     4  C   -0.191510
     5  C   -0.195346
     6  C   -0.181556
     7  C    0.037652
     8  C    0.064299
     9  C   -0.223651
    10  C   -0.215185
    11  C    0.070773
    12  C    0.089787
    13  C   -0.280882
    14  C   -0.306155
    15  C   -0.271062
    16  C   -0.275189
    17  C   -0.094991
    18  C   -0.155686
    19  C   -0.372240
    20  C   -0.404443
    21  C   -0.128394
    22  C   -0.094916
    23  C    0.123871
    24  C    0.104374
    25  C   -0.390107
    26  C   -0.360608
    27  C   -0.110814
    28  C   -0.116328
    29  C   -0.072471
    30  C   -0.124591
    31  C   -0.113949
    32  C   -0.065807
    33  C    0.097077
    34  C    0.097817
    35  C   -0.388859
    36  C   -0.370953
    37  C   -0.075120
    38  C   -0.113903
    39  C   -0.096766
    40  C   -0.086188
    41  H    0.073871
    42  H    0.089325
    43  H    0.080473
    44  H    0.068910
    45  H    0.084713
    46  H    0.099339
    47  H    0.086238
    48  H    0.109036
    49  H    0.101416
    50  H    0.105160
    51  H    0.101630
    52  H    0.091823
    53  H    0.106897
    54  H    0.100797
    55  H    0.076102
    56  H    0.116785
    57  H    0.104368
    58  H    0.081642
    59  H    0.101286
    60  H    0.111218
    61  H    0.081102
    62  H    0.113332
    63  H    0.106524
    64  H    0.072552
    65  H    0.081016
    66  H    0.065771
    67  H    0.114466
    68  H    0.100924
    69  H    0.098728
    70  H    0.118893
    71  H    0.132240
    72  H    0.102487
    73  H    0.089276
    74  H    0.066977
    75  H    0.122020
    76  H    0.109867
    77  H    0.111357
    78  H    0.121855
    79  H    0.129876
    80  H    0.113114
    81  H    0.078353
    82  H    0.072293
    83  H    0.081662
    84  H    0.079907
    85  H    0.072639
    86  H    0.061664
    87  H    0.114728
    88  H    0.090145
    89  H    0.133999
    90  H    0.130779
    91  H    0.136440
    92  H    0.092732
    93  H    0.061665
    94  H    0.071310
    95  H    0.080444
    96  H    0.077939
 Sum of Mulliken charges =  -0.00000

 Dipole moment (field-independent basis, Debye):
    X=              0.4486    Y=              0.4868    Z=             -0.3047  Tot=              0.7287
 Quadrupole moment (field-independent basis, Debye-Ang):
   XX=           -218.7164   YY=           -234.7317   ZZ=           -252.9545
   XY=             -2.6301   XZ=              0.0677   YZ=              1.8926

 Normal termination of Gaussian 16 at Tue Jul 23 13:55:17 2019.
