 Gaussian 16, Revision A.03,
 Gaussian 16:  ES64L-G16RevA.03 25-Dec-2016

 ---------------------------------
 # td=(NStates=1) B3LYP/6-31G(d,p)
 ---------------------------------

 --
 TD
 --
 Symbolic Z-matrix:
 Charge =  0 Multiplicity = 1

                         Standard orientation:
 ---------------------------------------------------------------------
 Center     Atomic      Atomic             Coordinates (Angstroms)
 Number     Number       Type             X           Y           Z
 ---------------------------------------------------------------------
      1          6           0      -12.015792   -0.472829   -0.923867
      2          6           0       12.051025   -0.069671    0.945132
      3          6           0      -13.385868    0.400527   -0.818958
      4          6           0       12.925544   -1.283217    1.240527
      5          6           0      -13.121812    1.887031   -0.550050
      6          6           0       13.461263   -1.971185   -0.033954
      7          6           0      -11.006964    0.020556    0.244410
      8          6           0       10.946835   -0.378709   -0.200334
      9          6           0      -12.271923    2.090284    0.743729
     10          6           0       12.250279   -2.452527   -0.925920
     11          6           0      -11.084568    1.216759    1.046644
     12          6           0       11.139582   -1.492845   -0.988235
     13          6           0      -11.495838   -0.351274   -2.227811
     14          6           0      -12.454271   -1.884848   -0.717403
     15          6           0       12.957149    1.183983    0.536791
     16          6           0       11.324226    0.336312    2.288031
     17          6           0       -9.875985   -0.921553    0.413345
     18          6           0        9.840601    0.576033   -0.235009
     19          6           0      -10.226180    1.540878    2.066812
     20          6           0       10.002336   -1.841773   -1.922575
     21          6           0       -8.566903   -0.467019    0.373264
     22          6           0        8.500242    0.411806   -0.212187
     23          6           0       -7.442253   -1.362135    0.466614
     24          6           0        7.423625    1.380980   -0.459489
     25          6           0       -7.618652   -2.902891    0.805903
     26          6           0        7.908793    2.800859   -0.538000
     27          6           0       -6.164583   -0.818849    0.454065
     28          6           0        6.175747    0.965642   -0.371680
     29          6           0       -4.865357   -1.451658    0.475724
     30          6           0        4.985652    1.750499   -0.330987
     31          6           0       -3.666085   -0.846274    0.280303
     32          6           0        3.774413    1.228352   -0.322080
     33          6           0       -2.367906   -1.503362    0.403269
     34          6           0        2.495126    1.868193   -0.368899
     35          6           0       -2.150905   -2.953056    0.763045
     36          6           0        2.434152    3.403154   -0.580605
     37          6           0       -1.225272   -0.706061    0.187010
     38          6           0        1.364709    1.047900   -0.231530
     39          6           0       -1.169937    0.760310   -0.258194
     40          6           0        0.024334    1.487463   -0.391112
     41          1           0      -13.984442   -0.016982    0.056142
     42          1           0      -13.994480    0.257662   -1.722168
     43          1           0       12.473311   -2.099454    1.730859
     44          1           0       13.715442   -1.080532    1.830197
     45          1           0      -14.231160    2.623464   -0.584247
     46          1           0      -12.532600    2.435845   -1.382586
     47          1           0       14.060559   -2.798539    0.460378
     48          1           0       14.146276   -1.473598   -0.743895
     49          1           0      -12.971469    1.916515    1.672553
     50          1           0      -11.960886    3.240482    0.686599
     51          1           0       11.971699   -3.435119   -0.763320
     52          1           0       12.592024   -2.589794   -1.980830
     53          1           0      -11.095369    0.735757   -2.441445
     54          1           0      -12.098613   -0.689051   -3.012658
     55          1           0      -10.651604   -0.890056   -2.445151
     56          1           0      -12.753113   -2.289483    0.167736
     57          1           0      -11.777478   -2.622789   -0.987867
     58          1           0      -13.394782   -2.190463   -1.346529
     59          1           0       13.682182    1.215992   -0.434483
     60          1           0       13.795440    1.271429    1.265487
     61          1           0       12.317492    2.113004    0.388918
     62          1           0       10.639691   -0.610194    2.543339
     63          1           0       10.511930    1.077776    2.035063
     64          1           0       12.095544    0.477085    2.932802
     65          1           0      -10.121671   -2.080420    0.372607
     66          1           0       10.144116    1.565871   -0.369043
     67          1           0       -9.453652    0.928328    2.500405
     68          1           0      -10.541340    2.025291    2.923337
     69          1           0       -9.398685    2.344795    1.894533
     70          1           0        9.406849   -0.982997   -2.152727
     71          1           0        9.503722   -2.702876   -1.527503
     72          1           0       10.692971   -2.181713   -2.618731
     73          1           0       -8.425515    0.515749    0.088950
     74          1           0        8.101477   -0.389347    0.272433
     75          1           0       -8.536323   -2.960955    1.483720
     76          1           0       -6.683730   -3.498557    1.075408
     77          1           0       -7.793147   -3.575790   -0.322278
     78          1           0        8.631307    3.035745   -1.213169
     79          1           0        8.319314    3.219528    0.509937
     80          1           0        6.808865    3.172012   -0.515864
     81          1           0       -6.025916    0.205241    0.207177
     82          1           0        6.009552   -0.064339   -0.223210
     83          1           0       -4.879366   -2.508402    0.554659
     84          1           0        5.049330    2.971623   -0.291038
     85          1           0       -3.776748    0.215992   -0.275303
     86          1           0        3.592218    0.062774   -0.500562
     87          1           0       -2.842262   -3.154572    1.671067
     88          1           0       -1.116540   -2.895045    1.277096
     89          1           0       -2.461900   -3.463605   -0.331640
     90          1           0        2.945816    3.366910   -1.716036
     91          1           0        3.270648    4.078983   -0.156949
     92          1           0        1.474622    4.014298   -0.459231
     93          1           0       -0.292189   -1.185944    0.147653
     94          1           0        1.405575    0.057145    0.263844
     95          1           0       -2.172844    1.358824   -0.358115
     96          1           0       -0.241626    2.571785   -0.890769
 ---------------------------------------------------------------------

 SCF Done:  E(RB3LYP) =  -1557.49437794     A.U. after   15 cycles

 Excitation energies and oscillator strengths:

 Excited State   1:      Singlet-A      2.1675 eV  572.02 nm  f=2.7451  <S**2>=0.000
     148 ->149         0.70579
 This state for optimization and/or second-order correction.
 Total Energy, E(TD-HF/TD-DFT) =  -1557.41472428
 Copying the excited state density for this state as the 1-particle RhoCI density.

 The electronic state is 1-A.
 Alpha  occ. eigenvalues --  -10.21755 -10.21487 -10.21475 -10.21441 -10.20906
 Alpha  occ. eigenvalues --  -10.20733 -10.20664 -10.20600 -10.20445 -10.20236
 Alpha  occ. eigenvalues --  -10.20199 -10.20136 -10.20043 -10.19944 -10.19780
 Alpha  occ. eigenvalues --  -10.19776 -10.19597 -10.19571 -10.19466 -10.19204
 Alpha  occ. eigenvalues --  -10.19158 -10.18645 -10.18565 -10.18517 -10.18514
 Alpha  occ. eigenvalues --  -10.18465 -10.18422 -10.18409 -10.18363 -10.18216
 Alpha  occ. eigenvalues --  -10.18162 -10.18028 -10.17961 -10.17258 -10.17241
 Alpha  occ. eigenvalues --  -10.17241 -10.16406 -10.16270 -10.15883 -10.15500
 Alpha  occ. eigenvalues --   -0.84589  -0.84402  -0.83624  -0.82602  -0.82030
 Alpha  occ. eigenvalues --   -0.81019  -0.80340  -0.78550  -0.78331  -0.77113
 Alpha  occ. eigenvalues --   -0.76320  -0.74920  -0.74115  -0.72402  -0.72090
 Alpha  occ. eigenvalues --   -0.69621  -0.69231  -0.68513  -0.68164  -0.68094
 Alpha  occ. eigenvalues --   -0.67216  -0.66989  -0.66519  -0.66133  -0.65606
 Alpha  occ. eigenvalues --   -0.62385  -0.61564  -0.59763  -0.58466  -0.57490
 Alpha  occ. eigenvalues --   -0.57199  -0.54894  -0.54642  -0.53129  -0.52786
 Alpha  occ. eigenvalues --   -0.52503  -0.52151  -0.50441  -0.50094  -0.49971
 Alpha  occ. eigenvalues --   -0.48276  -0.47800  -0.46981  -0.46882  -0.46209
 Alpha  occ. eigenvalues --   -0.46012  -0.45218  -0.44900  -0.44418  -0.43448
 Alpha  occ. eigenvalues --   -0.43245  -0.43119  -0.42951  -0.42713  -0.42329
 Alpha  occ. eigenvalues --   -0.41992  -0.41946  -0.41597  -0.41329  -0.40926
 Alpha  occ. eigenvalues --   -0.40768  -0.40606  -0.40013  -0.39713  -0.39329
 Alpha  occ. eigenvalues --   -0.38869  -0.38648  -0.38163  -0.38031  -0.37875
 Alpha  occ. eigenvalues --   -0.37359  -0.36988  -0.36876  -0.36770  -0.36618
 Alpha  occ. eigenvalues --   -0.36235  -0.36032  -0.35912  -0.35706  -0.35352
 Alpha  occ. eigenvalues --   -0.34492  -0.34366  -0.34143  -0.34019  -0.33404
 Alpha  occ. eigenvalues --   -0.33019  -0.32868  -0.32832  -0.32626  -0.32591
 Alpha  occ. eigenvalues --   -0.31926  -0.31558  -0.31451  -0.31190  -0.31003
 Alpha  occ. eigenvalues --   -0.30517  -0.30147  -0.29408  -0.28624  -0.28190
 Alpha  occ. eigenvalues --   -0.27529  -0.26730  -0.25442  -0.23465  -0.22106
 Alpha  occ. eigenvalues --   -0.20629  -0.18929  -0.16530
 Alpha virt. eigenvalues --   -0.08175  -0.05492  -0.02020  -0.00157   0.02259
 Alpha virt. eigenvalues --    0.03389   0.05251   0.05905   0.06228   0.06287
 Alpha virt. eigenvalues --    0.06544   0.06657   0.07913   0.08060   0.08332

 Mulliken charges:
               1
     1  C    0.023005
     2  C   -0.003351
     3  C   -0.166364
     4  C   -0.166900
     5  C   -0.163792
     6  C   -0.195821
     7  C    0.005563
     8  C    0.071116
     9  C   -0.218572
    10  C   -0.242599
    11  C    0.142215
    12  C    0.047386
    13  C   -0.283530
    14  C   -0.320841
    15  C   -0.299302
    16  C   -0.287136
    17  C   -0.140813
    18  C   -0.172709
    19  C   -0.407678
    20  C   -0.337352
    21  C   -0.084706
    22  C   -0.080327
    23  C    0.116619
    24  C    0.110411
    25  C   -0.348265
    26  C   -0.353677
    27  C   -0.128001
    28  C   -0.113783
    29  C   -0.076574
    30  C   -0.090103
    31  C   -0.098439
    32  C   -0.113966
    33  C    0.078848
    34  C    0.131887
    35  C   -0.353746
    36  C   -0.365221
    37  C   -0.128325
    38  C   -0.137377
    39  C   -0.091057
    40  C   -0.090481
    41  H    0.088541
    42  H    0.089643
    43  H    0.099765
    44  H    0.092353
    45  H    0.043530
    46  H    0.093665
    47  H    0.076192
    48  H    0.101411
    49  H    0.094948
    50  H    0.081365
    51  H    0.118517
    52  H    0.095740
    53  H    0.079780
    54  H    0.106175
    55  H    0.111618
    56  H    0.113496
    57  H    0.103792
    58  H    0.078625
    59  H    0.073331
    60  H    0.093484
    61  H    0.095966
    62  H    0.078465
    63  H    0.104169
    64  H    0.107580
    65  H    0.084986
    66  H    0.081178
    67  H    0.135142
    68  H    0.120550
    69  H    0.095372
    70  H    0.121922
    71  H    0.113750
    72  H    0.096230
    73  H    0.095890
    74  H    0.072334
    75  H    0.121399
    76  H    0.119828
    77  H    0.063724
    78  H    0.132774
    79  H    0.098954
    80  H    0.090808
    81  H    0.063100
    82  H    0.083515
    83  H    0.067785
    84  H    0.079503
    85  H    0.076922
    86  H    0.075124
    87  H    0.117442
    88  H    0.119941
    89  H    0.122607
    90  H    0.100099
    91  H    0.120300
    92  H    0.121328
    93  H    0.075775
    94  H    0.096075
    95  H    0.081260
    96  H    0.065990
 Sum of Mulliken charges =  -0.00000

 Dipole moment (field-independent basis, Debye):
    X=             -0.3869    Y=             -0.7343    Z=              0.1974  Tot=              0.8531
 Quadrupole moment (field-independent basis, Debye-Ang):
   XX=           -232.3929   YY=           -235.6184   ZZ=           -255.2627
   XY=             -1.2871   XZ=              3.2266   YZ=             -1.4433

 Normal termination of Gaussian 16 at Tue Jul 30 19:46:02 2019.
