 Gaussian 16, Revision A.03,
 Gaussian 16:  ES64L-G16RevA.03 25-Dec-2016

 ---------------------------------
 # td=(NStates=1) B3LYP/6-31G(d,p)
 ---------------------------------

 --
 TD
 --
 Symbolic Z-matrix:
 Charge =  0 Multiplicity = 1

                         Standard orientation:
 ---------------------------------------------------------------------
 Center     Atomic      Atomic             Coordinates (Angstroms)
 Number     Number       Type             X           Y           Z
 ---------------------------------------------------------------------
      1          6           0       12.142223    0.571171   -0.634223
      2          6           0      -12.101338   -0.159089    0.880371
      3          6           0       13.546844   -0.169001   -0.362029
      4          6           0      -13.007892    1.100610    1.408288
      5          6           0       13.387794   -1.727012   -0.268394
      6          6           0      -13.435699    2.119527    0.310875
      7          6           0       11.177758    0.087895    0.213307
      8          6           0      -11.020051    0.434924   -0.053581
      9          6           0       12.329545   -2.077705    0.898314
     10          6           0      -12.244542    2.609520   -0.337250
     11          6           0       11.169335   -1.065542    0.972349
     12          6           0      -11.013152    1.663105   -0.721160
     13          6           0       11.805625    0.337066   -2.187198
     14          6           0       12.373551    2.037709   -0.408147
     15          6           0      -12.959649   -1.118961    0.187521
     16          6           0      -11.514670   -0.714225    2.193548
     17          6           0       10.012818    0.984061    0.226153
     18          6           0       -9.908634   -0.508844   -0.238664
     19          6           0       10.191665   -1.494710    2.020655
     20          6           0      -10.143974    2.332844   -1.650961
     21          6           0        8.697773    0.332935    0.183053
     22          6           0       -8.574725   -0.348011   -0.244543
     23          6           0        7.451598    1.322149    0.245600
     24          6           0       -7.550683   -1.288040   -0.524877
     25          6           0        7.506378    2.788317    0.537888
     26          6           0       -7.965378   -2.657828   -0.867643
     27          6           0        6.228780    0.679551    0.201956
     28          6           0       -6.317409   -0.885526   -0.372480
     29          6           0        4.964768    1.296324    0.153064
     30          6           0       -5.045541   -1.584714   -0.479135
     31          6           0        3.723114    0.628679    0.041378
     32          6           0       -3.807025   -1.086067   -0.407906
     33          6           0        2.400304    1.136272    0.193651
     34          6           0       -2.614323   -1.809525   -0.572551
     35          6           0        2.251975    2.676118    0.532434
     36          6           0       -2.721173   -3.277379   -0.767218
     37          6           0        1.262282    0.480290   -0.044883
     38          6           0       -1.459422   -1.161126   -0.251130
     39          6           0        1.095437   -0.996075   -0.248076
     40          6           0       -0.135382   -1.685970   -0.329597
     41          1           0       14.067850    0.117013    0.706374
     42          1           0       14.175677    0.073785   -1.160844
     43          1           0      -12.415593    1.689897    2.071102
     44          1           0      -13.988071    0.757889    1.821585
     45          1           0       14.283239   -2.212763   -0.143763
     46          1           0       12.897907   -1.966712   -1.299983
     47          1           0      -13.884493    2.850966    0.804716
     48          1           0      -14.161535    1.602087   -0.430917
     49          1           0       12.799679   -1.992452    1.789468
     50          1           0       11.920009   -3.016055    0.731609
     51          1           0      -11.687148    3.363533    0.452233
     52          1           0      -12.520401    3.130090   -1.288285
     53          1           0       11.795415   -0.810296   -2.227846
     54          1           0       12.688908    0.682536   -2.817673
     55          1           0       10.994134    0.922691   -2.426866
     56          1           0       12.741000    2.176086    0.709864
     57          1           0       11.621909    2.550649   -0.642710
     58          1           0       13.184341    2.389536   -1.157088
     59          1           0      -13.615618   -0.689757   -0.638002
     60          1           0      -13.564751   -1.524911    0.967241
     61          1           0      -12.364627   -1.818008   -0.177555
     62          1           0      -10.845324   -0.124086    2.738682
     63          1           0      -10.901787   -1.620422    2.049497
     64          1           0      -12.319052   -0.874271    2.735798
     65          1           0       10.055040    1.958011    0.359606
     66          1           0      -10.333399   -1.542966   -0.333235
     67          1           0        9.489814   -0.751740    2.290241
     68          1           0       10.793736   -1.720435    3.150861
     69          1           0        9.687392   -2.525446    1.867901
     70          1           0       -9.226404    1.623624   -1.925151
     71          1           0       -9.492337    2.905633   -1.139006
     72          1           0      -10.518424    2.871248   -2.563783
     73          1           0        8.599401   -0.868429    0.467783
     74          1           0       -8.232873    0.700041    0.069233
     75          1           0        7.966614    2.880333    1.602472
     76          1           0        6.559160    3.180628    0.725632
     77          1           0        8.116601    3.383901    0.069074
     78          1           0       -8.813017   -2.639836   -1.572580
     79          1           0       -8.270099   -3.288886    0.020281
     80          1           0       -7.101914   -3.226453   -1.517763
     81          1           0        6.178001   -0.476662    0.040767
     82          1           0       -6.147981    0.049821    0.085869
     83          1           0        4.989272    2.267221    0.228348
     84          1           0       -5.039593   -2.586024   -0.687339
     85          1           0        3.814650   -0.483219   -0.019858
     86          1           0       -3.705168   -0.023558   -0.312976
     87          1           0        2.653872    2.924289    1.467547
     88          1           0        1.273597    2.973292    0.568306
     89          1           0        2.741726    3.217287   -0.232636
     90          1           0       -3.423604   -3.741905   -1.548210
     91          1           0       -3.167182   -3.648849    0.241389
     92          1           0       -1.830227   -4.040732   -0.694507
     93          1           0        0.274954    0.720736    0.238751
     94          1           0       -1.674111   -0.088290   -0.178201
     95          1           0        1.937905   -1.709920   -0.185743
     96          1           0       -0.130489   -2.772022   -0.322267
 ---------------------------------------------------------------------

 SCF Done:  E(RB3LYP) =  -1557.54736735     A.U. after   16 cycles

 Excitation energies and oscillator strengths:

 Excited State   1:      Singlet-A      2.2284 eV  556.38 nm  f=2.9140  <S**2>=0.000
     148 ->149         0.70580
 This state for optimization and/or second-order correction.
 Total Energy, E(TD-HF/TD-DFT) =  -1557.46547534
 Copying the excited state density for this state as the 1-particle RhoCI density.

 The electronic state is 1-A.
 Alpha  occ. eigenvalues --  -10.21709 -10.21313 -10.20013 -10.19937 -10.19781
 Alpha  occ. eigenvalues --  -10.19766 -10.19722 -10.19531 -10.19459 -10.19277
 Alpha  occ. eigenvalues --  -10.19224 -10.19199 -10.18952 -10.18896 -10.18866
 Alpha  occ. eigenvalues --  -10.18589 -10.18547 -10.18478 -10.18396 -10.18359
 Alpha  occ. eigenvalues --  -10.18322 -10.18175 -10.18174 -10.18127 -10.18062
 Alpha  occ. eigenvalues --  -10.18046 -10.17965 -10.17924 -10.17835 -10.17799
 Alpha  occ. eigenvalues --  -10.17628 -10.17388 -10.17297 -10.17198 -10.16991
 Alpha  occ. eigenvalues --  -10.16990 -10.16662 -10.16505 -10.16032 -10.15496
 Alpha  occ. eigenvalues --   -0.85991  -0.84659  -0.84138  -0.82864  -0.82573
 Alpha  occ. eigenvalues --   -0.81003  -0.79203  -0.78630  -0.78162  -0.77272
 Alpha  occ. eigenvalues --   -0.76598  -0.75217  -0.74161  -0.72663  -0.71487
 Alpha  occ. eigenvalues --   -0.69948  -0.69810  -0.69120  -0.68610  -0.68562
 Alpha  occ. eigenvalues --   -0.68082  -0.67664  -0.66769  -0.66727  -0.66166
 Alpha  occ. eigenvalues --   -0.63196  -0.61777  -0.59585  -0.58874  -0.57706
 Alpha  occ. eigenvalues --   -0.56468  -0.56221  -0.55456  -0.54162  -0.53654
 Alpha  occ. eigenvalues --   -0.53042  -0.52015  -0.50625  -0.49190  -0.48844
 Alpha  occ. eigenvalues --   -0.48603  -0.47505  -0.47309  -0.46611  -0.46324
 Alpha  occ. eigenvalues --   -0.45919  -0.45555  -0.45449  -0.44971  -0.44722
 Alpha  occ. eigenvalues --   -0.43784  -0.43382  -0.43130  -0.42602  -0.42464
 Alpha  occ. eigenvalues --   -0.42248  -0.42029  -0.41847  -0.41769  -0.41496
 Alpha  occ. eigenvalues --   -0.41332  -0.40968  -0.40644  -0.40360  -0.40284
 Alpha  occ. eigenvalues --   -0.39721  -0.39585  -0.38885  -0.38820  -0.38520
 Alpha  occ. eigenvalues --   -0.38427  -0.38211  -0.37341  -0.37191  -0.36808
 Alpha  occ. eigenvalues --   -0.36160  -0.35786  -0.35561  -0.35348  -0.35194
 Alpha  occ. eigenvalues --   -0.35063  -0.34601  -0.34549  -0.34228  -0.34077
 Alpha  occ. eigenvalues --   -0.33535  -0.33078  -0.32941  -0.32573  -0.32534
 Alpha  occ. eigenvalues --   -0.32414  -0.31829  -0.31253  -0.31102  -0.30950
 Alpha  occ. eigenvalues --   -0.30561  -0.29984  -0.29687  -0.28973  -0.28216
 Alpha  occ. eigenvalues --   -0.27528  -0.26621  -0.25925  -0.24030  -0.22152
 Alpha  occ. eigenvalues --   -0.20640  -0.18639  -0.16459
 Alpha virt. eigenvalues --   -0.07891  -0.05105  -0.01789  -0.00089   0.02681
 Alpha virt. eigenvalues --    0.03206   0.05111   0.07450   0.07758   0.08179
 Alpha virt. eigenvalues --    0.08322   0.08497   0.08814   0.09138   0.09503

 Mulliken charges:
               1
     1  C   -0.068875
     2  C   -0.025069
     3  C   -0.158698
     4  C   -0.191071
     5  C   -0.202256
     6  C   -0.169315
     7  C    0.159975
     8  C    0.047161
     9  C   -0.208361
    10  C   -0.199202
    11  C    0.050112
    12  C    0.079585
    13  C   -0.291593
    14  C   -0.274131
    15  C   -0.275208
    16  C   -0.294259
    17  C   -0.151111
    18  C   -0.137371
    19  C   -0.365999
    20  C   -0.381538
    21  C   -0.120400
    22  C   -0.105294
    23  C    0.082374
    24  C    0.180236
    25  C   -0.372482
    26  C   -0.380850
    27  C   -0.111987
    28  C   -0.136613
    29  C   -0.049057
    30  C   -0.079353
    31  C   -0.124932
    32  C   -0.107932
    33  C    0.108839
    34  C    0.162220
    35  C   -0.370992
    36  C   -0.403494
    37  C   -0.128620
    38  C   -0.123553
    39  C   -0.096864
    40  C   -0.110761
    41  H    0.056855
    42  H    0.088978
    43  H    0.094326
    44  H    0.074758
    45  H    0.098166
    46  H    0.075530
    47  H    0.107558
    48  H    0.077542
    49  H    0.117570
    50  H    0.107101
    51  H    0.068201
    52  H    0.081068
    53  H    0.101801
    54  H    0.090993
    55  H    0.118194
    56  H    0.087720
    57  H    0.107170
    58  H    0.078779
    59  H    0.098615
    60  H    0.098593
    61  H    0.109392
    62  H    0.111731
    63  H    0.087932
    64  H    0.109579
    65  H    0.095496
    66  H    0.067548
    67  H    0.134972
    68  H    0.054482
    69  H    0.107117
    70  H    0.093301
    71  H    0.143933
    72  H    0.116504
    73  H    0.106109
    74  H    0.064874
    75  H    0.107775
    76  H    0.126416
    77  H    0.132051
    78  H    0.118815
    79  H    0.122842
    80  H    0.086199
    81  H    0.068635
    82  H    0.069512
    83  H    0.057987
    84  H    0.058944
    85  H    0.073224
    86  H    0.068511
    87  H    0.118048
    88  H    0.112085
    89  H    0.122739
    90  H    0.120325
    91  H    0.119508
    92  H    0.103543
    93  H    0.091591
    94  H    0.076063
    95  H    0.077657
    96  H    0.081782
 Sum of Mulliken charges =  -0.00000

 Dipole moment (field-independent basis, Debye):
    X=              0.2810    Y=              0.5745    Z=              1.0191  Tot=              1.2031
 Quadrupole moment (field-independent basis, Debye-Ang):
   XX=           -218.9947   YY=           -231.3751   ZZ=           -254.3088
   XY=              3.6232   XZ=             -0.5291   YZ=              0.4678

 Normal termination of Gaussian 16 at Sat Jul 27 13:56:25 2019.
