 Gaussian 16, Revision A.03,
 Gaussian 16:  ES64L-G16RevA.03 25-Dec-2016

 ---------------------------------
 # td=(NStates=1) B3LYP/6-31G(d,p)
 ---------------------------------

 --
 TD
 --
 Symbolic Z-matrix:
 Charge =  0 Multiplicity = 1

                         Standard orientation:
 ---------------------------------------------------------------------
 Center     Atomic      Atomic             Coordinates (Angstroms)
 Number     Number       Type             X           Y           Z
 ---------------------------------------------------------------------
      1          6           0      -12.114683   -0.513323   -0.667233
      2          6           0       11.941264    0.016548    0.902975
      3          6           0      -13.349910    0.321802   -0.467638
      4          6           0       12.810849   -1.200561    1.397155
      5          6           0      -13.018083    1.782300   -0.493533
      6          6           0       13.239717   -2.179014    0.284381
      7          6           0      -10.980976    0.005746    0.247937
      8          6           0       10.903124   -0.413134   -0.102174
      9          6           0      -12.146959    2.213731    0.787338
     10          6           0       12.038579   -2.623323   -0.488860
     11          6           0      -10.993155    1.169069    1.004236
     12          6           0       10.887645   -1.581783   -0.693123
     13          6           0      -11.632272   -0.448591   -2.050137
     14          6           0      -12.546796   -1.965691   -0.294843
     15          6           0       12.897976    1.138744    0.309659
     16          6           0       11.301999    0.622516    2.124066
     17          6           0       -9.802272   -0.937409    0.391360
     18          6           0        9.893805    0.550297   -0.354810
     19          6           0      -10.049440    1.686500    1.979487
     20          6           0        9.904495   -2.159471   -1.707172
     21          6           0       -8.440726   -0.484468    0.330393
     22          6           0        8.549952    0.405803   -0.217367
     23          6           0       -7.328654   -1.364909    0.400789
     24          6           0        7.517440    1.376124   -0.463612
     25          6           0       -7.585132   -2.836220    0.738016
     26          6           0        7.968038    2.762254   -0.694858
     27          6           0       -6.023262   -0.833374    0.145582
     28          6           0        6.210395    1.010628   -0.380357
     29          6           0       -4.762247   -1.488263    0.306953
     30          6           0        4.999507    1.728282   -0.501077
     31          6           0       -3.570310   -0.801265    0.048474
     32          6           0        3.758642    1.219597   -0.287376
     33          6           0       -2.313870   -1.411677    0.179530
     34          6           0        2.455874    1.847513   -0.420671
     35          6           0       -2.184478   -2.813825    0.295852
     36          6           0        2.524505    3.423061   -0.558360
     37          6           0       -1.211173   -0.547915    0.004453
     38          6           0        1.303514    1.168290   -0.381035
     39          6           0       -1.164769    0.898478   -0.183502
     40          6           0       -0.094388    1.642370   -0.487852
     41          1           0      -13.881576    0.175063    0.428137
     42          1           0      -14.038034    0.047707   -1.241907
     43          1           0       12.342070   -1.900223    1.947486
     44          1           0       13.654341   -0.874893    1.972594
     45          1           0      -13.785223    2.244289   -0.499489
     46          1           0      -12.454279    2.086665   -1.606919
     47          1           0       13.885242   -3.025885    0.537794
     48          1           0       13.778100   -1.541483   -0.201701
     49          1           0      -12.704906    2.402827    1.844850
     50          1           0      -11.713406    3.260787    0.763943
     51          1           0       11.774005   -3.409527    0.034837
     52          1           0       12.161361   -3.041331   -1.450088
     53          1           0      -11.427051    0.606812   -2.548172
     54          1           0      -12.602825   -0.625932   -2.805260
     55          1           0      -10.924409   -1.291739   -2.152899
     56          1           0      -13.115025   -2.019966    0.668703
     57          1           0      -11.283146   -2.628559   -0.232919
     58          1           0      -13.168158   -2.290822   -1.241988
     59          1           0       13.446010    0.786149   -0.759195
     60          1           0       13.646376    1.385796    1.066282
     61          1           0       12.266433    2.160991    0.196283
     62          1           0       10.544654    0.045756    2.650714
     63          1           0       10.753932    1.407338    1.783293
     64          1           0       12.111416    0.890234    2.841143
     65          1           0      -10.112316   -2.022628    0.548847
     66          1           0       10.340803    1.699482   -0.419964
     67          1           0       -9.339863    0.752306    2.332727
     68          1           0      -10.518548    2.163266    2.788379
     69          1           0       -9.358204    2.441715    1.590009
     70          1           0        9.449474   -1.431439   -2.229834
     71          1           0        9.262499   -2.831453   -1.215629
     72          1           0       10.542098   -2.884499   -2.435002
     73          1           0       -8.293551    0.558391    0.049282
     74          1           0        8.104933   -0.573845   -0.120682
     75          1           0       -8.188107   -2.865031    1.653512
     76          1           0       -6.752855   -3.524112    0.820310
     77          1           0       -8.245536   -3.504111   -0.093414
     78          1           0        8.434302    2.848231   -1.556590
     79          1           0        8.554513    2.869477    0.202636
     80          1           0        7.152089    3.484261   -0.812514
     81          1           0       -5.994807    0.118569   -0.385498
     82          1           0        6.009418   -0.065026   -0.505092
     83          1           0       -4.423036   -2.458404    0.697182
     84          1           0        5.312224    2.740667   -0.700257
     85          1           0       -3.633106    0.181268   -0.237882
     86          1           0        3.546917    0.163393   -0.135844
     87          1           0       -2.425442   -2.887131    1.214448
     88          1           0       -0.995390   -3.351761    0.431974
     89          1           0       -2.919041   -3.366065   -0.289000
     90          1           0        3.151856    3.782377   -1.372080
     91          1           0        3.030017    3.961367    0.279463
     92          1           0        1.508796    3.904660   -0.612287
     93          1           0       -0.376691   -1.138388   -0.105882
     94          1           0        1.434618    0.068765   -0.381757
     95          1           0       -2.201623    1.401047   -0.228614
     96          1           0       -0.084930    2.601983   -0.664752
 ---------------------------------------------------------------------

 SCF Done:  E(RB3LYP) =  -1557.48285302     A.U. after   16 cycles

 Excitation energies and oscillator strengths:

 Excited State   1:      Singlet-A      2.1475 eV  577.34 nm  f=2.9076  <S**2>=0.000
     148 ->149         0.70234
     148 <-149        -0.10010
 This state for optimization and/or second-order correction.
 Total Energy, E(TD-HF/TD-DFT) =  -1557.40393415
 Copying the excited state density for this state as the 1-particle RhoCI density.

 The electronic state is 1-A.
 Alpha  occ. eigenvalues --  -10.21073 -10.20591 -10.20150 -10.20141 -10.20082
 Alpha  occ. eigenvalues --  -10.19903 -10.19860 -10.19720 -10.19670 -10.19654
 Alpha  occ. eigenvalues --  -10.19594 -10.19500 -10.19383 -10.19280 -10.19188
 Alpha  occ. eigenvalues --  -10.19162 -10.19144 -10.18960 -10.18953 -10.18880
 Alpha  occ. eigenvalues --  -10.18832 -10.18601 -10.18591 -10.18549 -10.18380
 Alpha  occ. eigenvalues --  -10.18291 -10.18201 -10.18076 -10.17859 -10.17740
 Alpha  occ. eigenvalues --  -10.17714 -10.17707 -10.17495 -10.17389 -10.16585
 Alpha  occ. eigenvalues --  -10.16573 -10.16178 -10.16006 -10.15836 -10.15440
 Alpha  occ. eigenvalues --   -0.85636  -0.85076  -0.84825  -0.83426  -0.82058
 Alpha  occ. eigenvalues --   -0.81263  -0.79222  -0.78723  -0.78648  -0.78068
 Alpha  occ. eigenvalues --   -0.76839  -0.75554  -0.75124  -0.72665  -0.71476
 Alpha  occ. eigenvalues --   -0.70879  -0.69413  -0.68199  -0.68127  -0.68049
 Alpha  occ. eigenvalues --   -0.67629  -0.67115  -0.66790  -0.66606  -0.65548
 Alpha  occ. eigenvalues --   -0.63181  -0.62314  -0.60257  -0.59419  -0.57997
 Alpha  occ. eigenvalues --   -0.57000  -0.56336  -0.55332  -0.54788  -0.53146
 Alpha  occ. eigenvalues --   -0.52689  -0.51885  -0.50821  -0.50075  -0.49180
 Alpha  occ. eigenvalues --   -0.48544  -0.47667  -0.47277  -0.47069  -0.46612
 Alpha  occ. eigenvalues --   -0.46335  -0.45862  -0.45189  -0.45010  -0.44468
 Alpha  occ. eigenvalues --   -0.44337  -0.44020  -0.43209  -0.43014  -0.42469
 Alpha  occ. eigenvalues --   -0.42445  -0.41989  -0.41568  -0.41518  -0.40987
 Alpha  occ. eigenvalues --   -0.40562  -0.40264  -0.39986  -0.39793  -0.39447
 Alpha  occ. eigenvalues --   -0.39250  -0.39143  -0.38764  -0.38291  -0.38125
 Alpha  occ. eigenvalues --   -0.37635  -0.37542  -0.37221  -0.36832  -0.36518
 Alpha  occ. eigenvalues --   -0.36227  -0.36077  -0.35890  -0.35608  -0.35400
 Alpha  occ. eigenvalues --   -0.35290  -0.34663  -0.34436  -0.34202  -0.34124
 Alpha  occ. eigenvalues --   -0.33771  -0.33505  -0.33374  -0.33240  -0.32549
 Alpha  occ. eigenvalues --   -0.31927  -0.31632  -0.31466  -0.31054  -0.30922
 Alpha  occ. eigenvalues --   -0.30406  -0.29403  -0.29131  -0.28971  -0.28236
 Alpha  occ. eigenvalues --   -0.27869  -0.27291  -0.26115  -0.24160  -0.22922
 Alpha  occ. eigenvalues --   -0.21355  -0.18511  -0.16299
 Alpha virt. eigenvalues --   -0.08198  -0.05579  -0.01821   0.00943   0.02764
 Alpha virt. eigenvalues --    0.04329   0.04606   0.05780   0.06608   0.06788
 Alpha virt. eigenvalues --    0.06970   0.07199   0.08205   0.08857   0.09051

 Mulliken charges:
               1
     1  C   -0.001164
     2  C   -0.036771
     3  C   -0.172430
     4  C   -0.182556
     5  C   -0.131814
     6  C   -0.205017
     7  C    0.068436
     8  C    0.138615
     9  C   -0.237470
    10  C   -0.213564
    11  C    0.099499
    12  C    0.028978
    13  C   -0.269532
    14  C   -0.261906
    15  C   -0.284776
    16  C   -0.282227
    17  C   -0.157317
    18  C   -0.186093
    19  C   -0.370173
    20  C   -0.350389
    21  C   -0.110204
    22  C   -0.077768
    23  C    0.131706
    24  C    0.106543
    25  C   -0.364287
    26  C   -0.362986
    27  C   -0.156320
    28  C   -0.138263
    29  C   -0.076688
    30  C   -0.060095
    31  C   -0.075121
    32  C   -0.121920
    33  C    0.100532
    34  C    0.147204
    35  C   -0.385303
    36  C   -0.385130
    37  C   -0.116124
    38  C   -0.146665
    39  C   -0.080546
    40  C   -0.059852
    41  H    0.096995
    42  H    0.085156
    43  H    0.102351
    44  H    0.082035
    45  H    0.087316
    46  H    0.048543
    47  H    0.080662
    48  H    0.106776
    49  H    0.074191
    50  H    0.099026
    51  H    0.115291
    52  H    0.092558
    53  H    0.103495
    54  H    0.051694
    55  H    0.115028
    56  H    0.113686
    57  H    0.025763
    58  H    0.097081
    59  H    0.084921
    60  H    0.107986
    61  H    0.081671
    62  H    0.104267
    63  H    0.103143
    64  H    0.089782
    65  H    0.093535
    66  H    0.064564
    67  H    0.094863
    68  H    0.111016
    69  H    0.117370
    70  H    0.126413
    71  H    0.130102
    72  H    0.075185
    73  H    0.093305
    74  H    0.076511
    75  H    0.124074
    76  H    0.114436
    77  H    0.084251
    78  H    0.138093
    79  H    0.125700
    80  H    0.096026
    81  H    0.088278
    82  H    0.064640
    83  H    0.070106
    84  H    0.069474
    85  H    0.068669
    86  H    0.071808
    87  H    0.164872
    88  H    0.075329
    89  H    0.131367
    90  H    0.120030
    91  H    0.115147
    92  H    0.098919
    93  H    0.067073
    94  H    0.072561
    95  H    0.079196
    96  H    0.066628
 Sum of Mulliken charges =  -0.00000

 Dipole moment (field-independent basis, Debye):
    X=             -0.3202    Y=             -0.1459    Z=              0.2495  Tot=              0.4313
 Quadrupole moment (field-independent basis, Debye-Ang):
   XX=           -217.1367   YY=           -233.8672   ZZ=           -255.0218
   XY=             -7.1113   XZ=             -0.8231   YZ=             -3.1281

 Normal termination of Gaussian 16 at Tue Jul 30 04:18:05 2019.
