 Gaussian 16, Revision A.03,
 Gaussian 16:  ES64L-G16RevA.03 25-Dec-2016

 ---------------------------------
 # td=(NStates=1) B3LYP/6-31G(d,p)
 ---------------------------------

 --
 TD
 --
 Symbolic Z-matrix:
 Charge =  0 Multiplicity = 1

                         Standard orientation:
 ---------------------------------------------------------------------
 Center     Atomic      Atomic             Coordinates (Angstroms)
 Number     Number       Type             X           Y           Z
 ---------------------------------------------------------------------
      1          6           0       12.152976    0.461734   -0.958685
      2          6           0      -12.052043   -0.093693    0.872789
      3          6           0       13.429706   -0.371912   -0.894777
      4          6           0      -13.145052    1.084886    1.287838
      5          6           0       13.137281   -1.916303   -0.648403
      6          6           0      -13.565549    1.946633    0.012139
      7          6           0       11.060554    0.002312    0.185463
      8          6           0      -10.990749    0.458954   -0.146327
      9          6           0       12.376027   -2.104043    0.635070
     10          6           0      -12.265589    2.599191   -0.527451
     11          6           0       11.265171   -1.131526    0.929958
     12          6           0      -11.114309    1.598764   -0.807762
     13          6           0       11.431828    0.400783   -2.332370
     14          6           0       12.542770    1.995827   -0.623407
     15          6           0      -12.927614   -1.309590    0.174315
     16          6           0      -11.358004   -0.832592    2.038650
     17          6           0        9.917056    0.862653    0.408788
     18          6           0       -9.938359   -0.554136   -0.468087
     19          6           0       10.403244   -1.471629    2.157313
     20          6           0      -10.146328    2.089386   -1.900283
     21          6           0        8.606002    0.524014    0.375959
     22          6           0       -8.641286   -0.231950   -0.229046
     23          6           0        7.444059    1.370764    0.637898
     24          6           0       -7.486864   -1.189931   -0.314204
     25          6           0        7.615832    2.818626    0.888811
     26          6           0       -7.906700   -2.638293   -0.491062
     27          6           0        6.220675    0.725096    0.466426
     28          6           0       -6.193347   -0.709959   -0.164944
     29          6           0        4.903716    1.383149    0.512751
     30          6           0       -5.010704   -1.598320   -0.359236
     31          6           0        3.742518    0.609763    0.373599
     32          6           0       -3.768231   -1.086335   -0.266775
     33          6           0        2.391938    1.217952    0.354874
     34          6           0       -2.548794   -1.726137   -0.491062
     35          6           0        2.271095    2.751667    0.613424
     36          6           0       -2.570829   -3.298046   -0.678024
     37          6           0        1.248827    0.502077    0.139603
     38          6           0       -1.344824   -0.996691   -0.319209
     39          6           0        1.116167   -0.870834   -0.216728
     40          6           0       -0.093229   -1.488436   -0.397912
     41          1           0       13.856102    0.058633   -0.126574
     42          1           0       14.111844   -0.151540   -1.706156
     43          1           0      -12.640229    1.739934    1.954639
     44          1           0      -13.894477    0.467297    1.722372
     45          1           0       14.136933   -2.361792   -0.659969
     46          1           0       12.496946   -2.413458   -1.303765
     47          1           0      -14.136671    2.809164    0.432094
     48          1           0      -14.244476    1.503628   -0.687170
     49          1           0       13.078317   -2.159251    1.540303
     50          1           0       12.026999   -3.292903    0.699400
     51          1           0      -12.150914    3.323805    0.317299
     52          1           0      -12.728732    3.071799   -1.324606
     53          1           0       11.187479   -0.757515   -2.657652
     54          1           0       12.187849    0.850359   -3.216506
     55          1           0       10.513354    0.923895   -2.376929
     56          1           0       12.656658    2.210234    0.443394
     57          1           0       11.620467    2.732977   -0.924992
     58          1           0       13.568930    2.380812   -1.085268
     59          1           0      -13.419840   -0.842450   -0.746970
     60          1           0      -13.609170   -1.501681    0.978748
     61          1           0      -12.447801   -2.347912    0.008599
     62          1           0      -10.831200   -0.162290    2.671141
     63          1           0      -10.841566   -1.657269    1.585435
     64          1           0      -11.990910   -1.391386    2.811509
     65          1           0       10.261751    1.877073    0.487672
     66          1           0      -10.175379   -1.584297   -0.385785
     67          1           0        9.661116   -0.503608    2.479403
     68          1           0       10.970131   -1.821231    3.110375
     69          1           0        9.600786   -2.344358    1.927773
     70          1           0       -9.804618    0.959738   -2.268591
     71          1           0       -9.330538    2.858530   -1.510714
     72          1           0      -10.746500    2.545661   -2.639167
     73          1           0        8.479126   -0.603674    0.400352
     74          1           0       -8.356905    0.818243   -0.158500
     75          1           0        8.068880    2.840191    1.760673
     76          1           0        6.695492    3.289515    1.159094
     77          1           0        8.101278    3.201613   -0.135832
     78          1           0       -8.409851   -2.877029   -1.458772
     79          1           0       -8.477104   -2.944746    0.361787
     80          1           0       -6.754429   -3.023441   -0.588852
     81          1           0        6.239919   -0.340872    0.089550
     82          1           0       -5.958522    0.358157    0.249001
     83          1           0        4.886891    2.583882    0.922955
     84          1           0       -4.927109   -2.664227   -0.716780
     85          1           0        3.722587   -0.437279    0.194817
     86          1           0       -3.565208    0.047042   -0.108985
     87          1           0        2.736658    2.935809    1.658327
     88          1           0        1.339558    2.861414    0.678018
     89          1           0        2.843813    3.461071   -0.090848
     90          1           0       -3.224538   -3.507485   -1.409962
     91          1           0       -3.005748   -3.452423    0.347627
     92          1           0       -1.319971   -3.313550   -1.050413
     93          1           0        0.352495    1.222337    0.346580
     94          1           0       -1.713706    0.041297   -0.108455
     95          1           0        2.060128   -1.638601   -0.141434
     96          1           0       -0.010612   -2.581080   -0.728781
 ---------------------------------------------------------------------

 SCF Done:  E(RB3LYP) =  -1557.52413328     A.U. after   16 cycles

 Excitation energies and oscillator strengths:

 Excited State   1:      Singlet-A      2.1621 eV  573.44 nm  f=3.1322  <S**2>=0.000
     148 ->149         0.70477
     148 <-149        -0.11207
 This state for optimization and/or second-order correction.
 Total Energy, E(TD-HF/TD-DFT) =  -1557.44467728
 Copying the excited state density for this state as the 1-particle RhoCI density.

 The electronic state is 1-A.
 Alpha  occ. eigenvalues --  -10.21311 -10.21303 -10.20947 -10.20803 -10.20596
 Alpha  occ. eigenvalues --  -10.20454 -10.20432 -10.20087 -10.20002 -10.20000
 Alpha  occ. eigenvalues --  -10.19982 -10.19828 -10.19691 -10.19656 -10.19603
 Alpha  occ. eigenvalues --  -10.19455 -10.19428 -10.19357 -10.19344 -10.19233
 Alpha  occ. eigenvalues --  -10.19074 -10.18960 -10.18937 -10.18930 -10.18761
 Alpha  occ. eigenvalues --  -10.18643 -10.18493 -10.18369 -10.18222 -10.18199
 Alpha  occ. eigenvalues --  -10.18151 -10.18038 -10.17985 -10.17980 -10.17972
 Alpha  occ. eigenvalues --  -10.17948 -10.17779 -10.17606 -10.16992 -10.16829
 Alpha  occ. eigenvalues --   -0.84106  -0.84047  -0.83539  -0.82624  -0.81961
 Alpha  occ. eigenvalues --   -0.81072  -0.79022  -0.77696  -0.77140  -0.77001
 Alpha  occ. eigenvalues --   -0.76680  -0.74991  -0.73904  -0.72025  -0.71647
 Alpha  occ. eigenvalues --   -0.70264  -0.68981  -0.68220  -0.67428  -0.67168
 Alpha  occ. eigenvalues --   -0.67036  -0.66360  -0.66154  -0.66043  -0.65695
 Alpha  occ. eigenvalues --   -0.62665  -0.61585  -0.59535  -0.58879  -0.57186
 Alpha  occ. eigenvalues --   -0.55821  -0.55154  -0.54339  -0.53577  -0.52119
 Alpha  occ. eigenvalues --   -0.51907  -0.51287  -0.50276  -0.49706  -0.48352
 Alpha  occ. eigenvalues --   -0.48083  -0.47214  -0.46885  -0.46440  -0.45912
 Alpha  occ. eigenvalues --   -0.45110  -0.44586  -0.44397  -0.44162  -0.44074
 Alpha  occ. eigenvalues --   -0.43861  -0.43256  -0.42740  -0.42579  -0.42094
 Alpha  occ. eigenvalues --   -0.41830  -0.41669  -0.41471  -0.41084  -0.40448
 Alpha  occ. eigenvalues --   -0.40134  -0.40037  -0.39806  -0.39530  -0.39291
 Alpha  occ. eigenvalues --   -0.39050  -0.38869  -0.38453  -0.38022  -0.37753
 Alpha  occ. eigenvalues --   -0.37528  -0.37068  -0.36936  -0.36891  -0.36072
 Alpha  occ. eigenvalues --   -0.35974  -0.35589  -0.35499  -0.35364  -0.35053
 Alpha  occ. eigenvalues --   -0.34684  -0.34513  -0.34499  -0.34335  -0.34070
 Alpha  occ. eigenvalues --   -0.33502  -0.32843  -0.32689  -0.32492  -0.32347
 Alpha  occ. eigenvalues --   -0.31891  -0.31406  -0.31264  -0.31005  -0.30577
 Alpha  occ. eigenvalues --   -0.29973  -0.29730  -0.29698  -0.29425  -0.28922
 Alpha  occ. eigenvalues --   -0.28071  -0.26925  -0.26049  -0.24051  -0.22779
 Alpha  occ. eigenvalues --   -0.21255  -0.19271  -0.16435
 Alpha virt. eigenvalues --   -0.08486  -0.05033  -0.01826   0.00668   0.02979
 Alpha virt. eigenvalues --    0.03889   0.04057   0.05588   0.06320   0.07016
 Alpha virt. eigenvalues --    0.07401   0.07537   0.08001   0.08334   0.08486

 Mulliken charges:
               1
     1  C    0.024240
     2  C   -0.036131
     3  C   -0.173915
     4  C   -0.174226
     5  C   -0.185608
     6  C   -0.213849
     7  C    0.030327
     8  C    0.121615
     9  C   -0.227460
    10  C   -0.213888
    11  C    0.105020
    12  C    0.030534
    13  C   -0.269664
    14  C   -0.324274
    15  C   -0.309274
    16  C   -0.294033
    17  C   -0.143429
    18  C   -0.181394
    19  C   -0.351582
    20  C   -0.341897
    21  C   -0.091240
    22  C   -0.051850
    23  C    0.083131
    24  C    0.090066
    25  C   -0.341703
    26  C   -0.366948
    27  C   -0.113435
    28  C   -0.123828
    29  C   -0.095094
    30  C   -0.107592
    31  C   -0.089625
    32  C   -0.094213
    33  C    0.083735
    34  C    0.045754
    35  C   -0.339826
    36  C   -0.346908
    37  C   -0.117719
    38  C   -0.054578
    39  C   -0.106549
    40  C   -0.111616
    41  H    0.111072
    42  H    0.089676
    43  H    0.097863
    44  H    0.091164
    45  H    0.093892
    46  H    0.116986
    47  H    0.083266
    48  H    0.100421
    49  H    0.092607
    50  H    0.067180
    51  H    0.101040
    52  H    0.103399
    53  H    0.075317
    54  H    0.062710
    55  H    0.116780
    56  H    0.114574
    57  H    0.081552
    58  H    0.087618
    59  H    0.099435
    60  H    0.108351
    61  H    0.087158
    62  H    0.105397
    63  H    0.102650
    64  H    0.079017
    65  H    0.078227
    66  H    0.081785
    67  H    0.092336
    68  H    0.099736
    69  H    0.091281
    70  H    0.099791
    71  H    0.100580
    72  H    0.111039
    73  H    0.084848
    74  H    0.080826
    75  H    0.138539
    76  H    0.102309
    77  H    0.119560
    78  H    0.124242
    79  H    0.136215
    80  H    0.086701
    81  H    0.083392
    82  H    0.097418
    83  H    0.074406
    84  H    0.092430
    85  H    0.079749
    86  H    0.056507
    87  H    0.101748
    88  H    0.104409
    89  H    0.115617
    90  H    0.135439
    91  H    0.139670
    92  H    0.086616
    93  H    0.076438
    94  H    0.076238
    95  H    0.082310
    96  H    0.079399
 Sum of Mulliken charges =  -0.00000

 Dipole moment (field-independent basis, Debye):
    X=              0.2445    Y=              0.5139    Z=              0.8600  Tot=              1.0313
 Quadrupole moment (field-independent basis, Debye-Ang):
   XX=           -221.3473   YY=           -238.2731   ZZ=           -256.4273
   XY=              2.0814   XZ=             -0.0875   YZ=              3.8419

 Normal termination of Gaussian 16 at Thu Aug  1 20:25:58 2019.
