 Gaussian 16, Revision A.03,
 Gaussian 16:  ES64L-G16RevA.03 25-Dec-2016

 ---------------------------------
 # td=(NStates=1) B3LYP/6-31G(d,p)
 ---------------------------------

 --
 TD
 --
 Symbolic Z-matrix:
 Charge =  0 Multiplicity = 1

                         Standard orientation:
 ---------------------------------------------------------------------
 Center     Atomic      Atomic             Coordinates (Angstroms)
 Number     Number       Type             X           Y           Z
 ---------------------------------------------------------------------
      1          6           0       12.171568    0.589976   -0.769464
      2          6           0      -12.262238   -0.134713    0.875546
      3          6           0       13.589445   -0.283075   -0.727202
      4          6           0      -13.112789    1.045087    1.319105
      5          6           0       13.229203   -1.799858   -0.614174
      6          6           0      -13.482993    1.873568    0.131880
      7          6           0       11.034790   -0.013129    0.234694
      8          6           0      -11.019173    0.457866   -0.066343
      9          6           0       12.495519   -2.158761    0.588373
     10          6           0      -12.315610    2.604806   -0.595304
     11          6           0       11.247833   -1.245071    0.819003
     12          6           0      -11.149320    1.702763   -0.749241
     13          6           0       11.619054    0.669417   -2.226619
     14          6           0       12.566277    1.946665   -0.378032
     15          6           0      -13.062178   -1.271988    0.242835
     16          6           0      -11.608865   -0.791107    2.158808
     17          6           0        9.824528    0.761486    0.387796
     18          6           0       -9.898647   -0.531993   -0.247222
     19          6           0       10.301629   -1.751241    1.892152
     20          6           0      -10.096135    2.065093   -1.796358
     21          6           0        8.541945    0.394845    0.306688
     22          6           0       -8.568749   -0.313886   -0.219154
     23          6           0        7.412444    1.246986    0.503241
     24          6           0       -7.549513   -1.238720   -0.399321
     25          6           0        7.623569    2.660179    0.817713
     26          6           0       -7.894727   -2.644130   -0.615508
     27          6           0        6.146856    0.726114    0.444834
     28          6           0       -6.160845   -0.823055   -0.351021
     29          6           0        4.884424    1.428231    0.649173
     30          6           0       -4.987504   -1.481919   -0.587801
     31          6           0        3.748807    0.832262    0.301859
     32          6           0       -3.748642   -1.043034   -0.421568
     33          6           0        2.430144    1.378379    0.354656
     34          6           0       -2.574390   -1.783932   -0.518385
     35          6           0        2.292388    2.812892    0.573912
     36          6           0       -2.525888   -3.290023   -0.674739
     37          6           0        1.260118    0.643502    0.118682
     38          6           0       -1.341122   -0.993392   -0.264866
     39          6           0        1.144358   -0.909131   -0.066313
     40          6           0       -0.044435   -1.570957   -0.286919
     41          1           0       14.163201    0.006350    0.131385
     42          1           0       14.224281   -0.059491   -1.699921
     43          1           0      -12.509377    1.865099    1.853390
     44          1           0      -13.971158    0.718723    1.889725
     45          1           0       14.212317   -2.562710   -0.531109
     46          1           0       12.720296   -2.141282   -1.545018
     47          1           0      -14.027004    2.832886    0.482085
     48          1           0      -14.039743    1.289958   -0.635599
     49          1           0       13.136876   -2.302137    1.477649
     50          1           0       12.214625   -3.125678    0.420734
     51          1           0      -11.901936    3.713851   -0.477822
     52          1           0      -12.683303    2.666105   -1.875103
     53          1           0       11.379187   -0.398979   -2.423680
     54          1           0       12.299201    1.067685   -2.855903
     55          1           0       10.611414    1.218308   -2.262891
     56          1           0       12.959862    2.103739    0.661764
     57          1           0       11.897907    2.822556   -0.451749
     58          1           0       13.576584    2.543136   -0.858294
     59          1           0      -13.542387   -0.801358   -0.684823
     60          1           0      -13.902818   -1.803937    0.895372
     61          1           0      -12.412540   -2.137187   -0.073258
     62          1           0      -10.889834   -0.072920    2.806509
     63          1           0      -11.048892   -1.608310    1.779600
     64          1           0      -12.453309   -1.160790    2.908550
     65          1           0       10.029340    1.831288    0.280454
     66          1           0      -10.178250   -1.568895   -0.327034
     67          1           0        9.658724   -1.101938    2.304059
     68          1           0       11.028085   -2.218856    2.664447
     69          1           0        9.683315   -2.454623    1.350556
     70          1           0       -9.625362    1.278293   -1.953644
     71          1           0       -9.538554    2.884257   -1.503682
     72          1           0      -10.805111    2.396246   -2.526338
     73          1           0        8.324202   -0.585160    0.157197
     74          1           0       -8.507894    0.793039   -0.242773
     75          1           0        8.054416    2.723929    1.993440
     76          1           0        6.704445    3.188490    0.892622
     77          1           0        8.321083    3.155126    0.101403
     78          1           0       -8.604681   -2.599345   -1.400458
     79          1           0       -8.475335   -3.128532    0.150028
     80          1           0       -7.130638   -3.335029   -0.757197
     81          1           0        6.110967   -0.496751    0.196448
     82          1           0       -6.250426    0.351207   -0.198485
     83          1           0        4.822280    2.520156    0.914040
     84          1           0       -4.942460   -2.642771   -0.757838
     85          1           0        3.882029   -0.207196   -0.023344
     86          1           0       -3.427476    0.069189   -0.048877
     87          1           0        2.472369    2.976803    1.547126
     88          1           0        1.242348    3.074129    0.693824
     89          1           0        2.900174    3.467108    0.009192
     90          1           0       -2.629255   -3.420176   -1.960694
     91          1           0       -3.583054   -3.573899   -0.267240
     92          1           0       -1.523297   -3.738140   -0.239587
     93          1           0        0.247416    1.100450   -0.052111
     94          1           0       -1.589201   -0.003016   -0.219957
     95          1           0        2.133692   -1.393686    0.137780
     96          1           0        0.215847   -2.617350   -0.717359
 ---------------------------------------------------------------------

 SCF Done:  E(RB3LYP) =  -1557.54063886     A.U. after   17 cycles

 Excitation energies and oscillator strengths:

 Excited State   1:      Singlet-A      2.0130 eV  615.93 nm  f=3.1142  <S**2>=0.000
     147 ->149         0.11090
     148 ->149         0.69768
     148 <-149        -0.12500
 This state for optimization and/or second-order correction.
 Total Energy, E(TD-HF/TD-DFT) =  -1557.46666394
 Copying the excited state density for this state as the 1-particle RhoCI density.

 The electronic state is 1-A.
 Alpha  occ. eigenvalues --  -10.21924 -10.21778 -10.20923 -10.20627 -10.20462
 Alpha  occ. eigenvalues --  -10.20325 -10.20125 -10.20108 -10.20047 -10.20032
 Alpha  occ. eigenvalues --  -10.20030 -10.19952 -10.19931 -10.19739 -10.19507
 Alpha  occ. eigenvalues --  -10.19450 -10.19298 -10.19297 -10.19277 -10.19220
 Alpha  occ. eigenvalues --  -10.19187 -10.19183 -10.19160 -10.19128 -10.19124
 Alpha  occ. eigenvalues --  -10.19048 -10.18543 -10.18385 -10.18252 -10.18116
 Alpha  occ. eigenvalues --  -10.18109 -10.18014 -10.17911 -10.17778 -10.17464
 Alpha  occ. eigenvalues --  -10.17044 -10.16763 -10.16747 -10.16521 -10.15299
 Alpha  occ. eigenvalues --   -0.84411  -0.84343  -0.83704  -0.83480  -0.82377
 Alpha  occ. eigenvalues --   -0.82105  -0.79108  -0.78801  -0.78423  -0.77827
 Alpha  occ. eigenvalues --   -0.76710  -0.75767  -0.74783  -0.72949  -0.72754
 Alpha  occ. eigenvalues --   -0.69870  -0.68883  -0.68332  -0.68220  -0.67675
 Alpha  occ. eigenvalues --   -0.67557  -0.67066  -0.66946  -0.66168  -0.65725
 Alpha  occ. eigenvalues --   -0.62878  -0.61824  -0.59463  -0.58455  -0.56787
 Alpha  occ. eigenvalues --   -0.56372  -0.55037  -0.54588  -0.53612  -0.52803
 Alpha  occ. eigenvalues --   -0.52388  -0.51495  -0.50542  -0.50227  -0.49341
 Alpha  occ. eigenvalues --   -0.48397  -0.47387  -0.46896  -0.46572  -0.46455
 Alpha  occ. eigenvalues --   -0.45738  -0.45390  -0.45025  -0.44517  -0.44306
 Alpha  occ. eigenvalues --   -0.43800  -0.43428  -0.43296  -0.42825  -0.42588
 Alpha  occ. eigenvalues --   -0.42409  -0.41984  -0.41840  -0.41373  -0.41089
 Alpha  occ. eigenvalues --   -0.40912  -0.40606  -0.40304  -0.40031  -0.39934
 Alpha  occ. eigenvalues --   -0.39323  -0.39127  -0.38806  -0.38349  -0.38341
 Alpha  occ. eigenvalues --   -0.38030  -0.37697  -0.37275  -0.37174  -0.36637
 Alpha  occ. eigenvalues --   -0.36490  -0.35913  -0.35680  -0.35345  -0.35268
 Alpha  occ. eigenvalues --   -0.34969  -0.34572  -0.34350  -0.33591  -0.33450
 Alpha  occ. eigenvalues --   -0.33277  -0.33212  -0.33044  -0.32952  -0.32593
 Alpha  occ. eigenvalues --   -0.32551  -0.32010  -0.31506  -0.31149  -0.30699
 Alpha  occ. eigenvalues --   -0.30117  -0.29825  -0.29515  -0.29282  -0.28546
 Alpha  occ. eigenvalues --   -0.27889  -0.27411  -0.26196  -0.24258  -0.22763
 Alpha  occ. eigenvalues --   -0.21056  -0.18630  -0.15964
 Alpha virt. eigenvalues --   -0.08729  -0.05518  -0.02083   0.00184   0.02083
 Alpha virt. eigenvalues --    0.03992   0.05351   0.05522   0.06520   0.07334
 Alpha virt. eigenvalues --    0.07451   0.07798   0.08110   0.08258   0.08885

 Mulliken charges:
               1
     1  C   -0.000450
     2  C    0.006058
     3  C   -0.170911
     4  C   -0.149126
     5  C   -0.184199
     6  C   -0.188823
     7  C    0.067981
     8  C    0.033956
     9  C   -0.200766
    10  C   -0.219027
    11  C    0.020621
    12  C    0.049639
    13  C   -0.287364
    14  C   -0.300442
    15  C   -0.295836
    16  C   -0.276510
    17  C   -0.138606
    18  C   -0.160467
    19  C   -0.344892
    20  C   -0.319828
    21  C   -0.069795
    22  C   -0.084711
    23  C    0.146666
    24  C    0.118896
    25  C   -0.361624
    26  C   -0.386673
    27  C   -0.143183
    28  C   -0.118650
    29  C   -0.085863
    30  C   -0.115344
    31  C   -0.087622
    32  C   -0.063802
    33  C    0.109990
    34  C    0.118002
    35  C   -0.385724
    36  C   -0.347553
    37  C   -0.142980
    38  C   -0.104096
    39  C   -0.097426
    40  C   -0.111930
    41  H    0.103778
    42  H    0.081075
    43  H    0.090887
    44  H    0.094919
    45  H    0.045722
    46  H    0.100352
    47  H    0.084362
    48  H    0.106616
    49  H    0.104461
    50  H    0.117083
    51  H    0.106990
    52  H    0.050223
    53  H    0.095094
    54  H    0.113003
    55  H    0.094157
    56  H    0.096988
    57  H    0.097827
    58  H    0.054531
    59  H    0.093212
    60  H    0.091077
    61  H    0.103244
    62  H    0.081307
    63  H    0.101491
    64  H    0.073129
    65  H    0.075819
    66  H    0.071277
    67  H    0.127033
    68  H    0.090804
    69  H    0.116990
    70  H    0.121014
    71  H    0.117479
    72  H    0.099941
    73  H    0.065012
    74  H    0.078089
    75  H    0.090073
    76  H    0.109051
    77  H    0.117700
    78  H    0.124990
    79  H    0.121401
    80  H    0.113511
    81  H    0.061000
    82  H    0.067964
    83  H    0.086382
    84  H    0.068405
    85  H    0.075866
    86  H    0.063254
    87  H    0.137743
    88  H    0.103444
    89  H    0.123555
    90  H    0.091056
    91  H    0.109085
    92  H    0.123010
    93  H    0.080943
    94  H    0.082526
    95  H    0.085344
    96  H    0.091123
 Sum of Mulliken charges =  -0.00000

 Dipole moment (field-independent basis, Debye):
    X=             -0.4051    Y=              0.0596    Z=              0.0017  Tot=              0.4095
 Quadrupole moment (field-independent basis, Debye-Ang):
   XX=           -226.6292   YY=           -232.7486   ZZ=           -258.1205
   XY=             -4.2757   XZ=              5.1269   YZ=              2.3111

 Normal termination of Gaussian 16 at Mon Jul 29 19:28:14 2019.
