 Gaussian 16, Revision A.03,
 Gaussian 16:  ES64L-G16RevA.03 25-Dec-2016

 ---------------------------------
 # td=(NStates=1) B3LYP/6-31G(d,p)
 ---------------------------------

 --
 TD
 --
 Symbolic Z-matrix:
 Charge =  0 Multiplicity = 1

                         Standard orientation:
 ---------------------------------------------------------------------
 Center     Atomic      Atomic             Coordinates (Angstroms)
 Number     Number       Type             X           Y           Z
 ---------------------------------------------------------------------
      1          6           0       12.130380    0.482703   -0.664653
      2          6           0      -12.123171   -0.065996    0.872143
      3          6           0       13.351137   -0.384789   -0.606091
      4          6           0      -13.131710    1.070139    1.226233
      5          6           0       13.008811   -1.949194   -0.386163
      6          6           0      -13.400367    2.032602    0.099573
      7          6           0       10.975208    0.059587    0.335589
      8          6           0      -11.024919    0.435322   -0.052019
      9          6           0       12.227594   -2.175134    0.768739
     10          6           0      -12.136673    2.665016   -0.524179
     11          6           0       11.127977   -1.120156    1.074692
     12          6           0      -10.926306    1.696589   -0.673342
     13          6           0       11.556115    0.390550   -2.109049
     14          6           0       12.617064    1.957435   -0.344685
     15          6           0      -13.056964   -1.143144    0.193095
     16          6           0      -11.535572   -0.661262    2.248081
     17          6           0        9.792348    0.872841    0.414738
     18          6           0       -9.834006   -0.533977   -0.129997
     19          6           0       10.052018   -1.611830    2.065142
     20          6           0       -9.876671    2.172726   -1.516413
     21          6           0        8.572504    0.505550    0.241254
     22          6           0       -8.517430   -0.319612   -0.198185
     23          6           0        7.381852    1.424590    0.297851
     24          6           0       -7.472016   -1.380583   -0.327794
     25          6           0        7.684351    2.954766    0.440179
     26          6           0       -7.968011   -2.732119   -0.710639
     27          6           0        6.254289    0.789366    0.183014
     28          6           0       -6.228944   -0.960443   -0.350967
     29          6           0        4.940018    1.522139    0.296384
     30          6           0       -4.972282   -1.799693   -0.595605
     31          6           0        3.746126    0.810151    0.214628
     32          6           0       -3.733621   -1.178002   -0.506895
     33          6           0        2.381465    1.271301    0.256906
     34          6           0       -2.539871   -1.898961   -0.523397
     35          6           0        2.190093    2.839816    0.427512
     36          6           0       -2.474041   -3.362441   -0.877528
     37          6           0        1.275988    0.583573    0.161681
     38          6           0       -1.351100   -1.072602   -0.410669
     39          6           0        1.085809   -0.854796   -0.074716
     40          6           0        0.077297   -1.580325   -0.298299
     41          1           0       13.865118   -0.160784    0.296060
     42          1           0       14.155811   -0.146040   -1.555788
     43          1           0      -12.690337    1.568271    2.105800
     44          1           0      -14.098733    0.753866    1.754278
     45          1           0       14.098179   -2.259470   -0.370818
     46          1           0       12.458106   -2.492897   -1.168555
     47          1           0      -14.175754    2.895980    0.492511
     48          1           0      -13.764988    1.607037   -0.751105
     49          1           0       12.963114   -2.254890    1.714898
     50          1           0       11.761081   -3.134390    0.749874
     51          1           0      -11.778668    3.330312    0.079449
     52          1           0      -12.624566    3.098693   -1.553892
     53          1           0       11.265204   -0.656525   -2.497726
     54          1           0       12.408248    0.811514   -2.818684
     55          1           0       10.630449    0.918234   -2.174959
     56          1           0       13.041041    2.193854    0.736744
     57          1           0       11.706295    2.549754   -0.701431
     58          1           0       13.159019    2.429879   -1.302958
     59          1           0      -13.378373   -0.799967   -0.732204
     60          1           0      -13.841675   -1.305037    0.880329
     61          1           0      -12.303479   -1.968228   -0.145682
     62          1           0      -10.883479   -0.035570    2.792339
     63          1           0      -10.745441   -1.564717    2.091969
     64          1           0      -12.331209   -0.721361    2.860662
     65          1           0        9.858792    1.809612    0.616205
     66          1           0      -10.254736   -1.669601   -0.385927
     67          1           0        9.180396   -0.815711    2.370176
     68          1           0       10.681502   -1.898907    2.871683
     69          1           0        9.588582   -2.489913    1.697315
     70          1           0       -9.038765    1.422739   -1.643915
     71          1           0       -9.282285    2.924135   -1.069015
     72          1           0      -10.273923    2.403420   -2.594675
     73          1           0        8.340990   -0.643511    0.193008
     74          1           0       -8.202717    0.667250    0.002118
     75          1           0        8.174210    3.073642    1.483241
     76          1           0        6.811184    3.517359    0.481612
     77          1           0        8.447347    3.282587   -0.174071
     78          1           0       -8.536389   -2.872940   -1.549476
     79          1           0       -8.477544   -3.064993    0.206962
     80          1           0       -7.058629   -3.299452   -0.817746
     81          1           0        6.069880   -0.338986    0.127620
     82          1           0       -6.006231    0.154815    0.132309
     83          1           0        4.942414    2.498615    0.650731
     84          1           0       -5.049631   -2.831845   -0.751202
     85          1           0        3.907488   -0.275579    0.064765
     86          1           0       -3.528494   -0.252145   -0.246660
     87          1           0        2.652677    3.293104    1.346413
     88          1           0        1.152986    3.147618    0.400960
     89          1           0        2.621644    3.321147   -0.755922
     90          1           0       -3.253079   -3.512768   -1.640238
     91          1           0       -2.764831   -3.894724    0.066946
     92          1           0       -1.558650   -3.578463   -1.197870
     93          1           0        0.218821    0.908798    0.283608
     94          1           0       -1.432541   -0.002413   -0.407626
     95          1           0        2.159685   -1.475491    0.070643
     96          1           0        0.266290   -2.675144   -0.229973
 ---------------------------------------------------------------------

 SCF Done:  E(RB3LYP) =  -1557.52044029     A.U. after   15 cycles

 Excitation energies and oscillator strengths:

 Excited State   1:      Singlet-A      2.6238 eV  472.54 nm  f=2.5623  <S**2>=0.000
     148 ->149         0.69735
 This state for optimization and/or second-order correction.
 Total Energy, E(TD-HF/TD-DFT) =  -1557.42401770
 Copying the excited state density for this state as the 1-particle RhoCI density.

 The electronic state is 1-A.
 Alpha  occ. eigenvalues --  -10.20688 -10.20345 -10.20294 -10.20125 -10.20104
 Alpha  occ. eigenvalues --  -10.20044 -10.19908 -10.19800 -10.19614 -10.19576
 Alpha  occ. eigenvalues --  -10.19539 -10.19457 -10.19432 -10.19396 -10.19357
 Alpha  occ. eigenvalues --  -10.19259 -10.19230 -10.19190 -10.19161 -10.19038
 Alpha  occ. eigenvalues --  -10.18829 -10.18698 -10.18662 -10.18661 -10.18639
 Alpha  occ. eigenvalues --  -10.18375 -10.18009 -10.17947 -10.17937 -10.17916
 Alpha  occ. eigenvalues --  -10.17853 -10.17840 -10.17828 -10.17697 -10.17652
 Alpha  occ. eigenvalues --  -10.17651 -10.17347 -10.17035 -10.16869 -10.15865
 Alpha  occ. eigenvalues --   -0.84548  -0.84085  -0.83585  -0.83048  -0.82418
 Alpha  occ. eigenvalues --   -0.81770  -0.79330  -0.78337  -0.78181  -0.77710
 Alpha  occ. eigenvalues --   -0.76660  -0.74716  -0.74036  -0.72574  -0.72327
 Alpha  occ. eigenvalues --   -0.70107  -0.69809  -0.68806  -0.68340  -0.67819
 Alpha  occ. eigenvalues --   -0.66955  -0.66900  -0.66675  -0.66315  -0.66182
 Alpha  occ. eigenvalues --   -0.62473  -0.61555  -0.59516  -0.59062  -0.56319
 Alpha  occ. eigenvalues --   -0.56266  -0.55120  -0.54714  -0.54082  -0.53632
 Alpha  occ. eigenvalues --   -0.53030  -0.51587  -0.50717  -0.49542  -0.48811
 Alpha  occ. eigenvalues --   -0.48172  -0.47688  -0.47230  -0.46366  -0.45994
 Alpha  occ. eigenvalues --   -0.45440  -0.44928  -0.44704  -0.44243  -0.43853
 Alpha  occ. eigenvalues --   -0.43733  -0.43570  -0.42984  -0.42534  -0.42466
 Alpha  occ. eigenvalues --   -0.42079  -0.41900  -0.41629  -0.41097  -0.40948
 Alpha  occ. eigenvalues --   -0.40902  -0.40488  -0.40345  -0.40276  -0.40137
 Alpha  occ. eigenvalues --   -0.39883  -0.39480  -0.39192  -0.38942  -0.38381
 Alpha  occ. eigenvalues --   -0.38123  -0.37601  -0.37277  -0.36858  -0.36291
 Alpha  occ. eigenvalues --   -0.36081  -0.35849  -0.35549  -0.35376  -0.34858
 Alpha  occ. eigenvalues --   -0.34735  -0.34535  -0.34206  -0.34055  -0.33695
 Alpha  occ. eigenvalues --   -0.33216  -0.32953  -0.32742  -0.32687  -0.32466
 Alpha  occ. eigenvalues --   -0.32019  -0.31788  -0.31688  -0.31218  -0.30929
 Alpha  occ. eigenvalues --   -0.30071  -0.29712  -0.28982  -0.28763  -0.28199
 Alpha  occ. eigenvalues --   -0.27361  -0.27169  -0.25921  -0.24545  -0.22293
 Alpha  occ. eigenvalues --   -0.21159  -0.19603  -0.17436
 Alpha virt. eigenvalues --   -0.07141  -0.04405  -0.00954   0.00364   0.02945
 Alpha virt. eigenvalues --    0.03941   0.06108   0.06685   0.06885   0.07090
 Alpha virt. eigenvalues --    0.07195   0.07986   0.08170   0.08317   0.08538

 Mulliken charges:
               1
     1  C    0.012899
     2  C   -0.016201
     3  C   -0.153441
     4  C   -0.180650
     5  C   -0.188032
     6  C   -0.178320
     7  C    0.053323
     8  C    0.059717
     9  C   -0.203788
    10  C   -0.199507
    11  C    0.040309
    12  C    0.056973
    13  C   -0.295662
    14  C   -0.306428
    15  C   -0.279571
    16  C   -0.304773
    17  C   -0.116534
    18  C   -0.126367
    19  C   -0.355919
    20  C   -0.376055
    21  C   -0.074633
    22  C   -0.094325
    23  C    0.116383
    24  C    0.111725
    25  C   -0.371148
    26  C   -0.364327
    27  C   -0.130170
    28  C   -0.129668
    29  C   -0.080162
    30  C   -0.128053
    31  C   -0.120919
    32  C   -0.049575
    33  C    0.127282
    34  C    0.094265
    35  C   -0.345664
    36  C   -0.358985
    37  C   -0.129065
    38  C   -0.161313
    39  C   -0.060779
    40  C   -0.094378
    41  H    0.095662
    42  H    0.057206
    43  H    0.085148
    44  H    0.074844
    45  H    0.091776
    46  H    0.094035
    47  H    0.061143
    48  H    0.113678
    49  H    0.072440
    50  H    0.109172
    51  H    0.121081
    52  H    0.069637
    53  H    0.097805
    54  H    0.078624
    55  H    0.108260
    56  H    0.107331
    57  H    0.088337
    58  H    0.082816
    59  H    0.112394
    60  H    0.108035
    61  H    0.079215
    62  H    0.110220
    63  H    0.086234
    64  H    0.106109
    65  H    0.062393
    66  H    0.058637
    67  H    0.100859
    68  H    0.113017
    69  H    0.117506
    70  H    0.112029
    71  H    0.123359
    72  H    0.100745
    73  H    0.068180
    74  H    0.078460
    75  H    0.113503
    76  H    0.120071
    77  H    0.141122
    78  H    0.135612
    79  H    0.124119
    80  H    0.099760
    81  H    0.087434
    82  H    0.063675
    83  H    0.083537
    84  H    0.091095
    85  H    0.073220
    86  H    0.066578
    87  H    0.114704
    88  H    0.117023
    89  H    0.065641
    90  H    0.119997
    91  H    0.119561
    92  H    0.124873
    93  H    0.080149
    94  H    0.085558
    95  H    0.042249
    96  H    0.085670
 Sum of Mulliken charges =  -0.00000

 Dipole moment (field-independent basis, Debye):
    X=              0.1102    Y=              0.1508    Z=              0.6985  Tot=              0.7230
 Quadrupole moment (field-independent basis, Debye-Ang):
   XX=           -241.7516   YY=           -235.6400   ZZ=           -254.3190
   XY=             -0.3265   XZ=              3.0498   YZ=              3.7390

 Normal termination of Gaussian 16 at Fri Jul 26 19:38:19 2019.
