 Gaussian 16, Revision A.03,
 Gaussian 16:  ES64L-G16RevA.03 25-Dec-2016

 ---------------------------------
 # td=(NStates=1) B3LYP/6-31G(d,p)
 ---------------------------------

 --
 TD
 --
 Symbolic Z-matrix:
 Charge =  0 Multiplicity = 1

                         Standard orientation:
 ---------------------------------------------------------------------
 Center     Atomic      Atomic             Coordinates (Angstroms)
 Number     Number       Type             X           Y           Z
 ---------------------------------------------------------------------
      1          6           0      -12.094317   -0.487479   -0.784909
      2          6           0       12.073909   -0.076615    0.938592
      3          6           0      -13.320623    0.356359   -0.672742
      4          6           0       13.042550   -1.273726    1.222128
      5          6           0      -13.040518    1.887526   -0.481053
      6          6           0       13.454963   -1.997551   -0.052087
      7          6           0      -10.965317   -0.114653    0.244420
      8          6           0       10.993138   -0.486027   -0.140535
      9          6           0      -12.195540    2.178574    0.804395
     10          6           0       12.136220   -2.539756   -0.674889
     11          6           0      -11.173486    1.133031    1.070620
     12          6           0       11.010975   -1.552170   -0.770670
     13          6           0      -11.452057   -0.316011   -2.174342
     14          6           0      -12.468501   -1.962297   -0.589938
     15          6           0       12.846630    1.183145    0.434937
     16          6           0       11.381841    0.400320    2.356174
     17          6           0       -9.854478   -0.959906    0.436469
     18          6           0        9.835794    0.547675   -0.269984
     19          6           0      -10.137551    1.437292    2.188257
     20          6           0        9.982605   -1.949227   -1.935639
     21          6           0       -8.539703   -0.566958    0.269657
     22          6           0        8.503732    0.323056   -0.217442
     23          6           0       -7.428799   -1.323998    0.414049
     24          6           0        7.452410    1.355296   -0.287032
     25          6           0       -7.625148   -2.812071    0.668106
     26          6           0        7.862462    2.702549   -0.474579
     27          6           0       -6.239801   -0.840714    0.136296
     28          6           0        6.135180    0.954144   -0.403172
     29          6           0       -4.891621   -1.432459    0.280098
     30          6           0        4.988501    1.637294   -0.576537
     31          6           0       -3.756720   -0.807001    0.126153
     32          6           0        3.783011    1.166881   -0.376447
     33          6           0       -2.391129   -1.313782    0.341685
     34          6           0        2.470172    1.916499   -0.522798
     35          6           0       -2.154880   -2.748493    0.624233
     36          6           0        2.547540    3.353942   -0.785844
     37          6           0       -1.229490   -0.556430    0.215402
     38          6           0        1.315212    1.123702   -0.309500
     39          6           0       -1.184933    0.881661   -0.169491
     40          6           0       -0.046284    1.645265   -0.215966
     41          1           0      -13.852506   -0.128626    0.142313
     42          1           0      -13.858408    0.294293   -1.743391
     43          1           0       12.470919   -1.832227    1.837849
     44          1           0       13.992159   -0.797209    1.824605
     45          1           0      -14.017541    2.295754   -0.454871
     46          1           0      -12.605238    2.209307   -1.426313
     47          1           0       14.066656   -2.821660    0.194732
     48          1           0       13.986599   -1.198757   -0.739783
     49          1           0      -12.797597    2.316079    1.781213
     50          1           0      -11.654693    3.136549    0.662467
     51          1           0       11.944356   -3.457366   -0.107438
     52          1           0       12.339353   -3.104326   -1.638055
     53          1           0      -11.189351    0.675034   -2.418617
     54          1           0      -12.118144   -0.738781   -2.962212
     55          1           0      -10.466440   -0.886839   -2.278810
     56          1           0      -12.830447   -2.139723    0.488795
     57          1           0      -11.642633   -2.737933   -0.523938
     58          1           0      -13.141089   -2.337442   -1.341312
     59          1           0       13.601014    1.108826   -0.420911
     60          1           0       13.317092    1.624623    1.249250
     61          1           0       12.426721    1.946137    0.010147
     62          1           0       10.809239   -0.326222    2.920613
     63          1           0       10.889343    1.339992    1.981977
     64          1           0       12.035458    0.636662    3.099682
     65          1           0      -10.148130   -2.019898    0.750945
     66          1           0       10.108002    1.655477    0.115642
     67          1           0       -9.458492    0.810415    2.362121
     68          1           0      -10.505659    1.733091    3.046418
     69          1           0       -9.468175    2.326125    1.857331
     70          1           0        9.156819   -1.019506   -1.816686
     71          1           0        9.573571   -2.923312   -1.386138
     72          1           0       10.431311   -2.263099   -2.797332
     73          1           0       -8.478293    0.460470   -0.054138
     74          1           0        8.070026   -0.499800   -0.178268
     75          1           0       -7.863511   -2.919954    2.009913
     76          1           0       -6.647374   -3.351497    0.409943
     77          1           0       -8.491048   -3.185103    0.097783
     78          1           0        8.624853    2.963693   -1.440576
     79          1           0        8.445226    3.153181    0.354962
     80          1           0        7.031718    3.620312   -0.656682
     81          1           0       -6.199642    0.381358   -0.345994
     82          1           0        5.926831   -0.013915   -0.257230
     83          1           0       -4.927996   -2.505517    0.348714
     84          1           0        4.802973    2.617056   -0.601627
     85          1           0       -3.645746    0.226624    0.022016
     86          1           0        3.510886    0.118536   -0.165864
     87          1           0       -2.678527   -3.002553    1.560372
     88          1           0       -0.948759   -2.862253    0.938480
     89          1           0       -2.290973   -3.346824   -0.301080
     90          1           0        3.565918    3.409458   -1.620024
     91          1           0        2.721449    3.976642    0.028502
     92          1           0        1.533379    3.938941   -1.344053
     93          1           0       -0.338841   -1.128238    0.419650
     94          1           0        1.385605    0.015798   -0.081725
     95          1           0       -2.152158    1.399372   -0.103919
     96          1           0       -0.105776    2.757467   -0.625909
 ---------------------------------------------------------------------

 SCF Done:  E(RB3LYP) =  -1557.45628929     A.U. after   15 cycles

 Excitation energies and oscillator strengths:

 Excited State   1:      Singlet-A      2.3105 eV  536.62 nm  f=2.6918  <S**2>=0.000
     148 ->149         0.70216
 This state for optimization and/or second-order correction.
 Total Energy, E(TD-HF/TD-DFT) =  -1557.37138162
 Copying the excited state density for this state as the 1-particle RhoCI density.

 The electronic state is 1-A.
 Alpha  occ. eigenvalues --  -10.21725 -10.21358 -10.21130 -10.20882 -10.20643
 Alpha  occ. eigenvalues --  -10.20482 -10.20173 -10.20144 -10.20107 -10.20075
 Alpha  occ. eigenvalues --  -10.19939 -10.19781 -10.19682 -10.19636 -10.19630
 Alpha  occ. eigenvalues --  -10.19610 -10.19384 -10.19371 -10.19288 -10.18980
 Alpha  occ. eigenvalues --  -10.18927 -10.18818 -10.18745 -10.18519 -10.18362
 Alpha  occ. eigenvalues --  -10.18271 -10.18198 -10.18144 -10.17917 -10.17843
 Alpha  occ. eigenvalues --  -10.17781 -10.17669 -10.17550 -10.17540 -10.17257
 Alpha  occ. eigenvalues --  -10.16886 -10.16786 -10.16463 -10.15498 -10.15423
 Alpha  occ. eigenvalues --   -0.84848  -0.84819  -0.84221  -0.83738  -0.82753
 Alpha  occ. eigenvalues --   -0.81806  -0.79356  -0.78178  -0.77849  -0.77413
 Alpha  occ. eigenvalues --   -0.76623  -0.75731  -0.74831  -0.72433  -0.71809
 Alpha  occ. eigenvalues --   -0.69499  -0.68870  -0.68511  -0.68235  -0.67952
 Alpha  occ. eigenvalues --   -0.67859  -0.67628  -0.66872  -0.66211  -0.65873
 Alpha  occ. eigenvalues --   -0.63235  -0.62212  -0.60418  -0.59475  -0.58324
 Alpha  occ. eigenvalues --   -0.56123  -0.56040  -0.55031  -0.54478  -0.53480
 Alpha  occ. eigenvalues --   -0.52543  -0.51534  -0.50990  -0.50276  -0.48991
 Alpha  occ. eigenvalues --   -0.47940  -0.47796  -0.47036  -0.46667  -0.46058
 Alpha  occ. eigenvalues --   -0.45676  -0.45160  -0.45056  -0.44521  -0.43950
 Alpha  occ. eigenvalues --   -0.43799  -0.43465  -0.42883  -0.42648  -0.42161
 Alpha  occ. eigenvalues --   -0.42017  -0.41562  -0.41307  -0.41026  -0.40940
 Alpha  occ. eigenvalues --   -0.40728  -0.40385  -0.40136  -0.39888  -0.39695
 Alpha  occ. eigenvalues --   -0.38842  -0.38754  -0.38532  -0.38055  -0.37783
 Alpha  occ. eigenvalues --   -0.37709  -0.37370  -0.37109  -0.36560  -0.36416
 Alpha  occ. eigenvalues --   -0.35972  -0.35286  -0.35265  -0.35061  -0.34937
 Alpha  occ. eigenvalues --   -0.34438  -0.34228  -0.34193  -0.33817  -0.33609
 Alpha  occ. eigenvalues --   -0.33543  -0.33391  -0.33171  -0.33086  -0.32988
 Alpha  occ. eigenvalues --   -0.32524  -0.32105  -0.31873  -0.31702  -0.31003
 Alpha  occ. eigenvalues --   -0.30733  -0.30345  -0.30188  -0.29084  -0.28799
 Alpha  occ. eigenvalues --   -0.28559  -0.26752  -0.26222  -0.24342  -0.22736
 Alpha  occ. eigenvalues --   -0.20939  -0.18838  -0.17158
 Alpha virt. eigenvalues --   -0.08068  -0.05499  -0.02349   0.00183   0.02178
 Alpha virt. eigenvalues --    0.03505   0.05753   0.06082   0.06531   0.06941
 Alpha virt. eigenvalues --    0.07243   0.07658   0.07817   0.08062   0.08311

 Mulliken charges:
               1
     1  C    0.029046
     2  C   -0.020486
     3  C   -0.168928
     4  C   -0.158274
     5  C   -0.192736
     6  C   -0.174875
     7  C    0.025026
     8  C    0.116917
     9  C   -0.222743
    10  C   -0.242355
    11  C    0.049319
    12  C    0.050906
    13  C   -0.301156
    14  C   -0.317354
    15  C   -0.310408
    16  C   -0.313437
    17  C   -0.141477
    18  C   -0.169269
    19  C   -0.338534
    20  C   -0.338487
    21  C   -0.094434
    22  C   -0.038107
    23  C    0.182192
    24  C    0.149843
    25  C   -0.337657
    26  C   -0.389374
    27  C   -0.138289
    28  C   -0.127733
    29  C   -0.093850
    30  C   -0.030385
    31  C   -0.053219
    32  C   -0.101069
    33  C    0.085750
    34  C    0.121885
    35  C   -0.367842
    36  C   -0.364192
    37  C   -0.116801
    38  C   -0.119908
    39  C   -0.091295
    40  C   -0.100431
    41  H    0.094887
    42  H    0.068020
    43  H    0.101886
    44  H    0.059445
    45  H    0.103452
    46  H    0.105316
    47  H    0.094999
    48  H    0.087422
    49  H    0.097874
    50  H    0.112788
    51  H    0.102560
    52  H    0.084194
    53  H    0.105723
    54  H    0.085844
    55  H    0.093811
    56  H    0.088960
    57  H    0.089598
    58  H    0.105263
    59  H    0.082530
    60  H    0.103491
    61  H    0.112077
    62  H    0.101016
    63  H    0.094406
    64  H    0.109689
    65  H    0.085370
    66  H    0.072012
    67  H    0.123451
    68  H    0.111926
    69  H    0.081418
    70  H    0.100913
    71  H    0.087914
    72  H    0.124412
    73  H    0.083592
    74  H    0.063080
    75  H    0.062436
    76  H    0.102964
    77  H    0.129091
    78  H    0.092060
    79  H    0.121305
    80  H    0.079856
    81  H    0.041563
    82  H    0.067354
    83  H    0.083546
    84  H    0.062818
    85  H    0.068136
    86  H    0.063198
    87  H    0.123040
    88  H    0.071440
    89  H    0.131337
    90  H    0.083816
    91  H    0.150841
    92  H    0.081049
    93  H    0.081055
    94  H    0.083746
    95  H    0.093915
    96  H    0.070317
 Sum of Mulliken charges =  -0.00000

 Dipole moment (field-independent basis, Debye):
    X=             -1.0645    Y=             -0.0700    Z=              0.7813  Tot=              1.3223
 Quadrupole moment (field-independent basis, Debye-Ang):
   XX=           -231.0298   YY=           -234.5416   ZZ=           -254.0365
   XY=             -4.0777   XZ=              5.4769   YZ=             -0.4562

 Normal termination of Gaussian 16 at Sat Jul 27 23:57:52 2019.
