 Gaussian 16, Revision A.03,
 Gaussian 16:  ES64L-G16RevA.03 25-Dec-2016

 ---------------------------------
 # td=(NStates=1) B3LYP/6-31G(d,p)
 ---------------------------------

 --
 TD
 --
 Symbolic Z-matrix:
 Charge =  0 Multiplicity = 1

                         Standard orientation:
 ---------------------------------------------------------------------
 Center     Atomic      Atomic             Coordinates (Angstroms)
 Number     Number       Type             X           Y           Z
 ---------------------------------------------------------------------
      1          6           0       12.182601    0.488489   -0.742056
      2          6           0      -12.183777   -0.080591    0.910190
      3          6           0       13.427874   -0.323131   -0.651735
      4          6           0      -13.087542    1.222920    1.249145
      5          6           0       13.267358   -1.766849   -0.551292
      6          6           0      -13.381400    2.035543    0.112063
      7          6           0       11.075518    0.012170    0.216441
      8          6           0      -11.064971    0.321889   -0.030024
      9          6           0       12.391656   -2.039494    0.775755
     10          6           0      -12.128814    2.603955   -0.522896
     11          6           0       11.237738   -1.131433    0.934652
     12          6           0      -11.090877    1.586351   -0.733094
     13          6           0       11.672356    0.585620   -2.234021
     14          6           0       12.496892    2.001109   -0.337273
     15          6           0      -13.154649   -1.115661    0.244822
     16          6           0      -11.481879   -0.608531    2.239354
     17          6           0        9.851645    0.860267    0.367821
     18          6           0       -9.974951   -0.632827   -0.258988
     19          6           0       10.236931   -1.716882    2.016303
     20          6           0      -10.137733    1.887512   -1.814731
     21          6           0        8.582223    0.474965    0.377692
     22          6           0       -8.647619   -0.255519   -0.218519
     23          6           0        7.400302    1.307670    0.473630
     24          6           0       -7.602451   -1.141365   -0.337950
     25          6           0        7.708621    2.749799    0.852261
     26          6           0       -7.907998   -2.700686   -0.468374
     27          6           0        6.148236    0.692663    0.377872
     28          6           0       -6.220916   -0.833667   -0.311906
     29          6           0        4.825383    1.330809    0.459346
     30          6           0       -4.981197   -1.576116   -0.433607
     31          6           0        3.671861    0.722372    0.208895
     32          6           0       -3.762196   -1.106621   -0.487048
     33          6           0        2.436387    1.319785    0.108179
     34          6           0       -2.480500   -1.798372   -0.599955
     35          6           0        2.216206    2.744409    0.469731
     36          6           0       -2.622160   -3.270225   -0.652122
     37          6           0        1.313557    0.574881   -0.246843
     38          6           0       -1.338122   -1.125895   -0.454258
     39          6           0        1.199816   -0.936577   -0.277716
     40          6           0        0.064205   -1.672098   -0.360046
     41          1           0       14.116635    0.172029    0.172957
     42          1           0       14.092009    0.015611   -1.606780
     43          1           0      -12.711773    1.947212    2.146746
     44          1           0      -13.918566    0.764037    1.843114
     45          1           0       14.290851   -2.242388   -0.455975
     46          1           0       12.651271   -2.301829   -1.450230
     47          1           0      -13.995338    2.983039    0.651282
     48          1           0      -14.102901    1.509077   -0.453725
     49          1           0       13.068544   -1.991525    1.736112
     50          1           0       12.076823   -3.105257    0.793727
     51          1           0      -11.661128    3.223015    0.208674
     52          1           0      -12.606482    3.208660   -1.468626
     53          1           0       11.646463   -0.450024   -2.636392
     54          1           0       12.602320    0.956093   -2.591635
     55          1           0       10.624245    0.966060   -2.218638
     56          1           0       12.784643    1.921927    0.688793
     57          1           0       11.618153    2.745808   -0.494635
     58          1           0       13.406495    2.384892   -0.930092
     59          1           0      -13.702454   -0.527969   -0.522997
     60          1           0      -13.767234   -1.649644    1.022980
     61          1           0      -12.398881   -1.927978   -0.161223
     62          1           0      -10.903542    0.138364    2.671009
     63          1           0      -10.804036   -1.405297    1.912442
     64          1           0      -11.996732   -0.990188    3.021153
     65          1           0       10.315382    1.892295    0.387210
     66          1           0      -10.283695   -1.611884   -0.535626
     67          1           0        9.654551   -0.944764    2.232242
     68          1           0       10.737743   -2.013888    2.841329
     69          1           0        9.717281   -2.561160    1.760262
     70          1           0       -9.563426    1.024920   -2.272406
     71          1           0       -9.452384    2.842328   -1.626552
     72          1           0      -10.777989    2.056467   -2.884914
     73          1           0        8.472352   -0.551727    0.250014
     74          1           0       -8.210085    0.694428    0.130532
     75          1           0        8.082166    2.763177    1.976675
     76          1           0        6.722646    3.502225    0.839415
     77          1           0        8.339567    3.237847    0.072852
     78          1           0       -8.548628   -2.849689   -1.239883
     79          1           0       -8.614553   -3.115418    0.490498
     80          1           0       -7.020080   -3.262814   -0.576660
     81          1           0        6.156162   -0.208725    0.265484
     82          1           0       -5.909982    0.267988   -0.125326
     83          1           0        4.869776    2.297718    0.939984
     84          1           0       -5.230384   -2.659759   -0.477370
     85          1           0        3.599402   -0.316343   -0.113387
     86          1           0       -3.660284    0.076121   -0.421879
     87          1           0        2.135974    3.107787    1.705675
     88          1           0        1.154825    3.164034    0.137356
     89          1           0        2.983619    3.283392   -0.037976
     90          1           0       -3.037604   -3.414841   -1.585191
     91          1           0       -3.270859   -3.832350    0.039155
     92          1           0       -1.697568   -3.903504   -0.784183
     93          1           0        0.378859    0.848871   -0.198157
     94          1           0       -1.572024   -0.086815   -0.412311
     95          1           0        1.957621   -1.493324   -0.167325
     96          1           0        0.216550   -2.720140   -0.505761
 ---------------------------------------------------------------------

 SCF Done:  E(RB3LYP) =  -1557.54069199     A.U. after   15 cycles

 Excitation energies and oscillator strengths:

 Excited State   1:      Singlet-A      2.3169 eV  535.14 nm  f=2.6685  <S**2>=0.000
     148 ->149         0.70684
 This state for optimization and/or second-order correction.
 Total Energy, E(TD-HF/TD-DFT) =  -1557.45554839
 Copying the excited state density for this state as the 1-particle RhoCI density.

 The electronic state is 1-A.
 Alpha  occ. eigenvalues --  -10.20761 -10.20496 -10.20399 -10.20143 -10.20087
 Alpha  occ. eigenvalues --  -10.19887 -10.19877 -10.19835 -10.19809 -10.19716
 Alpha  occ. eigenvalues --  -10.19681 -10.19676 -10.19410 -10.19355 -10.19273
 Alpha  occ. eigenvalues --  -10.19231 -10.19206 -10.19162 -10.19063 -10.19036
 Alpha  occ. eigenvalues --  -10.18844 -10.18843 -10.18838 -10.18660 -10.18608
 Alpha  occ. eigenvalues --  -10.18561 -10.18508 -10.18439 -10.18425 -10.18345
 Alpha  occ. eigenvalues --  -10.18209 -10.18163 -10.18048 -10.17967 -10.17724
 Alpha  occ. eigenvalues --  -10.17583 -10.17461 -10.17085 -10.15542 -10.15062
 Alpha  occ. eigenvalues --   -0.85046  -0.84966  -0.84096  -0.83506  -0.82060
 Alpha  occ. eigenvalues --   -0.81775  -0.79269  -0.78327  -0.78145  -0.77581
 Alpha  occ. eigenvalues --   -0.76972  -0.75672  -0.74684  -0.72116  -0.71703
 Alpha  occ. eigenvalues --   -0.70273  -0.69001  -0.68616  -0.68523  -0.67994
 Alpha  occ. eigenvalues --   -0.67594  -0.67586  -0.66673  -0.66420  -0.66200
 Alpha  occ. eigenvalues --   -0.63027  -0.62453  -0.60182  -0.59231  -0.57016
 Alpha  occ. eigenvalues --   -0.56812  -0.55525  -0.55485  -0.54135  -0.53386
 Alpha  occ. eigenvalues --   -0.52752  -0.51899  -0.50865  -0.50112  -0.49092
 Alpha  occ. eigenvalues --   -0.48430  -0.47655  -0.47336  -0.46765  -0.46356
 Alpha  occ. eigenvalues --   -0.45801  -0.44995  -0.44724  -0.44387  -0.44236
 Alpha  occ. eigenvalues --   -0.43460  -0.43218  -0.42921  -0.42566  -0.42302
 Alpha  occ. eigenvalues --   -0.42186  -0.42150  -0.41931  -0.41661  -0.41136
 Alpha  occ. eigenvalues --   -0.40995  -0.40533  -0.40287  -0.40043  -0.39570
 Alpha  occ. eigenvalues --   -0.39377  -0.39121  -0.38850  -0.38483  -0.38194
 Alpha  occ. eigenvalues --   -0.37870  -0.37737  -0.37493  -0.37373  -0.36879
 Alpha  occ. eigenvalues --   -0.36234  -0.35817  -0.35706  -0.35662  -0.35576
 Alpha  occ. eigenvalues --   -0.35345  -0.35090  -0.34768  -0.34075  -0.33979
 Alpha  occ. eigenvalues --   -0.33447  -0.32961  -0.32880  -0.32797  -0.32401
 Alpha  occ. eigenvalues --   -0.32049  -0.31738  -0.31393  -0.31001  -0.30836
 Alpha  occ. eigenvalues --   -0.30354  -0.29749  -0.29584  -0.29422  -0.28536
 Alpha  occ. eigenvalues --   -0.27775  -0.27239  -0.26210  -0.24116  -0.22526
 Alpha  occ. eigenvalues --   -0.21183  -0.18678  -0.16989
 Alpha virt. eigenvalues --   -0.07832  -0.05653  -0.01967   0.00360   0.01910
 Alpha virt. eigenvalues --    0.03733   0.05972   0.06316   0.06805   0.07159
 Alpha virt. eigenvalues --    0.07738   0.07925   0.08306   0.08679   0.08971

 Mulliken charges:
               1
     1  C   -0.013775
     2  C   -0.022661
     3  C   -0.156187
     4  C   -0.166732
     5  C   -0.178395
     6  C   -0.172860
     7  C    0.059198
     8  C    0.075649
     9  C   -0.228376
    10  C   -0.197063
    11  C    0.044494
    12  C    0.073546
    13  C   -0.282022
    14  C   -0.316178
    15  C   -0.291745
    16  C   -0.315340
    17  C   -0.122347
    18  C   -0.159587
    19  C   -0.358949
    20  C   -0.345113
    21  C   -0.097505
    22  C   -0.066287
    23  C    0.107947
    24  C    0.117182
    25  C   -0.359988
    26  C   -0.359672
    27  C   -0.073935
    28  C   -0.154428
    29  C   -0.108389
    30  C   -0.042219
    31  C   -0.071891
    32  C   -0.132327
    33  C    0.136670
    34  C    0.149707
    35  C   -0.359364
    36  C   -0.389629
    37  C   -0.117682
    38  C   -0.130005
    39  C   -0.046265
    40  C   -0.127033
    41  H    0.082015
    42  H    0.056859
    43  H    0.057437
    44  H    0.083036
    45  H    0.092925
    46  H    0.085665
    47  H    0.054500
    48  H    0.107051
    49  H    0.086870
    50  H    0.097418
    51  H    0.126250
    52  H    0.089353
    53  H    0.091127
    54  H    0.106670
    55  H    0.111566
    56  H    0.113023
    57  H    0.099403
    58  H    0.086992
    59  H    0.108503
    60  H    0.106196
    61  H    0.082818
    62  H    0.113742
    63  H    0.095986
    64  H    0.099877
    65  H    0.076791
    66  H    0.098413
    67  H    0.120703
    68  H    0.109411
    69  H    0.116598
    70  H    0.122427
    71  H    0.097656
    72  H    0.064394
    73  H    0.087088
    74  H    0.088583
    75  H    0.121759
    76  H    0.074535
    77  H    0.125666
    78  H    0.130113
    79  H    0.077097
    80  H    0.107356
    81  H    0.041336
    82  H    0.050728
    83  H    0.089646
    84  H    0.067594
    85  H    0.079489
    86  H    0.064127
    87  H    0.084628
    88  H    0.098776
    89  H    0.122349
    90  H    0.135739
    91  H    0.123934
    92  H    0.095424
    93  H    0.071915
    94  H    0.076648
    95  H    0.056285
    96  H    0.087069
 Sum of Mulliken charges =  -0.00000

 Dipole moment (field-independent basis, Debye):
    X=              0.3319    Y=             -0.5993    Z=              0.4659  Tot=              0.8285
 Quadrupole moment (field-independent basis, Debye-Ang):
   XX=           -216.4163   YY=           -236.3653   ZZ=           -255.6488
   XY=             -1.0538   XZ=              3.9082   YZ=              2.4791

 Normal termination of Gaussian 16 at Tue Jul 23 14:04:57 2019.
