 Gaussian 16, Revision A.03,
 Gaussian 16:  ES64L-G16RevA.03 25-Dec-2016

 ---------------------------------
 # td=(NStates=1) B3LYP/6-31G(d,p)
 ---------------------------------

 --
 TD
 --
 Symbolic Z-matrix:
 Charge =  0 Multiplicity = 1

                         Standard orientation:
 ---------------------------------------------------------------------
 Center     Atomic      Atomic             Coordinates (Angstroms)
 Number     Number       Type             X           Y           Z
 ---------------------------------------------------------------------
      1          6           0       12.108211    0.492318   -0.748172
      2          6           0      -12.193682   -0.106071    0.876678
      3          6           0       13.468790   -0.252402   -0.590610
      4          6           0      -13.059877    1.067599    1.247158
      5          6           0       13.206349   -1.782192   -0.531716
      6          6           0      -13.540839    2.038086    0.124210
      7          6           0       11.148932    0.035449    0.260944
      8          6           0      -11.021187    0.425889   -0.023264
      9          6           0       12.418746   -2.071538    0.758844
     10          6           0      -12.220889    2.590575   -0.414154
     11          6           0       11.204019   -1.171278    0.962199
     12          6           0      -11.080997    1.646748   -0.736890
     13          6           0       11.573772    0.434232   -2.179553
     14          6           0       12.547147    2.000136   -0.395826
     15          6           0      -13.147296   -1.197549    0.186855
     16          6           0      -11.458872   -0.802021    2.142340
     17          6           0        9.810818    0.829007    0.405063
     18          6           0       -9.892578   -0.589833   -0.262514
     19          6           0       10.328968   -1.638233    2.082759
     20          6           0      -10.017662    2.218701   -1.571802
     21          6           0        8.573173    0.482333    0.229709
     22          6           0       -8.579335   -0.194494   -0.216328
     23          6           0        7.409917    1.370370    0.336803
     24          6           0       -7.498778   -1.183805   -0.534167
     25          6           0        7.656359    2.904890    0.492362
     26          6           0       -7.867138   -2.697795   -0.749833
     27          6           0        6.206995    0.725788    0.283785
     28          6           0       -6.204387   -0.724580   -0.426017
     29          6           0        4.916034    1.443689    0.351096
     30          6           0       -5.032471   -1.532286   -0.559038
     31          6           0        3.743174    0.713942    0.262929
     32          6           0       -3.749250   -1.184241   -0.475764
     33          6           0        2.389342    1.224189    0.348263
     34          6           0       -2.608600   -1.871104   -0.506960
     35          6           0        2.225203    2.640235    0.643291
     36          6           0       -2.535249   -3.341104   -0.688280
     37          6           0        1.300522    0.445220    0.190076
     38          6           0       -1.401348   -1.064624   -0.282780
     39          6           0        1.077247   -0.920821   -0.151200
     40          6           0       -0.022112   -1.606766   -0.380840
     41          1           0       14.084178   -0.085031    0.296337
     42          1           0       14.147108   -0.036549   -1.544594
     43          1           0      -12.437929    1.758772    1.999488
     44          1           0      -13.857607    0.690279    1.936079
     45          1           0       14.185840   -2.345396   -0.657674
     46          1           0       12.643725   -2.003284   -1.361759
     47          1           0      -14.307036    2.848029    0.479150
     48          1           0      -14.153991    1.476924   -0.613682
     49          1           0       13.024674   -2.094977    1.785226
     50          1           0       12.081839   -3.203458    0.765435
     51          1           0      -12.034559    3.374431    0.271705
     52          1           0      -12.400794    3.350267   -1.343442
     53          1           0       11.167606   -0.580960   -2.467513
     54          1           0       12.467334    0.787013   -2.920620
     55          1           0       10.790858    1.242804   -2.406597
     56          1           0       12.602097    1.849844    0.667065
     57          1           0       11.807125    2.725236   -0.832676
     58          1           0       13.556371    2.200385   -0.994812
     59          1           0      -13.505070   -0.851183   -0.796268
     60          1           0      -13.881990   -1.552777    1.018964
     61          1           0      -12.439953   -2.239366   -0.030429
     62          1           0      -10.838947   -0.181796    2.615341
     63          1           0      -10.873381   -1.603175    1.803752
     64          1           0      -11.955735   -1.021117    2.976054
     65          1           0        9.852042    1.906122    0.559509
     66          1           0      -10.197855   -1.606082   -0.468937
     67          1           0        9.715610   -0.642436    2.346256
     68          1           0       10.840391   -1.993917    3.106517
     69          1           0        9.648754   -2.348166    1.774136
     70          1           0       -9.676973    1.387597   -2.135397
     71          1           0       -9.378808    2.819642   -0.962273
     72          1           0      -10.774820    2.731261   -2.284403
     73          1           0        8.298792   -0.576165    0.021908
     74          1           0       -8.313694    0.827209    0.106376
     75          1           0        8.093311    2.914017    1.425614
     76          1           0        6.705862    3.519786    0.300156
     77          1           0        8.327657    3.157698   -0.261778
     78          1           0       -8.595273   -2.747342   -1.451531
     79          1           0       -8.370833   -3.195114    0.075771
     80          1           0       -7.090866   -3.324474   -1.180527
     81          1           0        6.141163   -0.465592    0.459168
     82          1           0       -6.171371    0.249509   -0.171403
     83          1           0        5.011229    2.460251    0.562002
     84          1           0       -5.369106   -2.576616   -0.632541
     85          1           0        3.725935   -0.316215    0.164450
     86          1           0       -3.597434   -0.129632   -0.152572
     87          1           0        2.806862    3.006725    1.607234
     88          1           0        1.204068    2.903465    0.494575
     89          1           0        2.756490    3.118567   -0.097708
     90          1           0       -3.227414   -3.408193   -1.545518
     91          1           0       -3.182459   -3.904453   -0.017192
     92          1           0       -1.404237   -3.926944   -0.689411
     93          1           0        0.389619    0.972335    0.465542
     94          1           0       -1.349449   -0.023981   -0.104998
     95          1           0        2.034392   -1.526715   -0.081190
     96          1           0        0.189634   -2.547034   -0.434302
 ---------------------------------------------------------------------

 SCF Done:  E(RB3LYP) =  -1557.59828755     A.U. after   16 cycles

 Excitation energies and oscillator strengths:

 Excited State   1:      Singlet-A      2.3082 eV  537.14 nm  f=3.0161  <S**2>=0.000
     148 ->149         0.70119
     148 <-149        -0.10282
 This state for optimization and/or second-order correction.
 Total Energy, E(TD-HF/TD-DFT) =  -1557.51346223
 Copying the excited state density for this state as the 1-particle RhoCI density.

 The electronic state is 1-A.
 Alpha  occ. eigenvalues --  -10.20806 -10.20513 -10.20262 -10.20107 -10.20015
 Alpha  occ. eigenvalues --  -10.19999 -10.19968 -10.19673 -10.19635 -10.19567
 Alpha  occ. eigenvalues --  -10.19462 -10.19458 -10.19419 -10.19344 -10.19270
 Alpha  occ. eigenvalues --  -10.19215 -10.19196 -10.19057 -10.18962 -10.18889
 Alpha  occ. eigenvalues --  -10.18794 -10.18735 -10.18658 -10.18538 -10.18413
 Alpha  occ. eigenvalues --  -10.18382 -10.18362 -10.18216 -10.18175 -10.18047
 Alpha  occ. eigenvalues --  -10.17898 -10.17862 -10.17853 -10.17634 -10.17556
 Alpha  occ. eigenvalues --  -10.17470 -10.17360 -10.17318 -10.17125 -10.14829
 Alpha  occ. eigenvalues --   -0.84755  -0.84108  -0.83860  -0.83448  -0.82215
 Alpha  occ. eigenvalues --   -0.81305  -0.79416  -0.78267  -0.77786  -0.77051
 Alpha  occ. eigenvalues --   -0.76673  -0.74859  -0.74443  -0.72313  -0.72074
 Alpha  occ. eigenvalues --   -0.70336  -0.69746  -0.69216  -0.69029  -0.67787
 Alpha  occ. eigenvalues --   -0.67248  -0.67091  -0.66553  -0.65587  -0.65401
 Alpha  occ. eigenvalues --   -0.62917  -0.62056  -0.59522  -0.58927  -0.56917
 Alpha  occ. eigenvalues --   -0.56220  -0.55735  -0.54693  -0.54239  -0.53400
 Alpha  occ. eigenvalues --   -0.52520  -0.52247  -0.50317  -0.49840  -0.49119
 Alpha  occ. eigenvalues --   -0.48367  -0.47697  -0.46588  -0.46302  -0.46079
 Alpha  occ. eigenvalues --   -0.45139  -0.44920  -0.44713  -0.44554  -0.44011
 Alpha  occ. eigenvalues --   -0.43542  -0.43393  -0.43148  -0.42983  -0.42302
 Alpha  occ. eigenvalues --   -0.42248  -0.41699  -0.41279  -0.41242  -0.41165
 Alpha  occ. eigenvalues --   -0.40775  -0.40693  -0.40123  -0.39764  -0.39468
 Alpha  occ. eigenvalues --   -0.39194  -0.38943  -0.38749  -0.38359  -0.38099
 Alpha  occ. eigenvalues --   -0.37870  -0.37722  -0.37245  -0.37182  -0.36739
 Alpha  occ. eigenvalues --   -0.36555  -0.36095  -0.35782  -0.35615  -0.35426
 Alpha  occ. eigenvalues --   -0.35070  -0.34746  -0.34432  -0.34204  -0.34040
 Alpha  occ. eigenvalues --   -0.33643  -0.33434  -0.33142  -0.32694  -0.32604
 Alpha  occ. eigenvalues --   -0.32134  -0.31885  -0.31709  -0.31370  -0.30633
 Alpha  occ. eigenvalues --   -0.30099  -0.29808  -0.29704  -0.29303  -0.28646
 Alpha  occ. eigenvalues --   -0.28060  -0.27502  -0.25695  -0.23930  -0.22347
 Alpha  occ. eigenvalues --   -0.21203  -0.19257  -0.16426
 Alpha virt. eigenvalues --   -0.07834  -0.04592  -0.01342   0.00308   0.02178
 Alpha virt. eigenvalues --    0.03389   0.06231   0.06641   0.06965   0.07062
 Alpha virt. eigenvalues --    0.07522   0.07677   0.08161   0.09027   0.09630

 Mulliken charges:
               1
     1  C   -0.005969
     2  C    0.008084
     3  C   -0.167252
     4  C   -0.168501
     5  C   -0.192925
     6  C   -0.184081
     7  C    0.060687
     8  C    0.050895
     9  C   -0.211566
    10  C   -0.205878
    11  C    0.077482
    12  C    0.031953
    13  C   -0.285938
    14  C   -0.291397
    15  C   -0.279550
    16  C   -0.313209
    17  C   -0.175528
    18  C   -0.147793
    19  C   -0.358319
    20  C   -0.339399
    21  C   -0.035283
    22  C   -0.091434
    23  C    0.074904
    24  C    0.089261
    25  C   -0.368719
    26  C   -0.387838
    27  C   -0.127458
    28  C   -0.090198
    29  C   -0.088300
    30  C   -0.105616
    31  C   -0.092553
    32  C   -0.094361
    33  C    0.131702
    34  C    0.149578
    35  C   -0.376253
    36  C   -0.377036
    37  C   -0.144046
    38  C   -0.139096
    39  C   -0.104353
    40  C   -0.036811
    41  H    0.100282
    42  H    0.066339
    43  H    0.065757
    44  H    0.073521
    45  H    0.078386
    46  H    0.110878
    47  H    0.083501
    48  H    0.095198
    49  H    0.084711
    50  H    0.078635
    51  H    0.121095
    52  H    0.052939
    53  H    0.104087
    54  H    0.075294
    55  H    0.101008
    56  H    0.116537
    57  H    0.092612
    58  H    0.087688
    59  H    0.115695
    60  H    0.103290
    61  H    0.051137
    62  H    0.110903
    63  H    0.106048
    64  H    0.096410
    65  H    0.064203
    66  H    0.091045
    67  H    0.100680
    68  H    0.093133
    69  H    0.131070
    70  H    0.134283
    71  H    0.130052
    72  H    0.095223
    73  H    0.069365
    74  H    0.091318
    75  H    0.146846
    76  H    0.105258
    77  H    0.135925
    78  H    0.130410
    79  H    0.124812
    80  H    0.112188
    81  H    0.076241
    82  H    0.060739
    83  H    0.079589
    84  H    0.061303
    85  H    0.070242
    86  H    0.075354
    87  H    0.102015
    88  H    0.105244
    89  H    0.131564
    90  H    0.122777
    91  H    0.128308
    92  H    0.100262
    93  H    0.064060
    94  H    0.084496
    95  H    0.067113
    96  H    0.055041
 Sum of Mulliken charges =  -0.00000

 Dipole moment (field-independent basis, Debye):
    X=             -0.5080    Y=              0.0801    Z=              0.5792  Tot=              0.7746
 Quadrupole moment (field-independent basis, Debye-Ang):
   XX=           -231.7376   YY=           -233.9981   ZZ=           -254.9601
   XY=              1.7595   XZ=             -2.8482   YZ=              1.3023

 Normal termination of Gaussian 16 at Tue Jul 30 14:24:14 2019.
