 Gaussian 16, Revision A.03,
 Gaussian 16:  ES64L-G16RevA.03 25-Dec-2016

 ---------------------------------
 # td=(NStates=1) B3LYP/6-31G(d,p)
 ---------------------------------

 --
 TD
 --
 Symbolic Z-matrix:
 Charge =  0 Multiplicity = 1

                         Standard orientation:
 ---------------------------------------------------------------------
 Center     Atomic      Atomic             Coordinates (Angstroms)
 Number     Number       Type             X           Y           Z
 ---------------------------------------------------------------------
      1          6           0       12.119180    0.479063   -0.756015
      2          6           0      -12.086106   -0.070112    0.995508
      3          6           0       13.420242   -0.416329   -0.552272
      4          6           0      -12.936835    1.149431    1.409101
      5          6           0       13.117607   -1.975564   -0.399382
      6          6           0      -13.402401    2.023788    0.226394
      7          6           0       11.018045    0.086577    0.367546
      8          6           0      -11.076659    0.382943   -0.125770
      9          6           0       12.265819   -2.095858    0.950338
     10          6           0      -12.171011    2.562217   -0.501420
     11          6           0       11.150026   -1.038834    1.132095
     12          6           0      -11.054135    1.591133   -0.734002
     13          6           0       11.567710    0.241380   -2.164992
     14          6           0       12.765248    1.940670   -0.618100
     15          6           0      -13.072855   -1.142012    0.519505
     16          6           0      -11.341319   -0.556554    2.289426
     17          6           0        9.798665    1.013484    0.340057
     18          6           0       -9.941265   -0.661647   -0.282699
     19          6           0       10.108220   -1.403345    2.102126
     20          6           0      -10.109628    2.121471   -1.778796
     21          6           0        8.574600    0.520843    0.249608
     22          6           0       -8.643802   -0.342700   -0.453314
     23          6           0        7.441173    1.343762    0.349685
     24          6           0       -7.560523   -1.366648   -0.551079
     25          6           0        7.609094    2.772749    0.711161
     26          6           0       -7.808195   -2.779924   -0.792951
     27          6           0        6.166184    0.815522    0.204905
     28          6           0       -6.242695   -0.898386   -0.517715
     29          6           0        4.907156    1.444966    0.251757
     30          6           0       -4.983223   -1.719787   -0.510283
     31          6           0        3.665556    0.690885    0.194044
     32          6           0       -3.793783   -1.036296   -0.380181
     33          6           0        2.385657    1.328554    0.114220
     34          6           0       -2.565896   -1.757783   -0.412485
     35          6           0        2.342208    2.784237    0.342904
     36          6           0       -2.559831   -3.324694   -0.632894
     37          6           0        1.250377    0.556367    0.066829
     38          6           0       -1.478699   -1.126822   -0.374929
     39          6           0        1.122419   -0.869551   -0.187370
     40          6           0       -0.132131   -1.567247   -0.296363
     41          1           0       14.047008   -0.173573    0.302664
     42          1           0       14.031390   -0.339487   -1.498942
     43          1           0      -12.438508    1.768740    2.052361
     44          1           0      -13.674863    0.589691    1.896983
     45          1           0       14.191672   -2.436811   -0.210591
     46          1           0       12.782740   -2.572099   -1.249361
     47          1           0      -13.903206    3.011782    0.688983
     48          1           0      -14.062994    1.398269   -0.434534
     49          1           0       13.112645   -2.088320    1.637009
     50          1           0       11.823570   -2.914592    1.096852
     51          1           0      -11.806801    3.268615    0.163732
     52          1           0      -12.431591    3.180940   -1.470742
     53          1           0       11.350879   -1.112219   -1.941494
     54          1           0       12.467539    0.287729   -2.851062
     55          1           0       10.635945    0.828883   -2.412674
     56          1           0       13.231831    2.087015    0.288973
     57          1           0       11.862762    2.644841   -0.687720
     58          1           0       13.607395    1.891524   -1.410425
     59          1           0      -13.611229   -0.890601   -0.492980
     60          1           0      -13.782308   -1.358560    1.370380
     61          1           0      -12.586304   -2.104157    0.267297
     62          1           0      -10.723485    0.289130    2.483329
     63          1           0      -10.918240   -1.543205    1.949302
     64          1           0      -12.026620   -0.839045    2.989625
     65          1           0       10.122343    2.004065    0.451111
     66          1           0      -10.294903   -1.528611    0.064427
     67          1           0        9.562364   -0.374553    2.442886
     68          1           0       10.681095   -1.603390    3.108725
     69          1           0        9.344659   -2.256495    1.767683
     70          1           0       -9.692617    1.354778   -2.454425
     71          1           0       -9.325153    2.609398   -1.197300
     72          1           0      -10.489956    2.985207   -2.466373
     73          1           0        8.396002   -0.554421   -0.126881
     74          1           0       -8.329020    0.711115   -0.594891
     75          1           0        8.109115    2.958733    1.683960
     76          1           0        6.750448    3.357735    0.808692
     77          1           0        8.246579    3.386285   -0.046227
     78          1           0       -8.877746   -2.722855   -1.428541
     79          1           0       -8.117644   -3.498763    0.149201
     80          1           0       -6.865017   -3.434266   -1.439140
     81          1           0        6.269236   -0.432934    0.032446
     82          1           0       -6.012693    0.095506   -0.382257
     83          1           0        4.735204    2.490880    0.631255
     84          1           0       -4.942671   -2.706153   -0.414357
     85          1           0        3.846941   -0.361565    0.303283
     86          1           0       -3.844073    0.212155   -0.375241
     87          1           0        2.865307    3.226305    1.254476
     88          1           0        1.437607    3.315361    0.249138
     89          1           0        2.969304    3.465767   -0.222503
     90          1           0       -3.227500   -3.518111   -1.556534
     91          1           0       -2.918422   -3.646466    0.271222
     92          1           0       -1.357997   -3.621179   -1.095922
     93          1           0        0.288384    1.215863    0.224870
     94          1           0       -1.379307    0.004791   -0.150656
     95          1           0        1.857320   -1.598187   -0.375450
     96          1           0        0.008407   -2.610177   -0.408813
 ---------------------------------------------------------------------

 SCF Done:  E(RB3LYP) =  -1557.50682200     A.U. after   16 cycles

 Excitation energies and oscillator strengths:

 Excited State   1:      Singlet-A      2.1036 eV  589.40 nm  f=3.0050  <S**2>=0.000
     148 ->149         0.70551
     148 <-149        -0.11363
 This state for optimization and/or second-order correction.
 Total Energy, E(TD-HF/TD-DFT) =  -1557.42951714
 Copying the excited state density for this state as the 1-particle RhoCI density.

 The electronic state is 1-A.
 Alpha  occ. eigenvalues --  -10.22079 -10.21005 -10.20419 -10.20355 -10.20326
 Alpha  occ. eigenvalues --  -10.20253 -10.20120 -10.20025 -10.19939 -10.19909
 Alpha  occ. eigenvalues --  -10.19790 -10.19704 -10.19459 -10.19421 -10.19247
 Alpha  occ. eigenvalues --  -10.19177 -10.18952 -10.18911 -10.18903 -10.18869
 Alpha  occ. eigenvalues --  -10.18834 -10.18764 -10.18609 -10.18601 -10.18574
 Alpha  occ. eigenvalues --  -10.18555 -10.18554 -10.18475 -10.18459 -10.18271
 Alpha  occ. eigenvalues --  -10.18230 -10.18136 -10.18088 -10.17812 -10.17778
 Alpha  occ. eigenvalues --  -10.17741 -10.17622 -10.16911 -10.16872 -10.15991
 Alpha  occ. eigenvalues --   -0.84675  -0.84331  -0.83849  -0.82835  -0.81900
 Alpha  occ. eigenvalues --   -0.81457  -0.79033  -0.78372  -0.77626  -0.77004
 Alpha  occ. eigenvalues --   -0.76254  -0.74705  -0.73893  -0.72067  -0.71590
 Alpha  occ. eigenvalues --   -0.70129  -0.68425  -0.68279  -0.67894  -0.67702
 Alpha  occ. eigenvalues --   -0.66946  -0.66838  -0.66410  -0.66297  -0.65643
 Alpha  occ. eigenvalues --   -0.62750  -0.61531  -0.59787  -0.58543  -0.57530
 Alpha  occ. eigenvalues --   -0.56475  -0.55571  -0.54751  -0.53661  -0.52988
 Alpha  occ. eigenvalues --   -0.52354  -0.52140  -0.50686  -0.49831  -0.48609
 Alpha  occ. eigenvalues --   -0.48372  -0.47490  -0.46848  -0.46341  -0.45955
 Alpha  occ. eigenvalues --   -0.45191  -0.44834  -0.44580  -0.44365  -0.44134
 Alpha  occ. eigenvalues --   -0.43891  -0.43170  -0.43135  -0.42987  -0.42281
 Alpha  occ. eigenvalues --   -0.41807  -0.40944  -0.40848  -0.40766  -0.40567
 Alpha  occ. eigenvalues --   -0.40052  -0.39820  -0.39508  -0.39395  -0.39009
 Alpha  occ. eigenvalues --   -0.38890  -0.38618  -0.38534  -0.38184  -0.38000
 Alpha  occ. eigenvalues --   -0.37649  -0.37346  -0.37275  -0.36715  -0.36338
 Alpha  occ. eigenvalues --   -0.36204  -0.36060  -0.35777  -0.35177  -0.35028
 Alpha  occ. eigenvalues --   -0.34875  -0.34610  -0.34437  -0.33962  -0.33710
 Alpha  occ. eigenvalues --   -0.33692  -0.33266  -0.33220  -0.32999  -0.32844
 Alpha  occ. eigenvalues --   -0.32441  -0.31944  -0.31156  -0.30854  -0.30362
 Alpha  occ. eigenvalues --   -0.29893  -0.29769  -0.29319  -0.28911  -0.27803
 Alpha  occ. eigenvalues --   -0.27311  -0.26725  -0.26356  -0.23933  -0.22621
 Alpha  occ. eigenvalues --   -0.21327  -0.18856  -0.16384
 Alpha virt. eigenvalues --   -0.08633  -0.05225  -0.01846   0.00880   0.02276
 Alpha virt. eigenvalues --    0.04249   0.05538   0.05930   0.06101   0.06634
 Alpha virt. eigenvalues --    0.07152   0.07362   0.07738   0.08024   0.08101

 Mulliken charges:
               1
     1  C   -0.011462
     2  C   -0.054592
     3  C   -0.167678
     4  C   -0.142433
     5  C   -0.221733
     6  C   -0.189815
     7  C    0.039899
     8  C    0.054384
     9  C   -0.187369
    10  C   -0.216445
    11  C    0.067960
    12  C    0.066154
    13  C   -0.252156
    14  C   -0.296630
    15  C   -0.300449
    16  C   -0.279839
    17  C   -0.145811
    18  C   -0.112722
    19  C   -0.359923
    20  C   -0.374394
    21  C   -0.079088
    22  C   -0.090000
    23  C    0.158382
    24  C    0.139200
    25  C   -0.382092
    26  C   -0.355080
    27  C   -0.128789
    28  C   -0.125540
    29  C   -0.096465
    30  C   -0.072645
    31  C   -0.123546
    32  C   -0.094265
    33  C    0.161885
    34  C    0.104710
    35  C   -0.406710
    36  C   -0.352333
    37  C   -0.140686
    38  C   -0.081973
    39  C   -0.075735
    40  C   -0.124038
    41  H    0.099656
    42  H    0.077109
    43  H    0.087482
    44  H    0.082726
    45  H    0.065413
    46  H    0.103469
    47  H    0.069066
    48  H    0.094501
    49  H    0.104779
    50  H    0.102619
    51  H    0.114923
    52  H    0.081994
    53  H    0.043631
    54  H    0.098749
    55  H    0.112442
    56  H    0.115427
    57  H    0.082458
    58  H    0.091151
    59  H    0.096878
    60  H    0.096605
    61  H    0.093879
    62  H    0.117666
    63  H    0.089078
    64  H    0.106044
    65  H    0.095791
    66  H    0.072872
    67  H    0.103859
    68  H    0.090224
    69  H    0.102003
    70  H    0.127486
    71  H    0.123755
    72  H    0.093695
    73  H    0.088951
    74  H    0.086350
    75  H    0.117993
    76  H    0.111255
    77  H    0.098632
    78  H    0.089416
    79  H    0.098958
    80  H    0.082730
    81  H    0.050944
    82  H    0.069083
    83  H    0.082138
    84  H    0.077134
    85  H    0.091686
    86  H    0.073581
    87  H    0.112199
    88  H    0.112899
    89  H    0.124224
    90  H    0.119522
    91  H    0.146460
    92  H    0.087139
    93  H    0.079446
    94  H    0.059813
    95  H    0.092486
    96  H    0.059393
 Sum of Mulliken charges =  -0.00000

 Dipole moment (field-independent basis, Debye):
    X=             -0.4670    Y=              0.5608    Z=              0.9296  Tot=              1.1819
 Quadrupole moment (field-independent basis, Debye-Ang):
   XX=           -235.8280   YY=           -233.0177   ZZ=           -257.0623
   XY=             -0.1272   XZ=             -0.7710   YZ=              1.3816

 Normal termination of Gaussian 16 at Tue Jul 30 10:58:54 2019.
