 Gaussian 16, Revision A.03,
 Gaussian 16:  ES64L-G16RevA.03 25-Dec-2016

 ---------------------------------
 # td=(NStates=1) B3LYP/6-31G(d,p)
 ---------------------------------

 --
 TD
 --
 Symbolic Z-matrix:
 Charge =  0 Multiplicity = 1

                         Standard orientation:
 ---------------------------------------------------------------------
 Center     Atomic      Atomic             Coordinates (Angstroms)
 Number     Number       Type             X           Y           Z
 ---------------------------------------------------------------------
      1          6           0      -12.099537   -0.631688   -0.651138
      2          6           0       11.995958    0.030526    0.872381
      3          6           0      -13.330327    0.338744   -0.809332
      4          6           0       12.927967   -1.143434    1.347809
      5          6           0      -13.048114    1.808900   -0.782273
      6          6           0       13.444293   -1.932683    0.131677
      7          6           0      -11.105130    0.038850    0.258289
      8          6           0       11.017746   -0.379492   -0.187224
      9          6           0      -12.293384    2.201037    0.554182
     10          6           0       12.156987   -2.537443   -0.647816
     11          6           0      -11.083205    1.196329    0.833507
     12          6           0       11.028393   -1.540113   -0.852805
     13          6           0      -11.390980   -0.667689   -2.023442
     14          6           0      -12.524763   -1.974216   -0.160730
     15          6           0       12.999733    1.171750    0.203792
     16          6           0       11.404607    0.576185    2.198459
     17          6           0       -9.799764   -0.856186    0.394755
     18          6           0        9.892735    0.574971   -0.353773
     19          6           0      -10.036215    1.780813    1.789219
     20          6           0       10.008366   -2.056698   -1.946555
     21          6           0       -8.509308   -0.565115    0.351385
     22          6           0        8.560612    0.263744   -0.280767
     23          6           0       -7.422791   -1.333886    0.530286
     24          6           0        7.476459    1.226014   -0.396204
     25          6           0       -7.609046   -2.850071    0.777077
     26          6           0        7.874028    2.605500   -0.482751
     27          6           0       -6.160850   -0.836227    0.304905
     28          6           0        6.155294    0.820835   -0.281298
     29          6           0       -4.907367   -1.608085    0.368708
     30          6           0        4.936777    1.544223   -0.404507
     31          6           0       -3.774764   -0.820623    0.281223
     32          6           0        3.636781    1.139817   -0.305675
     33          6           0       -2.392149   -1.233431    0.303273
     34          6           0        2.454539    1.890768   -0.390909
     35          6           0       -2.113573   -2.662566    0.434449
     36          6           0        2.590579    3.295227   -0.813489
     37          6           0       -1.263620   -0.459745    0.249681
     38          6           0        1.385367    1.182888   -0.071514
     39          6           0       -1.150213    0.961792   -0.022526
     40          6           0       -0.081035    1.751030   -0.216347
     41          1           0      -14.071294    0.133987   -0.037530
     42          1           0      -13.679739    0.128686   -1.954264
     43          1           0       12.190254   -1.784101    2.083376
     44          1           0       13.680271   -0.884921    1.970950
     45          1           0      -13.933398    2.562081   -0.885752
     46          1           0      -12.539976    2.179201   -1.587442
     47          1           0       13.958732   -2.696034    0.405522
     48          1           0       13.912676   -1.240498   -0.633755
     49          1           0      -13.028048    2.239449    1.478796
     50          1           0      -12.068111    3.355698    0.484905
     51          1           0       11.979567   -3.470387    0.019861
     52          1           0       12.410863   -2.975556   -1.652780
     53          1           0      -11.366899    0.350890   -2.458813
     54          1           0      -11.907301   -1.250717   -2.621502
     55          1           0      -10.404564   -1.162797   -2.174532
     56          1           0      -12.784691   -2.079546    0.873152
     57          1           0      -11.643271   -2.700403   -0.589514
     58          1           0      -13.334843   -2.335115   -0.817689
     59          1           0       13.466274    0.574261   -0.679382
     60          1           0       13.996507    1.249228    1.030128
     61          1           0       12.476814    2.136156    0.136498
     62          1           0       10.595507    0.074140    2.491265
     63          1           0       10.759270    1.619409    1.914559
     64          1           0       12.251609    0.638261    2.791269
     65          1           0      -10.237061   -1.805974    0.398488
     66          1           0       10.152095    1.640401   -0.464958
     67          1           0       -9.530481    0.989510    2.326757
     68          1           0      -10.415029    2.113434    2.771413
     69          1           0       -9.179344    2.498356    1.305527
     70          1           0        9.102769   -1.375627   -2.027123
     71          1           0        9.375243   -2.894932   -1.339849
     72          1           0       10.476484   -2.337560   -2.813953
     73          1           0       -8.319117    0.522052    0.258301
     74          1           0        8.057304   -0.826684   -0.427506
     75          1           0       -8.372637   -2.861013    1.552714
     76          1           0       -6.659433   -3.263735    1.077989
     77          1           0       -7.889361   -3.219811   -0.084893
     78          1           0        8.541817    2.761551   -1.286889
     79          1           0        8.425071    2.817843    0.485674
     80          1           0        7.012013    3.306001   -0.430210
     81          1           0       -6.240144    0.287485    0.063511
     82          1           0        6.085377   -0.250001   -0.301492
     83          1           0       -4.845818   -2.549145    0.584747
     84          1           0        4.992089    2.622862   -0.904202
     85          1           0       -3.929929    0.324489    0.512067
     86          1           0        3.659416    0.037751   -0.340722
     87          1           0       -2.418536   -3.019142    1.410397
     88          1           0       -1.098534   -3.059294    0.347272
     89          1           0       -2.881697   -3.400863   -0.305933
     90          1           0        3.303260    3.394553   -1.634497
     91          1           0        2.573671    3.894792    0.317162
     92          1           0        1.723990    3.644802   -1.435551
     93          1           0       -0.356056   -1.153240    0.270081
     94          1           0        1.451389    0.287027    0.384059
     95          1           0       -2.246852    1.521077   -0.111899
     96          1           0       -0.334666    2.828359   -0.367722
 ---------------------------------------------------------------------

 SCF Done:  E(RB3LYP) =  -1557.49914497     A.U. after   15 cycles

 Excitation energies and oscillator strengths:

 Excited State   1:      Singlet-A      2.3740 eV  522.26 nm  f=2.6755  <S**2>=0.000
     148 ->149         0.70745
 This state for optimization and/or second-order correction.
 Total Energy, E(TD-HF/TD-DFT) =  -1557.41190239
 Copying the excited state density for this state as the 1-particle RhoCI density.

 The electronic state is 1-A.
 Alpha  occ. eigenvalues --  -10.20404 -10.20341 -10.20134 -10.20094 -10.19952
 Alpha  occ. eigenvalues --  -10.19750 -10.19594 -10.19578 -10.19574 -10.19570
 Alpha  occ. eigenvalues --  -10.19333 -10.19256 -10.19246 -10.19142 -10.19099
 Alpha  occ. eigenvalues --  -10.19089 -10.19043 -10.19042 -10.18979 -10.18960
 Alpha  occ. eigenvalues --  -10.18926 -10.18900 -10.18877 -10.18723 -10.18549
 Alpha  occ. eigenvalues --  -10.18397 -10.18360 -10.18335 -10.18231 -10.18132
 Alpha  occ. eigenvalues --  -10.18078 -10.18075 -10.17807 -10.17468 -10.17397
 Alpha  occ. eigenvalues --  -10.17369 -10.17078 -10.17021 -10.16529 -10.16436
 Alpha  occ. eigenvalues --   -0.85302  -0.84468  -0.83993  -0.83534  -0.82476
 Alpha  occ. eigenvalues --   -0.82217  -0.78409  -0.77957  -0.77381  -0.76861
 Alpha  occ. eigenvalues --   -0.76417  -0.75420  -0.74538  -0.71861  -0.71471
 Alpha  occ. eigenvalues --   -0.69843  -0.69430  -0.68994  -0.68693  -0.68142
 Alpha  occ. eigenvalues --   -0.67667  -0.66832  -0.66601  -0.66011  -0.65415
 Alpha  occ. eigenvalues --   -0.63031  -0.61963  -0.59558  -0.59034  -0.57853
 Alpha  occ. eigenvalues --   -0.56616  -0.56091  -0.55691  -0.54335  -0.52620
 Alpha  occ. eigenvalues --   -0.52109  -0.51280  -0.50798  -0.49268  -0.48716
 Alpha  occ. eigenvalues --   -0.48174  -0.47374  -0.46752  -0.46484  -0.46039
 Alpha  occ. eigenvalues --   -0.45728  -0.45300  -0.44937  -0.44485  -0.44010
 Alpha  occ. eigenvalues --   -0.43723  -0.43582  -0.43542  -0.43443  -0.43030
 Alpha  occ. eigenvalues --   -0.42607  -0.42052  -0.42030  -0.41027  -0.40916
 Alpha  occ. eigenvalues --   -0.40598  -0.40117  -0.40083  -0.39561  -0.39368
 Alpha  occ. eigenvalues --   -0.38884  -0.38779  -0.38382  -0.38098  -0.37920
 Alpha  occ. eigenvalues --   -0.37741  -0.37028  -0.36686  -0.36592  -0.36491
 Alpha  occ. eigenvalues --   -0.35871  -0.35774  -0.35579  -0.35296  -0.35249
 Alpha  occ. eigenvalues --   -0.34791  -0.34740  -0.34518  -0.34312  -0.33880
 Alpha  occ. eigenvalues --   -0.33742  -0.32807  -0.32726  -0.32503  -0.32045
 Alpha  occ. eigenvalues --   -0.32036  -0.31745  -0.31436  -0.30666  -0.30514
 Alpha  occ. eigenvalues --   -0.30030  -0.29467  -0.28997  -0.28604  -0.28297
 Alpha  occ. eigenvalues --   -0.27680  -0.26306  -0.25811  -0.24310  -0.22918
 Alpha  occ. eigenvalues --   -0.21717  -0.18717  -0.16913
 Alpha virt. eigenvalues --   -0.07591  -0.05326  -0.01249   0.00941   0.03016
 Alpha virt. eigenvalues --    0.04230   0.05690   0.05868   0.06091   0.07197
 Alpha virt. eigenvalues --    0.07317   0.07436   0.08364   0.08698   0.08773

 Mulliken charges:
               1
     1  C   -0.001844
     2  C   -0.029130
     3  C   -0.169920
     4  C   -0.162246
     5  C   -0.181650
     6  C   -0.181969
     7  C    0.102309
     8  C    0.093649
     9  C   -0.227066
    10  C   -0.227661
    11  C    0.049879
    12  C    0.064313
    13  C   -0.308244
    14  C   -0.309396
    15  C   -0.281890
    16  C   -0.271961
    17  C   -0.149096
    18  C   -0.168580
    19  C   -0.366209
    20  C   -0.349866
    21  C   -0.070530
    22  C   -0.077747
    23  C    0.106327
    24  C    0.139173
    25  C   -0.355996
    26  C   -0.387556
    27  C   -0.128060
    28  C   -0.131622
    29  C   -0.063634
    30  C   -0.095195
    31  C   -0.120616
    32  C   -0.118832
    33  C    0.152611
    34  C    0.157409
    35  C   -0.381725
    36  C   -0.362118
    37  C   -0.128529
    38  C   -0.125740
    39  C   -0.080968
    40  C   -0.113506
    41  H    0.097234
    42  H    0.064848
    43  H    0.061707
    44  H    0.097811
    45  H    0.072433
    46  H    0.111538
    47  H    0.095789
    48  H    0.094128
    49  H    0.080146
    50  H    0.080435
    51  H    0.090252
    52  H    0.083546
    53  H    0.107192
    54  H    0.107343
    55  H    0.105072
    56  H    0.121431
    57  H    0.085683
    58  H    0.106727
    59  H    0.103964
    60  H    0.050430
    61  H    0.114178
    62  H    0.125212
    63  H    0.048812
    64  H    0.109691
    65  H    0.064403
    66  H    0.090678
    67  H    0.118027
    68  H    0.103985
    69  H    0.097657
    70  H    0.112142
    71  H    0.094498
    72  H    0.121342
    73  H    0.069259
    74  H    0.062963
    75  H    0.114970
    76  H    0.101688
    77  H    0.138288
    78  H    0.126067
    79  H    0.116341
    80  H    0.106895
    81  H    0.071511
    82  H    0.063596
    83  H    0.084483
    84  H    0.058897
    85  H    0.081366
    86  H    0.074968
    87  H    0.125795
    88  H    0.112564
    89  H    0.065613
    90  H    0.127959
    91  H    0.114524
    92  H    0.110862
    93  H    0.074600
    94  H    0.091429
    95  H    0.061333
    96  H    0.089127
 Sum of Mulliken charges =  -0.00000

 Dipole moment (field-independent basis, Debye):
    X=             -0.8782    Y=             -0.6590    Z=             -0.2939  Tot=              1.1366
 Quadrupole moment (field-independent basis, Debye-Ang):
   XX=           -222.2746   YY=           -237.6810   ZZ=           -251.4359
   XY=              0.9753   XZ=             -0.1775   YZ=             -3.1630

 Normal termination of Gaussian 16 at Thu Aug  1 13:03:56 2019.
