 Gaussian 16, Revision A.03,
 Gaussian 16:  ES64L-G16RevA.03 25-Dec-2016

 ---------------------------------
 # td=(NStates=1) B3LYP/6-31G(d,p)
 ---------------------------------

 --
 TD
 --
 Symbolic Z-matrix:
 Charge =  0 Multiplicity = 1

                         Standard orientation:
 ---------------------------------------------------------------------
 Center     Atomic      Atomic             Coordinates (Angstroms)
 Number     Number       Type             X           Y           Z
 ---------------------------------------------------------------------
      1          6           0      -12.111548   -0.606530   -0.767272
      2          6           0       12.045444   -0.090440    0.870853
      3          6           0      -13.501106    0.223052   -0.545960
      4          6           0       12.876178   -1.300715    1.291248
      5          6           0      -13.261762    1.786116   -0.388682
      6          6           0       13.190976   -2.123835    0.089194
      7          6           0      -11.067406   -0.072564    0.163336
      8          6           0       10.903504   -0.471064   -0.057852
      9          6           0      -12.409895    2.025877    0.842199
     10          6           0       11.969272   -2.685065   -0.590571
     11          6           0      -11.183053    1.131785    0.869411
     12          6           0       10.896316   -1.636670   -0.791077
     13          6           0      -11.603648   -0.554407   -2.187401
     14          6           0      -12.479885   -2.130714   -0.340789
     15          6           0       13.079625    0.927974    0.178489
     16          6           0       11.692459    0.660615    2.146607
     17          6           0       -9.842848   -0.820413    0.075565
     18          6           0        9.903500    0.570415   -0.254490
     19          6           0      -10.208357    1.448450    1.969911
     20          6           0        9.813472   -1.964871   -1.685550
     21          6           0       -8.548440   -0.401351    0.203889
     22          6           0        8.617307    0.343289   -0.142642
     23          6           0       -7.347794   -1.276350    0.355856
     24          6           0        7.476672    1.319705   -0.475852
     25          6           0       -7.528231   -2.745573    0.698488
     26          6           0        7.964246    2.731266   -0.685073
     27          6           0       -6.086175   -0.660063    0.230512
     28          6           0        6.195516    0.902228   -0.308753
     29          6           0       -4.815935   -1.327966    0.333269
     30          6           0        5.028525    1.703257   -0.517464
     31          6           0       -3.652227   -0.607411    0.214141
     32          6           0        3.732217    1.179515   -0.394834
     33          6           0       -2.332507   -1.274554    0.324628
     34          6           0        2.574077    1.968963   -0.540115
     35          6           0       -2.160543   -2.685815    0.571968
     36          6           0        2.682099    3.386134   -0.666773
     37          6           0       -1.174450   -0.480212    0.188000
     38          6           0        1.311690    1.226094   -0.364928
     39          6           0       -1.112480    0.982510    0.049515
     40          6           0        0.049009    1.794579   -0.164969
     41          1           0      -13.822123   -0.189642    0.473625
     42          1           0      -14.237419    0.139216   -1.426465
     43          1           0       12.278632   -1.800399    2.145132
     44          1           0       13.803869   -0.925646    1.878768
     45          1           0      -14.306397    2.247689   -0.338465
     46          1           0      -12.729665    2.410174   -1.291855
     47          1           0       13.868349   -2.984238    0.437417
     48          1           0       13.882759   -1.421140   -0.597898
     49          1           0      -12.949462    1.937123    1.763099
     50          1           0      -12.253271    3.104585    0.641416
     51          1           0       11.733845   -3.576442   -0.066740
     52          1           0       12.205786   -3.039723   -1.595097
     53          1           0      -11.298455    0.517546   -2.448950
     54          1           0      -12.394185   -1.043379   -2.894194
     55          1           0      -10.610769   -1.129284   -1.940741
     56          1           0      -12.569104   -2.346198    0.452550
     57          1           0      -11.607621   -2.659191   -0.687794
     58          1           0      -13.151935   -2.210049   -1.042898
     59          1           0       13.435040    0.506988   -0.866057
     60          1           0       13.755581    1.285315    0.816159
     61          1           0       12.552562    1.822786   -0.087030
     62          1           0       11.160231   -0.030932    2.642492
     63          1           0       11.066054    1.725095    2.180229
     64          1           0       12.544653    0.726326    2.617004
     65          1           0      -10.042611   -1.782835    0.462700
     66          1           0       10.319928    1.470776   -0.356446
     67          1           0       -9.575954    0.505873    1.966883
     68          1           0      -10.788995    1.656068    2.893198
     69          1           0       -9.583915    2.398117    1.653543
     70          1           0        9.195919   -1.246002   -2.092066
     71          1           0        9.234803   -2.636069   -1.311097
     72          1           0       10.374566   -2.628472   -2.515263
     73          1           0       -8.304566    0.774331    0.061759
     74          1           0        8.212255   -0.588366    0.327200
     75          1           0       -8.306800   -2.836257    1.609923
     76          1           0       -6.504249   -2.932635    0.993711
     77          1           0       -7.742967   -3.390797   -0.244830
     78          1           0        8.705128    2.747123   -1.405136
     79          1           0        8.466385    3.054755    0.165241
     80          1           0        7.157435    3.399901   -1.138522
     81          1           0       -6.054758    0.239254   -0.148110
     82          1           0        6.123345   -0.150838    0.086658
     83          1           0       -4.799748   -2.576993    0.397601
     84          1           0        5.079894    2.618545   -0.717960
     85          1           0       -3.479976    0.502764    0.120847
     86          1           0        3.855740    0.102974    0.186212
     87          1           0       -2.564834   -2.790096    1.542240
     88          1           0       -1.169086   -3.126779    0.462971
     89          1           0       -2.530107   -3.275305   -0.258063
     90          1           0        3.245834    3.660192   -1.442822
     91          1           0        3.142270    3.963050    0.341708
     92          1           0        1.625565    3.894452   -0.778644
     93          1           0       -0.314141   -0.945046    0.449119
     94          1           0        1.383750    0.195364   -0.388571
     95          1           0       -2.147496    1.418798   -0.022334
     96          1           0       -0.012468    2.866131   -0.441554
 ---------------------------------------------------------------------

 SCF Done:  E(RB3LYP) =  -1557.45437127     A.U. after   17 cycles

 Excitation energies and oscillator strengths:

 Excited State   1:      Singlet-A      2.0000 eV  619.92 nm  f=2.8341  <S**2>=0.000
     148 ->149         0.70454
     148 <-149        -0.13153
 This state for optimization and/or second-order correction.
 Total Energy, E(TD-HF/TD-DFT) =  -1557.38087216
 Copying the excited state density for this state as the 1-particle RhoCI density.

 The electronic state is 1-A.
 Alpha  occ. eigenvalues --  -10.21088 -10.20801 -10.20364 -10.20296 -10.20293
 Alpha  occ. eigenvalues --  -10.20214 -10.20065 -10.20032 -10.19703 -10.19660
 Alpha  occ. eigenvalues --  -10.19536 -10.19517 -10.19331 -10.19254 -10.19035
 Alpha  occ. eigenvalues --  -10.18923 -10.18836 -10.18758 -10.18730 -10.18655
 Alpha  occ. eigenvalues --  -10.18618 -10.18512 -10.18430 -10.18400 -10.18375
 Alpha  occ. eigenvalues --  -10.18321 -10.17872 -10.17869 -10.17805 -10.17778
 Alpha  occ. eigenvalues --  -10.17755 -10.17681 -10.17517 -10.17485 -10.17382
 Alpha  occ. eigenvalues --  -10.16827 -10.16524 -10.15889 -10.15832 -10.13546
 Alpha  occ. eigenvalues --   -0.85486  -0.84576  -0.83608  -0.83194  -0.81720
 Alpha  occ. eigenvalues --   -0.81332  -0.79595  -0.78673  -0.78404  -0.77693
 Alpha  occ. eigenvalues --   -0.77060  -0.74989  -0.74613  -0.73019  -0.71821
 Alpha  occ. eigenvalues --   -0.71135  -0.70024  -0.69114  -0.68575  -0.68384
 Alpha  occ. eigenvalues --   -0.68048  -0.67635  -0.66599  -0.66015  -0.65795
 Alpha  occ. eigenvalues --   -0.62402  -0.61426  -0.59297  -0.58223  -0.57439
 Alpha  occ. eigenvalues --   -0.56018  -0.55811  -0.54811  -0.54280  -0.53553
 Alpha  occ. eigenvalues --   -0.52174  -0.52011  -0.50575  -0.50264  -0.49195
 Alpha  occ. eigenvalues --   -0.48798  -0.48031  -0.47485  -0.46923  -0.46374
 Alpha  occ. eigenvalues --   -0.45768  -0.45535  -0.45190  -0.44804  -0.44315
 Alpha  occ. eigenvalues --   -0.44277  -0.43719  -0.43175  -0.42835  -0.42736
 Alpha  occ. eigenvalues --   -0.42112  -0.41930  -0.41619  -0.41497  -0.41404
 Alpha  occ. eigenvalues --   -0.41284  -0.40844  -0.40417  -0.40036  -0.39547
 Alpha  occ. eigenvalues --   -0.39428  -0.39122  -0.38970  -0.38645  -0.38511
 Alpha  occ. eigenvalues --   -0.38358  -0.38207  -0.37786  -0.37622  -0.37037
 Alpha  occ. eigenvalues --   -0.36901  -0.36626  -0.36066  -0.35735  -0.35293
 Alpha  occ. eigenvalues --   -0.35036  -0.34640  -0.34103  -0.33970  -0.33620
 Alpha  occ. eigenvalues --   -0.33107  -0.32985  -0.32918  -0.32882  -0.32650
 Alpha  occ. eigenvalues --   -0.31717  -0.31555  -0.31397  -0.31327  -0.31031
 Alpha  occ. eigenvalues --   -0.30733  -0.29715  -0.29298  -0.28972  -0.27789
 Alpha  occ. eigenvalues --   -0.27262  -0.26793  -0.25704  -0.23611  -0.22086
 Alpha  occ. eigenvalues --   -0.20814  -0.19067  -0.15938
 Alpha virt. eigenvalues --   -0.08783  -0.05433  -0.01844   0.00221   0.02267
 Alpha virt. eigenvalues --    0.03505   0.05510   0.06023   0.06314   0.07587
 Alpha virt. eigenvalues --    0.07648   0.07835   0.08240   0.08686   0.09037

 Mulliken charges:
               1
     1  C   -0.049142
     2  C   -0.035970
     3  C   -0.176006
     4  C   -0.158302
     5  C   -0.181700
     6  C   -0.188066
     7  C    0.090312
     8  C    0.056359
     9  C   -0.214383
    10  C   -0.207104
    11  C    0.051537
    12  C    0.070782
    13  C   -0.278504
    14  C   -0.242871
    15  C   -0.293594
    16  C   -0.278345
    17  C   -0.161116
    18  C   -0.113379
    19  C   -0.347563
    20  C   -0.347062
    21  C   -0.111119
    22  C   -0.101864
    23  C    0.085124
    24  C    0.101997
    25  C   -0.357676
    26  C   -0.377887
    27  C   -0.081458
    28  C   -0.125779
    29  C   -0.115257
    30  C   -0.049043
    31  C   -0.084305
    32  C   -0.109491
    33  C    0.088674
    34  C    0.098151
    35  C   -0.377407
    36  C   -0.367882
    37  C   -0.116459
    38  C   -0.085961
    39  C   -0.098298
    40  C   -0.103655
    41  H    0.088165
    42  H    0.074813
    43  H    0.073398
    44  H    0.075222
    45  H    0.079133
    46  H    0.069929
    47  H    0.075162
    48  H    0.085576
    49  H    0.106151
    50  H    0.099799
    51  H    0.114937
    52  H    0.098768
    53  H    0.104054
    54  H    0.085402
    55  H    0.102227
    56  H    0.075204
    57  H    0.088191
    58  H    0.109703
    59  H    0.083000
    60  H    0.107408
    61  H    0.091944
    62  H    0.104989
    63  H    0.069362
    64  H    0.106163
    65  H    0.096822
    66  H    0.080432
    67  H    0.115636
    68  H    0.099873
    69  H    0.090169
    70  H    0.128038
    71  H    0.133030
    72  H    0.059126
    73  H    0.075871
    74  H    0.078050
    75  H    0.106861
    76  H    0.113113
    77  H    0.121375
    78  H    0.127023
    79  H    0.136112
    80  H    0.096591
    81  H    0.079614
    82  H    0.070040
    83  H    0.089329
    84  H    0.053322
    85  H    0.084851
    86  H    0.070131
    87  H    0.134877
    88  H    0.110238
    89  H    0.123836
    90  H    0.140197
    91  H    0.095700
    92  H    0.094656
    93  H    0.078390
    94  H    0.083008
    95  H    0.073204
    96  H    0.085495
 Sum of Mulliken charges =  -0.00000

 Dipole moment (field-independent basis, Debye):
    X=              0.7918    Y=             -0.4103    Z=              0.5397  Tot=              1.0424
 Quadrupole moment (field-independent basis, Debye-Ang):
   XX=           -241.2339   YY=           -232.8628   ZZ=           -255.7058
   XY=              2.0966   XZ=              0.1045   YZ=             -4.1046

 Normal termination of Gaussian 16 at Sat Jul 27 04:02:10 2019.
