 Gaussian 16, Revision A.03,
 Gaussian 16:  ES64L-G16RevA.03 25-Dec-2016

 ---------------------------------
 # td=(NStates=1) B3LYP/6-31G(d,p)
 ---------------------------------

 --
 TD
 --
 Symbolic Z-matrix:
 Charge =  0 Multiplicity = 1

                         Standard orientation:
 ---------------------------------------------------------------------
 Center     Atomic      Atomic             Coordinates (Angstroms)
 Number     Number       Type             X           Y           Z
 ---------------------------------------------------------------------
      1          6           0       12.108399   -0.602668    0.647033
      2          6           0      -12.130522   -0.012618   -0.723257
      3          6           0       13.458557    0.261544    0.715634
      4          6           0      -13.009299   -1.183245   -1.326157
      5          6           0       13.119605    1.759841    0.708772
      6          6           0      -13.337830   -2.141185   -0.078082
      7          6           0       11.068199   -0.018769   -0.203854
      8          6           0      -11.033803   -0.509947    0.154426
      9          6           0       12.265722    2.115114   -0.587771
     10          6           0      -12.009618   -2.788673    0.551949
     11          6           0       11.047486    1.153676   -0.890210
     12          6           0      -11.001170   -1.666735    0.832209
     13          6           0       11.454451   -0.625301    2.128613
     14          6           0       12.526299   -2.017596    0.258358
     15          6           0      -13.072052    1.069882   -0.035273
     16          6           0      -11.505848    0.704390   -1.944902
     17          6           0        9.906220   -0.848057   -0.444328
     18          6           0       -9.918921    0.492002    0.361708
     19          6           0       10.035642    1.722299   -1.843046
     20          6           0       -9.868321   -2.058830    1.820406
     21          6           0        8.602688   -0.491210   -0.193297
     22          6           0       -8.580030    0.368987    0.106580
     23          6           0        7.470777   -1.324906   -0.363361
     24          6           0       -7.548080    1.396819    0.256820
     25          6           0        7.616576   -2.740673   -0.793032
     26          6           0       -7.856390    2.725605    0.618289
     27          6           0        6.174154   -0.737759   -0.126378
     28          6           0       -6.167744    0.965103    0.142173
     29          6           0        4.897752   -1.398174   -0.345643
     30          6           0       -5.017193    1.769910    0.347282
     31          6           0        3.723664   -0.678595   -0.267941
     32          6           0       -3.792676    1.210961    0.198634
     33          6           0        2.386604   -1.231918   -0.314442
     34          6           0       -2.460386    1.867267    0.311643
     35          6           0        2.209696   -2.626499   -0.777920
     36          6           0       -2.540414    3.358173    0.561536
     37          6           0        1.186616   -0.469194   -0.108628
     38          6           0       -1.388120    1.104938    0.113588
     39          6           0        1.104386    0.868852    0.171305
     40          6           0       -0.019926    1.656638    0.278897
     41          1           0       13.976370   -0.086097   -0.168506
     42          1           0       14.084748    0.018346    1.621422
     43          1           0      -12.441769   -1.796818   -1.878987
     44          1           0      -13.849749   -0.861166   -1.843020
     45          1           0       13.988112    2.492142    0.647579
     46          1           0       12.476272    2.021631    1.652956
     47          1           0      -14.129346   -2.786995   -0.552785
     48          1           0      -14.113718   -1.530407    0.524738
     49          1           0       12.970241    2.355016   -1.589398
     50          1           0       12.055130    3.171324   -0.473837
     51          1           0      -11.738975   -3.588439   -0.112246
     52          1           0      -12.255112   -3.127466    1.486400
     53          1           0       11.515619    0.286435    2.735515
     54          1           0       12.146617   -1.259623    2.784719
     55          1           0       10.420016   -1.315320    2.061046
     56          1           0       12.808132   -2.147947   -0.646246
     57          1           0       11.588262   -2.701429    0.384580
     58          1           0       13.341754   -2.520506    1.032909
     59          1           0      -13.425486    0.402374    0.843298
     60          1           0      -13.727787    1.408158   -0.830465
     61          1           0      -12.606363    1.847535    0.294292
     62          1           0      -10.810559    0.121126   -2.371976
     63          1           0      -10.976689    1.776925   -1.798065
     64          1           0      -12.228025    0.847167   -2.779722
     65          1           0       10.028635   -2.007388   -0.477704
     66          1           0      -10.093104    1.542694    0.694175
     67          1           0        9.626761    0.785755   -2.521768
     68          1           0       10.623361    2.693617   -2.418133
     69          1           0        9.221668    2.288813   -1.098763
     70          1           0       -9.190318   -1.143121    2.303546
     71          1           0       -9.350310   -2.821500    1.501742
     72          1           0      -10.432013   -2.487250    2.881160
     73          1           0        8.539419    0.601370   -0.013993
     74          1           0       -8.218968   -0.621037   -0.076178
     75          1           0        8.094592   -2.988311   -1.756851
     76          1           0        6.681824   -3.377668   -0.621896
     77          1           0        8.225446   -3.301870   -0.034578
     78          1           0       -8.405444    2.858699    1.626470
     79          1           0       -8.611845    3.089859   -0.106608
     80          1           0       -6.859214    3.360717    0.773750
     81          1           0        6.272664    0.209907    0.024413
     82          1           0       -5.877260   -0.066849    0.027670
     83          1           0        4.924437   -2.374260   -0.735775
     84          1           0       -5.168796    2.862005    0.457597
     85          1           0        3.783139    0.233147    0.109760
     86          1           0       -3.760733    0.104828   -0.109114
     87          1           0        2.893795   -2.840902   -1.713845
     88          1           0        1.183010   -2.877870   -1.243198
     89          1           0        2.571419   -3.462536   -0.058510
     90          1           0       -3.103915    3.517972    1.478130
     91          1           0       -2.882565    3.825100   -0.407692
     92          1           0       -1.469796    3.705112    0.784496
     93          1           0        0.227159   -0.839112   -0.354663
     94          1           0       -1.496977    0.143784   -0.251275
     95          1           0        2.088385    1.366230    0.313510
     96          1           0        0.236951    2.597415    0.489913
 ---------------------------------------------------------------------

 SCF Done:  E(RB3LYP) =  -1557.56268675     A.U. after   16 cycles

 Excitation energies and oscillator strengths:

 Excited State   1:      Singlet-A      2.0751 eV  597.49 nm  f=2.9401  <S**2>=0.000
     148 ->149         0.70668
     148 <-149        -0.11067
 This state for optimization and/or second-order correction.
 Total Energy, E(TD-HF/TD-DFT) =  -1557.48642848
 Copying the excited state density for this state as the 1-particle RhoCI density.

 The electronic state is 1-A.
 Alpha  occ. eigenvalues --  -10.22274 -10.20693 -10.20495 -10.20425 -10.19989
 Alpha  occ. eigenvalues --  -10.19681 -10.19606 -10.19605 -10.19544 -10.19532
 Alpha  occ. eigenvalues --  -10.19523 -10.19473 -10.19454 -10.19254 -10.19221
 Alpha  occ. eigenvalues --  -10.19170 -10.19101 -10.19094 -10.18964 -10.18913
 Alpha  occ. eigenvalues --  -10.18822 -10.18707 -10.18678 -10.18629 -10.18591
 Alpha  occ. eigenvalues --  -10.18566 -10.18523 -10.18434 -10.18335 -10.18324
 Alpha  occ. eigenvalues --  -10.18236 -10.18214 -10.18149 -10.18111 -10.17979
 Alpha  occ. eigenvalues --  -10.17978 -10.17951 -10.16510 -10.16322 -10.16319
 Alpha  occ. eigenvalues --   -0.85090  -0.84382  -0.83578  -0.82870  -0.82057
 Alpha  occ. eigenvalues --   -0.81281  -0.78953  -0.77812  -0.77685  -0.76957
 Alpha  occ. eigenvalues --   -0.76208  -0.75178  -0.74170  -0.71633  -0.71364
 Alpha  occ. eigenvalues --   -0.70057  -0.68725  -0.68324  -0.67887  -0.67824
 Alpha  occ. eigenvalues --   -0.67585  -0.67280  -0.66827  -0.65921  -0.65840
 Alpha  occ. eigenvalues --   -0.62611  -0.61168  -0.58945  -0.58660  -0.57052
 Alpha  occ. eigenvalues --   -0.56909  -0.56241  -0.55756  -0.54895  -0.53438
 Alpha  occ. eigenvalues --   -0.52645  -0.51964  -0.50996  -0.49941  -0.48751
 Alpha  occ. eigenvalues --   -0.48666  -0.47871  -0.46931  -0.46548  -0.45986
 Alpha  occ. eigenvalues --   -0.45397  -0.44785  -0.44409  -0.43989  -0.43616
 Alpha  occ. eigenvalues --   -0.43537  -0.43234  -0.43058  -0.42718  -0.42250
 Alpha  occ. eigenvalues --   -0.41754  -0.41397  -0.41280  -0.41064  -0.40652
 Alpha  occ. eigenvalues --   -0.40500  -0.40326  -0.40117  -0.39582  -0.39358
 Alpha  occ. eigenvalues --   -0.38525  -0.38486  -0.38274  -0.38235  -0.37749
 Alpha  occ. eigenvalues --   -0.37511  -0.37277  -0.37050  -0.36824  -0.36441
 Alpha  occ. eigenvalues --   -0.36335  -0.36000  -0.35675  -0.35561  -0.35264
 Alpha  occ. eigenvalues --   -0.34952  -0.34606  -0.34313  -0.34119  -0.33635
 Alpha  occ. eigenvalues --   -0.33607  -0.33322  -0.33313  -0.33145  -0.32745
 Alpha  occ. eigenvalues --   -0.32589  -0.32095  -0.31511  -0.31206  -0.30968
 Alpha  occ. eigenvalues --   -0.30907  -0.29875  -0.29813  -0.28938  -0.27802
 Alpha  occ. eigenvalues --   -0.27761  -0.27378  -0.26107  -0.23688  -0.22847
 Alpha  occ. eigenvalues --   -0.21028  -0.18505  -0.16051
 Alpha virt. eigenvalues --   -0.08380  -0.05300  -0.01952   0.01098   0.02235
 Alpha virt. eigenvalues --    0.03531   0.05866   0.06546   0.06791   0.07135
 Alpha virt. eigenvalues --    0.07580   0.08177   0.08469   0.08672   0.08946

 Mulliken charges:
               1
     1  C   -0.023036
     2  C   -0.022928
     3  C   -0.161466
     4  C   -0.169664
     5  C   -0.187385
     6  C   -0.230178
     7  C    0.129465
     8  C    0.088431
     9  C   -0.224925
    10  C   -0.209460
    11  C    0.080269
    12  C    0.045687
    13  C   -0.297436
    14  C   -0.285464
    15  C   -0.279438
    16  C   -0.296426
    17  C   -0.174659
    18  C   -0.162363
    19  C   -0.335942
    20  C   -0.336304
    21  C   -0.080769
    22  C   -0.064343
    23  C    0.121472
    24  C    0.126423
    25  C   -0.393528
    26  C   -0.389892
    27  C   -0.093591
    28  C   -0.125286
    29  C   -0.076542
    30  C   -0.066626
    31  C   -0.088678
    32  C   -0.129945
    33  C    0.106416
    34  C    0.122376
    35  C   -0.380053
    36  C   -0.369144
    37  C   -0.103936
    38  C   -0.114424
    39  C   -0.091841
    40  C   -0.084001
    41  H    0.098225
    42  H    0.085062
    43  H    0.105160
    44  H    0.092810
    45  H    0.086227
    46  H    0.088710
    47  H    0.076917
    48  H    0.091134
    49  H    0.059137
    50  H    0.100924
    51  H    0.119403
    52  H    0.117816
    53  H    0.109286
    54  H    0.081798
    55  H    0.089157
    56  H    0.120073
    57  H    0.083127
    58  H    0.078454
    59  H    0.091192
    60  H    0.099908
    61  H    0.112388
    62  H    0.113270
    63  H    0.069992
    64  H    0.080364
    65  H    0.062478
    66  H    0.069539
    67  H    0.118819
    68  H    0.083173
    69  H    0.104047
    70  H    0.107709
    71  H    0.133840
    72  H    0.056080
    73  H    0.074145
    74  H    0.069949
    75  H    0.128824
    76  H    0.102904
    77  H    0.114733
    78  H    0.114942
    79  H    0.123146
    80  H    0.095215
    81  H    0.062850
    82  H    0.076284
    83  H    0.083683
    84  H    0.082316
    85  H    0.072890
    86  H    0.067500
    87  H    0.099697
    88  H    0.104132
    89  H    0.110607
    90  H    0.128302
    91  H    0.131775
    92  H    0.098839
    93  H    0.072078
    94  H    0.087397
    95  H    0.066591
    96  H    0.074118
 Sum of Mulliken charges =  -0.00000

 Dipole moment (field-independent basis, Debye):
    X=              0.7379    Y=             -0.1703    Z=             -0.3603  Tot=              0.8386
 Quadrupole moment (field-independent basis, Debye-Ang):
   XX=           -229.6823   YY=           -233.7067   ZZ=           -255.3044
   XY=              2.3773   XZ=              3.4213   YZ=              5.3476

 Normal termination of Gaussian 16 at Fri Jul 26 15:34:02 2019.
