 Gaussian 16, Revision A.03,
 Gaussian 16:  ES64L-G16RevA.03 25-Dec-2016

 ---------------------------------
 # td=(NStates=1) B3LYP/6-31G(d,p)
 ---------------------------------

 --
 TD
 --
 Symbolic Z-matrix:
 Charge =  0 Multiplicity = 1

                         Standard orientation:
 ---------------------------------------------------------------------
 Center     Atomic      Atomic             Coordinates (Angstroms)
 Number     Number       Type             X           Y           Z
 ---------------------------------------------------------------------
      1          6           0      -12.240538   -0.622586   -0.631299
      2          6           0       12.333029    0.034714    0.910128
      3          6           0      -13.457810    0.173806   -0.412367
      4          6           0       13.112177   -1.234961    1.244507
      5          6           0      -13.258018    1.656754   -0.684908
      6          6           0       13.462726   -2.028462   -0.024706
      7          6           0      -11.088154   -0.006202    0.302595
      8          6           0       11.072150   -0.445362   -0.076509
      9          6           0      -12.361974    2.166070    0.489024
     10          6           0       12.297071   -2.651697   -0.612571
     11          6           0      -11.138764    1.237042    0.720011
     12          6           0       11.105140   -1.575282   -0.682337
     13          6           0      -11.808050   -0.667684   -2.106788
     14          6           0      -12.592610   -2.073269   -0.065405
     15          6           0       13.035587    1.148160    0.000971
     16          6           0       11.727435    0.697192    2.089842
     17          6           0       -9.952011   -0.818467    0.385378
     18          6           0       10.010112    0.572657   -0.289111
     19          6           0      -10.205187    1.868183    1.657547
     20          6           0        9.994096   -2.143474   -1.565817
     21          6           0       -8.652579   -0.417816    0.286254
     22          6           0        8.578493    0.380860   -0.131335
     23          6           0       -7.492970   -1.229414    0.303013
     24          6           0        7.508880    1.296741   -0.378548
     25          6           0       -7.595132   -2.723233    0.849571
     26          6           0        7.935807    2.785912   -0.457681
     27          6           0       -6.203437   -0.663344    0.153752
     28          6           0        6.243541    0.806299   -0.302283
     29          6           0       -4.924413   -1.364860    0.290513
     30          6           0        4.998450    1.569626   -0.364035
     31          6           0       -3.773347   -0.693501    0.201569
     32          6           0        3.755198    1.044435   -0.268175
     33          6           0       -2.413934   -1.284206    0.137097
     34          6           0        2.503928    1.778590   -0.375746
     35          6           0       -2.270236   -2.680467    0.514598
     36          6           0        2.586058    3.201544   -0.743364
     37          6           0       -1.228155   -0.524682    0.110417
     38          6           0        1.338375    1.150957   -0.195879
     39          6           0       -1.180194    0.936692   -0.046722
     40          6           0       -0.015895    1.626792   -0.287984
     41          1           0      -13.608077    0.026451    0.553359
     42          1           0      -14.232316   -0.319431   -1.040152
     43          1           0       12.670099   -2.060776    1.927712
     44          1           0       13.919076   -0.869557    1.818944
     45          1           0      -14.290445    2.043866   -0.838848
     46          1           0      -12.867672    1.947595   -1.636285
     47          1           0       14.229015   -2.811143    0.138129
     48          1           0       13.960947   -1.393526   -0.880064
     49          1           0      -12.967808    2.286501    1.350975
     50          1           0      -11.757757    3.217096    0.283383
     51          1           0       11.960440   -3.397818   -0.003577
     52          1           0       12.418063   -3.037732   -1.706072
     53          1           0      -11.839430    0.274333   -2.682548
     54          1           0      -12.733410   -1.212501   -2.626949
     55          1           0      -11.018869   -1.346611   -2.086001
     56          1           0      -12.680706   -2.113022    1.094233
     57          1           0      -11.637611   -2.821287   -0.536001
     58          1           0      -13.592128   -2.510731   -0.586210
     59          1           0       13.731224    0.703195   -0.635366
     60          1           0       13.781843    1.611365    0.556606
     61          1           0       12.458463    1.919338   -0.638091
     62          1           0       11.067995   -0.077695    2.742449
     63          1           0       10.851380    1.443298    1.883418
     64          1           0       12.543285    1.232070    2.699937
     65          1           0      -10.089140   -1.914774    0.956921
     66          1           0       10.334933    1.637486   -0.422727
     67          1           0       -9.569064    1.239138    2.340698
     68          1           0      -10.796444    2.449363    2.408604
     69          1           0       -9.554083    2.721225    1.301256
     70          1           0        9.245066   -1.193402   -1.917421
     71          1           0        9.466199   -2.902762   -0.954752
     72          1           0       10.379130   -2.706909   -2.451449
     73          1           0       -8.400570    0.554635   -0.253519
     74          1           0        8.194104   -0.587524   -0.185732
     75          1           0       -8.127603   -2.644659    1.711228
     76          1           0       -6.493668   -2.923671    0.861401
     77          1           0       -8.294003   -3.327286    0.184598
     78          1           0        8.424643    2.939003   -1.334095
     79          1           0        8.543719    3.100530    0.319900
     80          1           0        7.180140    3.706793   -0.593056
     81          1           0       -5.946902    0.446937   -0.147593
     82          1           0        6.269598   -0.462854   -0.065223
     83          1           0       -4.737010   -2.366956    0.593895
     84          1           0        4.977632    2.623404   -0.348806
     85          1           0       -3.742488    0.445651    0.243339
     86          1           0        3.716735   -0.095357   -0.191300
     87          1           0       -2.667241   -3.030414    1.642516
     88          1           0       -1.156512   -2.965756    0.385601
     89          1           0       -2.722988   -3.286753   -0.201369
     90          1           0        3.090235    3.313044   -1.635701
     91          1           0        3.101238    3.799656    0.024203
     92          1           0        1.696505    3.791875   -0.770847
     93          1           0       -0.418375   -1.297166   -0.015151
     94          1           0        1.497644    0.108776    0.202930
     95          1           0       -2.068452    1.679110    0.131489
     96          1           0       -0.167654    2.711999   -0.632130
 ---------------------------------------------------------------------

 SCF Done:  E(RB3LYP) =  -1557.56582311     A.U. after   15 cycles

 Excitation energies and oscillator strengths:

 Excited State   1:      Singlet-A      2.2473 eV  551.71 nm  f=2.9559  <S**2>=0.000
     148 ->149         0.70898
 This state for optimization and/or second-order correction.
 Total Energy, E(TD-HF/TD-DFT) =  -1557.48323701
 Copying the excited state density for this state as the 1-particle RhoCI density.

 The electronic state is 1-A.
 Alpha  occ. eigenvalues --  -10.21048 -10.21010 -10.20768 -10.20552 -10.20339
 Alpha  occ. eigenvalues --  -10.20151 -10.20095 -10.20014 -10.19883 -10.19740
 Alpha  occ. eigenvalues --  -10.19715 -10.19617 -10.19601 -10.19473 -10.19198
 Alpha  occ. eigenvalues --  -10.19112 -10.19026 -10.18865 -10.18838 -10.18765
 Alpha  occ. eigenvalues --  -10.18765 -10.18688 -10.18685 -10.18640 -10.18561
 Alpha  occ. eigenvalues --  -10.18505 -10.18487 -10.18310 -10.18092 -10.18066
 Alpha  occ. eigenvalues --  -10.18030 -10.18029 -10.17939 -10.17831 -10.17722
 Alpha  occ. eigenvalues --  -10.17574 -10.17451 -10.17215 -10.17130 -10.15797
 Alpha  occ. eigenvalues --   -0.85565  -0.84553  -0.83689  -0.82927  -0.81838
 Alpha  occ. eigenvalues --   -0.81213  -0.79128  -0.78382  -0.78089  -0.77400
 Alpha  occ. eigenvalues --   -0.76892  -0.75473  -0.74581  -0.71773  -0.70893
 Alpha  occ. eigenvalues --   -0.70291  -0.69415  -0.68644  -0.68229  -0.67649
 Alpha  occ. eigenvalues --   -0.67357  -0.67054  -0.66931  -0.66131  -0.65287
 Alpha  occ. eigenvalues --   -0.62486  -0.61916  -0.59534  -0.58811  -0.57324
 Alpha  occ. eigenvalues --   -0.56598  -0.54832  -0.54523  -0.53561  -0.52794
 Alpha  occ. eigenvalues --   -0.52470  -0.51625  -0.49853  -0.49319  -0.48557
 Alpha  occ. eigenvalues --   -0.48127  -0.47588  -0.47042  -0.46845  -0.45939
 Alpha  occ. eigenvalues --   -0.45436  -0.45183  -0.44577  -0.44332  -0.43613
 Alpha  occ. eigenvalues --   -0.43356  -0.42885  -0.42523  -0.42209  -0.41959
 Alpha  occ. eigenvalues --   -0.41812  -0.41690  -0.41335  -0.41270  -0.40920
 Alpha  occ. eigenvalues --   -0.40548  -0.40220  -0.39582  -0.39355  -0.39086
 Alpha  occ. eigenvalues --   -0.39010  -0.38566  -0.38409  -0.38312  -0.37904
 Alpha  occ. eigenvalues --   -0.37447  -0.37347  -0.36809  -0.36529  -0.36228
 Alpha  occ. eigenvalues --   -0.35970  -0.35883  -0.35529  -0.35088  -0.34994
 Alpha  occ. eigenvalues --   -0.34651  -0.34457  -0.34226  -0.34084  -0.33627
 Alpha  occ. eigenvalues --   -0.33530  -0.33496  -0.33000  -0.32779  -0.32731
 Alpha  occ. eigenvalues --   -0.32137  -0.31736  -0.31663  -0.31230  -0.31119
 Alpha  occ. eigenvalues --   -0.30862  -0.30849  -0.29859  -0.28832  -0.28001
 Alpha  occ. eigenvalues --   -0.27665  -0.26755  -0.25646  -0.24425  -0.23652
 Alpha  occ. eigenvalues --   -0.21276  -0.18825  -0.16716
 Alpha virt. eigenvalues --   -0.08007  -0.05358  -0.02324   0.00981   0.03139
 Alpha virt. eigenvalues --    0.04595   0.05737   0.06516   0.06551   0.07131
 Alpha virt. eigenvalues --    0.07441   0.07726   0.08348   0.08768   0.08893

 Mulliken charges:
               1
     1  C    0.000858
     2  C    0.027286
     3  C   -0.152752
     4  C   -0.175696
     5  C   -0.191996
     6  C   -0.187042
     7  C    0.080210
     8  C    0.082089
     9  C   -0.225790
    10  C   -0.191121
    11  C    0.079131
    12  C    0.038723
    13  C   -0.281007
    14  C   -0.287427
    15  C   -0.320272
    16  C   -0.288850
    17  C   -0.145501
    18  C   -0.164277
    19  C   -0.372699
    20  C   -0.351259
    21  C   -0.078441
    22  C   -0.116774
    23  C    0.063006
    24  C    0.152888
    25  C   -0.356838
    26  C   -0.381262
    27  C   -0.122967
    28  C   -0.142623
    29  C   -0.071579
    30  C   -0.083404
    31  C   -0.104165
    32  C   -0.111308
    33  C    0.084898
    34  C    0.142225
    35  C   -0.365076
    36  C   -0.392802
    37  C   -0.107586
    38  C   -0.116267
    39  C   -0.100853
    40  C   -0.100949
    41  H    0.100672
    42  H    0.073174
    43  H    0.094092
    44  H    0.094561
    45  H    0.082962
    46  H    0.100228
    47  H    0.081548
    48  H    0.083668
    49  H    0.120630
    50  H    0.072186
    51  H    0.114659
    52  H    0.088927
    53  H    0.111675
    54  H    0.067997
    55  H    0.118030
    56  H    0.104873
    57  H    0.059372
    58  H    0.084402
    59  H    0.109609
    60  H    0.098499
    61  H    0.109960
    62  H    0.080294
    63  H    0.098900
    64  H    0.084697
    65  H    0.064138
    66  H    0.083817
    67  H    0.115423
    68  H    0.098443
    69  H    0.106808
    70  H    0.090573
    71  H    0.113518
    72  H    0.095600
    73  H    0.077047
    74  H    0.080248
    75  H    0.136395
    76  H    0.108099
    77  H    0.111086
    78  H    0.136143
    79  H    0.133819
    80  H    0.081107
    81  H    0.078534
    82  H    0.060461
    83  H    0.093815
    84  H    0.085279
    85  H    0.068294
    86  H    0.072353
    87  H    0.099688
    88  H    0.086944
    89  H    0.127552
    90  H    0.133346
    91  H    0.117293
    92  H    0.110229
    93  H    0.088288
    94  H    0.074780
    95  H    0.096460
    96  H    0.076074
 Sum of Mulliken charges =  -0.00000

 Dipole moment (field-independent basis, Debye):
    X=              0.9845    Y=              0.7213    Z=              0.3305  Tot=              1.2645
 Quadrupole moment (field-independent basis, Debye-Ang):
   XX=           -211.3876   YY=           -234.1850   ZZ=           -255.4370
   XY=             -4.6114   XZ=             -4.3404   YZ=             -3.7112

 Normal termination of Gaussian 16 at Sun Jul 28 23:29:22 2019.
