 Gaussian 16, Revision A.03,
 Gaussian 16:  ES64L-G16RevA.03 25-Dec-2016

 ---------------------------------
 # td=(NStates=1) B3LYP/6-31G(d,p)
 ---------------------------------

 --
 TD
 --
 Symbolic Z-matrix:
 Charge =  0 Multiplicity = 1

                         Standard orientation:
 ---------------------------------------------------------------------
 Center     Atomic      Atomic             Coordinates (Angstroms)
 Number     Number       Type             X           Y           Z
 ---------------------------------------------------------------------
      1          6           0      -12.145914   -0.485902   -0.673479
      2          6           0       12.138824    0.033518    0.877486
      3          6           0      -13.488975    0.338687   -0.704718
      4          6           0       13.044785   -1.183869    1.193954
      5          6           0      -13.116785    1.771127   -0.772208
      6          6           0       13.410114   -2.000940    0.002896
      7          6           0      -11.100673    0.042774    0.297047
      8          6           0       11.026868   -0.431260   -0.192764
      9          6           0      -12.314742    2.263505    0.512224
     10          6           0       12.178387   -2.479219   -0.743842
     11          6           0      -11.270297    1.277827    0.849466
     12          6           0       11.030961   -1.561398   -0.808011
     13          6           0      -11.482352   -0.479205   -2.168809
     14          6           0      -12.612925   -2.036892   -0.481124
     15          6           0       12.998008    1.178334    0.195499
     16          6           0       11.517943    0.636839    2.215472
     17          6           0       -9.890762   -0.955760    0.473620
     18          6           0        9.977849    0.582540   -0.242567
     19          6           0      -10.221816    1.695449    1.897910
     20          6           0        9.997483   -1.943172   -1.894333
     21          6           0       -8.648423   -0.569685    0.343321
     22          6           0        8.616663    0.257471   -0.051453
     23          6           0       -7.412390   -1.322937    0.497736
     24          6           0        7.473028    1.234682   -0.328949
     25          6           0       -7.600928   -2.734342    0.878357
     26          6           0        7.855842    2.762986   -0.662826
     27          6           0       -6.235870   -0.764396    0.224431
     28          6           0        6.244856    0.814752   -0.349197
     29          6           0       -4.938893   -1.405678    0.392828
     30          6           0        5.151990    1.600797   -0.288880
     31          6           0       -3.809822   -0.689203    0.259598
     32          6           0        3.815617    1.045818   -0.231400
     33          6           0       -2.431229   -1.283613    0.343159
     34          6           0        2.585756    1.717787   -0.272463
     35          6           0       -2.196133   -2.713295    0.778769
     36          6           0        2.568012    3.254361   -0.506368
     37          6           0       -1.261678   -0.608859    0.108075
     38          6           0        1.383199    1.048735   -0.298365
     39          6           0       -1.094812    0.842734   -0.152012
     40          6           0        0.058207    1.437924   -0.327011
     41          1           0      -14.078343    0.107970    0.065260
     42          1           0      -14.006257    0.053552   -1.652671
     43          1           0       12.525291   -1.795882    1.853887
     44          1           0       14.013264   -0.830806    1.736405
     45          1           0      -13.967314    2.445300   -0.707359
     46          1           0      -12.525176    1.907664   -1.720197
     47          1           0       14.082213   -2.880149    0.488609
     48          1           0       14.243260   -1.469300   -0.604622
     49          1           0      -12.917361    2.416792    1.229229
     50          1           0      -11.990934    3.254351    0.561873
     51          1           0       11.659032   -3.269995   -0.168792
     52          1           0       12.564503   -2.780544   -1.712916
     53          1           0      -11.345271    0.443301   -2.490688
     54          1           0      -12.380006   -1.011916   -2.641391
     55          1           0      -10.523016   -0.835794   -2.145054
     56          1           0      -12.912733   -2.117329    0.518659
     57          1           0      -11.783322   -2.611674   -0.555297
     58          1           0      -13.411620   -2.289326   -1.159066
     59          1           0       13.807147    0.821206   -0.540004
     60          1           0       13.464732    1.741447    1.065697
     61          1           0       12.343373    2.010316   -0.261717
     62          1           0       10.754560   -0.029963    2.539404
     63          1           0       10.864371    1.450575    1.854878
     64          1           0       12.536925    0.864453    2.795891
     65          1           0      -10.118283   -2.009457    0.681458
     66          1           0       10.274529    1.647971   -0.606621
     67          1           0       -9.556358    0.868834    2.082078
     68          1           0      -10.673945    2.096674    2.781597
     69          1           0       -9.860431    2.442196    1.410027
     70          1           0        9.244882   -1.234143   -2.167052
     71          1           0        9.424457   -2.915864   -1.685339
     72          1           0       10.570546   -2.214158   -2.718413
     73          1           0       -8.630969    0.416233    0.411008
     74          1           0        8.383996   -0.679307    0.275725
     75          1           0       -7.917273   -2.959737    1.783708
     76          1           0       -6.604728   -3.240429    0.730070
     77          1           0       -8.125744   -3.283585    0.075966
     78          1           0        8.495809    2.836699   -1.597832
     79          1           0        8.476112    3.158035   -0.030167
     80          1           0        6.942349    3.349879   -0.781819
     81          1           0       -6.128224    0.330895   -0.146528
     82          1           0        5.823071   -0.126001    0.042663
     83          1           0       -4.861374   -2.388092    0.613860
     84          1           0        4.996160    2.733233   -0.680473
     85          1           0       -3.857344    0.303548    0.106995
     86          1           0        3.593830    0.092796   -0.084629
     87          1           0       -2.793248   -2.854078    1.561426
     88          1           0       -1.162927   -2.967227    0.733417
     89          1           0       -2.660003   -3.419300    0.049963
     90          1           0        3.001519    3.471098   -1.537956
     91          1           0        3.173463    3.791365    0.145347
     92          1           0        1.509291    3.618254   -0.257779
     93          1           0       -0.398886   -1.378909    0.028754
     94          1           0        1.446914   -0.024843   -0.065472
     95          1           0       -1.985462    1.413587   -0.105778
     96          1           0        0.167109    2.395440   -0.544630
 ---------------------------------------------------------------------

 SCF Done:  E(RB3LYP) =  -1557.54801665     A.U. after   16 cycles

 Excitation energies and oscillator strengths:

 Excited State   1:      Singlet-A      2.3563 eV  526.19 nm  f=3.0680  <S**2>=0.000
     147 ->149         0.11009
     148 ->149         0.69447
     148 <-149        -0.10877
 This state for optimization and/or second-order correction.
 Total Energy, E(TD-HF/TD-DFT) =  -1557.46142569
 Copying the excited state density for this state as the 1-particle RhoCI density.

 The electronic state is 1-A.
 Alpha  occ. eigenvalues --  -10.20438 -10.20059 -10.19880 -10.19791 -10.19729
 Alpha  occ. eigenvalues --  -10.19661 -10.19376 -10.19321 -10.19307 -10.19255
 Alpha  occ. eigenvalues --  -10.19140 -10.18924 -10.18686 -10.18625 -10.18561
 Alpha  occ. eigenvalues --  -10.18499 -10.18445 -10.18377 -10.18327 -10.18325
 Alpha  occ. eigenvalues --  -10.18262 -10.18252 -10.18140 -10.17908 -10.17852
 Alpha  occ. eigenvalues --  -10.17748 -10.17720 -10.17590 -10.17541 -10.17372
 Alpha  occ. eigenvalues --  -10.17361 -10.17292 -10.17072 -10.16490 -10.16462
 Alpha  occ. eigenvalues --  -10.16437 -10.16401 -10.15599 -10.15160 -10.15130
 Alpha  occ. eigenvalues --   -0.85141  -0.84486  -0.83940  -0.83524  -0.82669
 Alpha  occ. eigenvalues --   -0.81604  -0.79119  -0.78202  -0.78054  -0.77918
 Alpha  occ. eigenvalues --   -0.77376  -0.75665  -0.74308  -0.73073  -0.71635
 Alpha  occ. eigenvalues --   -0.70340  -0.69347  -0.69136  -0.69062  -0.68338
 Alpha  occ. eigenvalues --   -0.68310  -0.67673  -0.67582  -0.66703  -0.66400
 Alpha  occ. eigenvalues --   -0.63690  -0.61893  -0.59975  -0.59584  -0.57464
 Alpha  occ. eigenvalues --   -0.57097  -0.55920  -0.55152  -0.54284  -0.53735
 Alpha  occ. eigenvalues --   -0.53289  -0.53038  -0.51763  -0.49865  -0.49451
 Alpha  occ. eigenvalues --   -0.48327  -0.47878  -0.47596  -0.47088  -0.46483
 Alpha  occ. eigenvalues --   -0.45891  -0.45762  -0.45271  -0.44916  -0.44309
 Alpha  occ. eigenvalues --   -0.43999  -0.43902  -0.43583  -0.42534  -0.42377
 Alpha  occ. eigenvalues --   -0.42070  -0.41562  -0.41362  -0.41077  -0.41036
 Alpha  occ. eigenvalues --   -0.40812  -0.40473  -0.40172  -0.40081  -0.39832
 Alpha  occ. eigenvalues --   -0.39512  -0.39199  -0.38962  -0.38791  -0.38575
 Alpha  occ. eigenvalues --   -0.38439  -0.38165  -0.37597  -0.36805  -0.36753
 Alpha  occ. eigenvalues --   -0.36550  -0.36297  -0.36137  -0.36120  -0.36061
 Alpha  occ. eigenvalues --   -0.35737  -0.35170  -0.34954  -0.34581  -0.33908
 Alpha  occ. eigenvalues --   -0.33821  -0.33690  -0.33431  -0.33206  -0.33031
 Alpha  occ. eigenvalues --   -0.32611  -0.32154  -0.31727  -0.31129  -0.31035
 Alpha  occ. eigenvalues --   -0.30097  -0.29876  -0.29279  -0.28816  -0.28341
 Alpha  occ. eigenvalues --   -0.27629  -0.27289  -0.25695  -0.24141  -0.22806
 Alpha  occ. eigenvalues --   -0.21249  -0.19404  -0.16527
 Alpha virt. eigenvalues --   -0.07918  -0.04562  -0.00923   0.01456   0.03563
 Alpha virt. eigenvalues --    0.04677   0.05929   0.06822   0.07547   0.08164
 Alpha virt. eigenvalues --    0.08368   0.08697   0.08920   0.09447   0.09803

 Mulliken charges:
               1
     1  C   -0.043516
     2  C   -0.008395
     3  C   -0.150218
     4  C   -0.163806
     5  C   -0.194026
     6  C   -0.183551
     7  C    0.046996
     8  C    0.069881
     9  C   -0.215672
    10  C   -0.212184
    11  C    0.038516
    12  C    0.056116
    13  C   -0.289705
    14  C   -0.316231
    15  C   -0.295087
    16  C   -0.295101
    17  C   -0.155089
    18  C   -0.153199
    19  C   -0.359429
    20  C   -0.360684
    21  C   -0.055320
    22  C   -0.095087
    23  C    0.109063
    24  C    0.090714
    25  C   -0.380609
    26  C   -0.365803
    27  C   -0.123509
    28  C   -0.099107
    29  C   -0.057037
    30  C   -0.086261
    31  C   -0.085783
    32  C   -0.103559
    33  C    0.094549
    34  C    0.115654
    35  C   -0.368924
    36  C   -0.387046
    37  C   -0.143262
    38  C   -0.126993
    39  C   -0.095855
    40  C   -0.035149
    41  H    0.097691
    42  H    0.079849
    43  H    0.099756
    44  H    0.066563
    45  H    0.078606
    46  H    0.098227
    47  H    0.069810
    48  H    0.087613
    49  H    0.116844
    50  H    0.094865
    51  H    0.113376
    52  H    0.107175
    53  H    0.101682
    54  H    0.084285
    55  H    0.108836
    56  H    0.102003
    57  H    0.107123
    58  H    0.099260
    59  H    0.097252
    60  H    0.085319
    61  H    0.087097
    62  H    0.110928
    63  H    0.105514
    64  H    0.096371
    65  H    0.081439
    66  H    0.086982
    67  H    0.115078
    68  H    0.096966
    69  H    0.125775
    70  H    0.127654
    71  H    0.091962
    72  H    0.115090
    73  H    0.072680
    74  H    0.082846
    75  H    0.135971
    76  H    0.092790
    77  H    0.122323
    78  H    0.107086
    79  H    0.134605
    80  H    0.111539
    81  H    0.076467
    82  H    0.088089
    83  H    0.072914
    84  H    0.064774
    85  H    0.069897
    86  H    0.056676
    87  H    0.131412
    88  H    0.113208
    89  H    0.102438
    90  H    0.118316
    91  H    0.127343
    92  H    0.101861
    93  H    0.073943
    94  H    0.054073
    95  H    0.086001
    96  H    0.049462
 Sum of Mulliken charges =  -0.00000

 Dipole moment (field-independent basis, Debye):
    X=              0.2055    Y=             -0.2676    Z=              0.4357  Tot=              0.5511
 Quadrupole moment (field-independent basis, Debye-Ang):
   XX=           -218.3102   YY=           -233.3711   ZZ=           -255.2094
   XY=             -6.6737   XZ=            -10.7156   YZ=             -1.9556

 Normal termination of Gaussian 16 at Sun Jul 28 17:15:03 2019.
