 Gaussian 16, Revision A.03,
 Gaussian 16:  ES64L-G16RevA.03 25-Dec-2016

 ---------------------------------
 # td=(NStates=1) B3LYP/6-31G(d,p)
 ---------------------------------

 --
 TD
 --
 Symbolic Z-matrix:
 Charge =  0 Multiplicity = 1

                         Standard orientation:
 ---------------------------------------------------------------------
 Center     Atomic      Atomic             Coordinates (Angstroms)
 Number     Number       Type             X           Y           Z
 ---------------------------------------------------------------------
      1          6           0      -12.100103   -0.545137   -0.683090
      2          6           0       12.039498   -0.150639    0.997539
      3          6           0      -13.417886    0.326963   -0.502763
      4          6           0       12.869126   -1.468837    1.387376
      5          6           0      -13.153201    1.760209   -0.443488
      6          6           0       13.401620   -2.208376    0.132519
      7          6           0      -11.007144   -0.052452    0.325819
      8          6           0       10.993132   -0.390720   -0.074443
      9          6           0      -12.233025    2.007576    0.781909
     10          6           0       12.084002   -2.542932   -0.753109
     11          6           0      -11.085353    1.140797    1.021983
     12          6           0       10.972985   -1.485989   -0.916255
     13          6           0      -11.667596   -0.414612   -2.185280
     14          6           0      -12.468863   -2.022354   -0.298785
     15          6           0       13.078657    1.059345    0.477010
     16          6           0       11.360104    0.283846    2.368175
     17          6           0       -9.802172   -0.940763    0.386281
     18          6           0        9.903125    0.662109   -0.228866
     19          6           0      -10.134391    1.467755    1.993143
     20          6           0       10.042185   -1.657416   -2.058757
     21          6           0       -8.508851   -0.542465    0.233439
     22          6           0        8.572604    0.468516   -0.172959
     23          6           0       -7.332189   -1.333963    0.244470
     24          6           0        7.456041    1.401491   -0.306092
     25          6           0       -7.584950   -2.812070    0.552424
     26          6           0        7.841607    2.782949   -0.544865
     27          6           0       -6.142717   -0.760702    0.247094
     28          6           0        6.215392    0.928641   -0.226664
     29          6           0       -4.876564   -1.439978    0.156668
     30          6           0        5.003280    1.744706   -0.430579
     31          6           0       -3.703081   -0.596911    0.228311
     32          6           0        3.764840    1.217914   -0.368481
     33          6           0       -2.336776   -1.186749    0.228348
     34          6           0        2.476133    1.853116   -0.458350
     35          6           0       -2.179978   -2.677938    0.451878
     36          6           0        2.501432    3.385684   -0.843762
     37          6           0       -1.241202   -0.403383    0.082841
     38          6           0        1.344584    1.144336   -0.375932
     39          6           0       -1.173189    1.002287   -0.078775
     40          6           0       -0.010025    1.701518   -0.352154
     41          1           0      -13.891298   -0.077787    0.356412
     42          1           0      -14.148155    0.045674   -1.394967
     43          1           0       12.057690   -2.157902    1.861001
     44          1           0       13.790072   -1.344300    2.226996
     45          1           0      -14.082783    2.311515   -0.237958
     46          1           0      -12.703318    2.352018   -1.192906
     47          1           0       13.827041   -3.087649    0.499209
     48          1           0       14.091445   -1.496979   -0.498493
     49          1           0      -12.687140    1.928544    1.784737
     50          1           0      -12.049242    3.254296    0.709585
     51          1           0       11.769330   -3.588103   -0.572620
     52          1           0       12.609349   -2.846179   -1.822935
     53          1           0      -11.294705    0.506860   -2.292216
     54          1           0      -12.557831   -0.659815   -2.748965
     55          1           0      -10.705021   -1.077539   -2.540057
     56          1           0      -12.985782   -2.042618    0.617530
     57          1           0      -11.485224   -2.802621   -0.332771
     58          1           0      -13.358214   -2.603716   -1.006169
     59          1           0       13.634408    0.709656   -0.369305
     60          1           0       13.759782    1.341662    1.401331
     61          1           0       12.496177    1.745914   -0.004638
     62          1           0       10.787792   -0.588145    2.866473
     63          1           0       10.739559    1.238782    2.278525
     64          1           0       12.183067    0.573149    2.943479
     65          1           0       -9.805739   -2.354096    0.363465
     66          1           0       10.235801    1.585006   -0.234794
     67          1           0       -9.495285    0.630918    2.403487
     68          1           0      -10.857147    1.913822    2.745743
     69          1           0       -9.320190    2.165719    1.651757
     70          1           0        9.463334   -0.752606   -2.310999
     71          1           0        9.535478   -2.591698   -2.008667
     72          1           0       10.686786   -2.149436   -2.927039
     73          1           0       -8.445925    0.487507    0.068418
     74          1           0        8.241834   -0.634774   -0.178393
     75          1           0       -8.207061   -3.010364    1.448574
     76          1           0       -6.560374   -3.322305    0.760059
     77          1           0       -8.166331   -3.408546   -0.394560
     78          1           0        8.475325    3.064501   -1.456843
     79          1           0        8.486337    3.057482    0.292581
     80          1           0        6.902381    3.325739   -0.666103
     81          1           0       -6.098993    0.271512    0.025491
     82          1           0        5.873404   -0.237485   -0.141907
     83          1           0       -4.788378   -2.484808    0.452825
     84          1           0        5.094570    2.698774   -0.637679
     85          1           0       -3.790430    0.535726   -0.157090
     86          1           0        3.504002    0.180460   -0.198528
     87          1           0       -2.393073   -3.065233    1.315793
     88          1           0       -0.981139   -2.779608    0.578547
     89          1           0       -2.326601   -3.458101   -0.289478
     90          1           0        2.938715    3.599179   -1.856475
     91          1           0        3.257149    3.892292   -0.035953
     92          1           0        1.398037    3.838614   -0.544658
     93          1           0       -0.276769   -1.131194    0.118319
     94          1           0        1.303863    0.098487   -0.135403
     95          1           0       -2.193459    1.455120   -0.088394
     96          1           0       -0.053677    2.712456   -0.456040
 ---------------------------------------------------------------------

 SCF Done:  E(RB3LYP) =  -1557.52740356     A.U. after   15 cycles

 Excitation energies and oscillator strengths:

 Excited State   1:      Singlet-A      2.3255 eV  533.15 nm  f=2.8495  <S**2>=0.000
     148 ->149         0.70476
 This state for optimization and/or second-order correction.
 Total Energy, E(TD-HF/TD-DFT) =  -1557.44194340
 Copying the excited state density for this state as the 1-particle RhoCI density.

 The electronic state is 1-A.
 Alpha  occ. eigenvalues --  -10.21322 -10.21075 -10.20957 -10.20575 -10.20474
 Alpha  occ. eigenvalues --  -10.20402 -10.20376 -10.20172 -10.20005 -10.19996
 Alpha  occ. eigenvalues --  -10.19893 -10.19878 -10.19826 -10.19713 -10.19592
 Alpha  occ. eigenvalues --  -10.19513 -10.19509 -10.19224 -10.19219 -10.19059
 Alpha  occ. eigenvalues --  -10.19004 -10.18953 -10.18826 -10.18820 -10.18809
 Alpha  occ. eigenvalues --  -10.18643 -10.18562 -10.18562 -10.18373 -10.18268
 Alpha  occ. eigenvalues --  -10.18179 -10.18160 -10.18113 -10.18036 -10.17995
 Alpha  occ. eigenvalues --  -10.17942 -10.17586 -10.17496 -10.17422 -10.16897
 Alpha  occ. eigenvalues --   -0.85371  -0.84184  -0.83612  -0.83203  -0.82578
 Alpha  occ. eigenvalues --   -0.81756  -0.79300  -0.78603  -0.77524  -0.76887
 Alpha  occ. eigenvalues --   -0.76317  -0.75316  -0.74347  -0.72259  -0.71528
 Alpha  occ. eigenvalues --   -0.70151  -0.68371  -0.67850  -0.67795  -0.67690
 Alpha  occ. eigenvalues --   -0.67520  -0.67333  -0.66838  -0.65705  -0.65137
 Alpha  occ. eigenvalues --   -0.63210  -0.61933  -0.60166  -0.59151  -0.57197
 Alpha  occ. eigenvalues --   -0.56386  -0.55211  -0.54869  -0.54493  -0.53426
 Alpha  occ. eigenvalues --   -0.52400  -0.52148  -0.50111  -0.49892  -0.48545
 Alpha  occ. eigenvalues --   -0.48174  -0.47174  -0.47090  -0.46500  -0.45944
 Alpha  occ. eigenvalues --   -0.45563  -0.45296  -0.44732  -0.44357  -0.43845
 Alpha  occ. eigenvalues --   -0.43324  -0.43051  -0.42615  -0.42520  -0.42303
 Alpha  occ. eigenvalues --   -0.42049  -0.41827  -0.41413  -0.41170  -0.40948
 Alpha  occ. eigenvalues --   -0.40747  -0.40203  -0.39711  -0.39332  -0.39090
 Alpha  occ. eigenvalues --   -0.38991  -0.38777  -0.38639  -0.38278  -0.37984
 Alpha  occ. eigenvalues --   -0.37863  -0.37697  -0.37070  -0.36851  -0.36659
 Alpha  occ. eigenvalues --   -0.36276  -0.35877  -0.35409  -0.35175  -0.34840
 Alpha  occ. eigenvalues --   -0.34756  -0.34226  -0.34101  -0.33982  -0.33690
 Alpha  occ. eigenvalues --   -0.33215  -0.33053  -0.32684  -0.32600  -0.32533
 Alpha  occ. eigenvalues --   -0.32113  -0.31592  -0.31467  -0.30951  -0.30785
 Alpha  occ. eigenvalues --   -0.30415  -0.29872  -0.29535  -0.29313  -0.28531
 Alpha  occ. eigenvalues --   -0.28044  -0.27824  -0.26532  -0.24084  -0.22366
 Alpha  occ. eigenvalues --   -0.21064  -0.19307  -0.17122
 Alpha virt. eigenvalues --   -0.08119  -0.05120  -0.01773   0.00227   0.02142
 Alpha virt. eigenvalues --    0.03799   0.04658   0.05048   0.06264   0.07166
 Alpha virt. eigenvalues --    0.07299   0.07406   0.08075   0.08369   0.08569

 Mulliken charges:
               1
     1  C   -0.002681
     2  C   -0.008861
     3  C   -0.171154
     4  C   -0.162024
     5  C   -0.177346
     6  C   -0.170503
     7  C    0.021805
     8  C    0.043663
     9  C   -0.238178
    10  C   -0.250176
    11  C    0.125958
    12  C    0.118554
    13  C   -0.277290
    14  C   -0.276068
    15  C   -0.315060
    16  C   -0.289790
    17  C   -0.114935
    18  C   -0.140964
    19  C   -0.362410
    20  C   -0.367622
    21  C   -0.084033
    22  C   -0.083563
    23  C    0.158512
    24  C    0.136717
    25  C   -0.375457
    26  C   -0.375736
    27  C   -0.114735
    28  C   -0.120781
    29  C   -0.098131
    30  C   -0.073893
    31  C   -0.122684
    32  C   -0.095420
    33  C    0.096450
    34  C    0.123098
    35  C   -0.381538
    36  C   -0.361984
    37  C   -0.090244
    38  C   -0.109410
    39  C   -0.097691
    40  C   -0.083473
    41  H    0.102706
    42  H    0.067324
    43  H    0.084000
    44  H    0.055015
    45  H    0.097045
    46  H    0.118750
    47  H    0.104186
    48  H    0.092986
    49  H    0.106645
    50  H    0.059700
    51  H    0.103927
    52  H    0.060798
    53  H    0.113131
    54  H    0.104644
    55  H    0.074420
    56  H    0.110638
    57  H    0.080809
    58  H    0.047269
    59  H    0.108314
    60  H    0.094541
    61  H    0.113217
    62  H    0.096829
    63  H    0.086795
    64  H    0.104972
    65  H    0.028120
    66  H    0.065826
    67  H    0.124847
    68  H    0.085336
    69  H    0.113503
    70  H    0.127647
    71  H    0.120870
    72  H    0.084023
    73  H    0.070479
    74  H    0.070590
    75  H    0.135952
    76  H    0.088016
    77  H    0.092792
    78  H    0.115637
    79  H    0.127360
    80  H    0.105362
    81  H    0.077709
    82  H    0.078108
    83  H    0.097325
    84  H    0.067813
    85  H    0.078162
    86  H    0.066417
    87  H    0.142656
    88  H    0.070703
    89  H    0.128089
    90  H    0.132410
    91  H    0.094499
    92  H    0.092991
    93  H    0.065854
    94  H    0.079358
    95  H    0.084691
    96  H    0.067270
 Sum of Mulliken charges =  -0.00000

 Dipole moment (field-independent basis, Debye):
    X=             -0.0372    Y=              0.7316    Z=             -0.0177  Tot=              0.7328
 Quadrupole moment (field-independent basis, Debye-Ang):
   XX=           -232.0914   YY=           -235.4552   ZZ=           -257.2130
   XY=             -8.9398   XZ=             -5.7362   YZ=             -4.0859

 Normal termination of Gaussian 16 at Mon Jul 29 06:01:18 2019.
