 Gaussian 16, Revision A.03,
 Gaussian 16:  ES64L-G16RevA.03 25-Dec-2016

 ---------------------------------
 # td=(NStates=1) B3LYP/6-31G(d,p)
 ---------------------------------

 --
 TD
 --
 Symbolic Z-matrix:
 Charge =  0 Multiplicity = 1

                         Standard orientation:
 ---------------------------------------------------------------------
 Center     Atomic      Atomic             Coordinates (Angstroms)
 Number     Number       Type             X           Y           Z
 ---------------------------------------------------------------------
      1          6           0       12.157034    0.528275   -0.636474
      2          6           0      -12.157507   -0.154827    0.869014
      3          6           0       13.474880   -0.211741   -0.425953
      4          6           0      -12.958217    1.030353    1.374997
      5          6           0       13.210237   -1.740740   -0.344310
      6          6           0      -13.301838    2.152127    0.355313
      7          6           0       11.073328   -0.058306    0.302323
      8          6           0      -11.002402    0.520614   -0.060735
      9          6           0       12.362303   -1.992564    0.881102
     10          6           0      -12.054858    2.761160   -0.186435
     11          6           0       11.173345   -1.213669    1.010472
     12          6           0      -10.934038    1.761132   -0.573114
     13          6           0       11.764186    0.389822   -2.032308
     14          6           0       12.455356    2.047940   -0.264348
     15          6           0      -12.972268   -1.080372   -0.052375
     16          6           0      -11.393989   -0.826840    2.106464
     17          6           0        9.892351    0.854877    0.412135
     18          6           0       -9.902837   -0.581062   -0.286394
     19          6           0       10.108869   -1.829361    1.876707
     20          6           0       -9.833942    2.221488   -1.478136
     21          6           0        8.575885    0.502830    0.303873
     22          6           0       -8.624930   -0.298479   -0.331837
     23          6           0        7.307749    1.359396    0.302978
     24          6           0       -7.553995   -1.313850   -0.419306
     25          6           0        7.412050    2.862663    0.407699
     26          6           0       -7.899964   -2.780474   -0.842889
     27          6           0        6.222247    0.781889    0.147887
     28          6           0       -6.204774   -0.942287   -0.224513
     29          6           0        4.905701    1.392682    0.214780
     30          6           0       -4.992410   -1.721767   -0.350531
     31          6           0        3.710974    0.614774    0.204013
     32          6           0       -3.767609   -1.165769   -0.281681
     33          6           0        2.350639    1.252611    0.147317
     34          6           0       -2.489890   -1.883966   -0.392837
     35          6           0        2.150258    2.798843    0.250767
     36          6           0       -2.664703   -3.348762   -0.823155
     37          6           0        1.214243    0.529621   -0.104729
     38          6           0       -1.433799   -1.148150   -0.220745
     39          6           0        1.027609   -0.899933   -0.325320
     40          6           0       -0.081560   -1.625735   -0.405900
     41          1           0       13.797577    0.103451    0.715639
     42          1           0       14.316764   -0.003624   -1.139420
     43          1           0      -12.537906    1.507707    2.101458
     44          1           0      -14.141474    0.600458    1.754400
     45          1           0       14.218961   -2.372892   -0.166306
     46          1           0       12.520277   -2.073501   -1.101542
     47          1           0      -14.089692    2.883536    0.803456
     48          1           0      -13.816029    1.673769   -0.331299
     49          1           0       12.886512   -1.960407    1.794328
     50          1           0       11.901113   -3.033133    0.649807
     51          1           0      -11.402009    3.357111    0.362252
     52          1           0      -12.341115    3.364799   -1.122431
     53          1           0       11.715641   -0.585085   -2.490941
     54          1           0       12.396534    0.947939   -2.734340
     55          1           0       10.778478    0.838062   -2.390907
     56          1           0       12.888165    1.693331    0.779277
     57          1           0       11.583205    2.736282   -0.208819
     58          1           0       13.185539    2.487311   -0.981630
     59          1           0      -13.360689   -0.451600   -0.887497
     60          1           0      -13.793917   -1.638304    0.584665
     61          1           0      -12.171491   -1.844298   -0.735639
     62          1           0      -10.732712   -0.145818    2.540421
     63          1           0      -10.997975   -1.818216    1.574622
     64          1           0      -12.274046   -0.883721    2.863253
     65          1           0       10.177696    1.906452    0.437246
     66          1           0      -10.340665   -1.543978   -0.229598
     67          1           0        9.308481   -1.047716    2.060470
     68          1           0       10.580411   -2.096970    2.965667
     69          1           0        9.555289   -2.684985    1.535359
     70          1           0       -9.260652    1.609461   -2.005012
     71          1           0       -9.133945    3.076979   -1.082965
     72          1           0      -10.197631    2.798590   -2.346137
     73          1           0        8.432979   -0.564149    0.025190
     74          1           0       -8.280081    0.705170   -0.286839
     75          1           0        7.904840    3.225581    1.290148
     76          1           0        6.557491    3.568532    0.453270
     77          1           0        7.924852    3.493207   -0.427837
     78          1           0       -8.822261   -2.791882   -1.528707
     79          1           0       -8.179265   -3.555650    0.163140
     80          1           0       -6.976887   -3.347344   -1.306439
     81          1           0        6.100178   -0.260964    0.025322
     82          1           0       -6.138350    0.124948    0.020615
     83          1           0        4.768011    2.466636    0.502891
     84          1           0       -5.134088   -2.811087   -0.403967
     85          1           0        3.846886   -0.471301    0.034176
     86          1           0       -3.847213   -0.120309   -0.163708
     87          1           0        2.465355    3.308281    1.288286
     88          1           0        1.100975    3.177783    0.239576
     89          1           0        2.779405    3.308832   -0.515452
     90          1           0       -3.523327   -3.477595   -1.646319
     91          1           0       -3.194951   -3.822998    0.145337
     92          1           0       -1.737008   -3.917237   -1.291355
     93          1           0        0.330083    1.104596    0.050873
     94          1           0       -1.610985    0.002836    0.128555
     95          1           0        2.001037   -1.334656   -0.472306
     96          1           0        0.071345   -2.678899   -0.515180
 ---------------------------------------------------------------------

 SCF Done:  E(RB3LYP) =  -1557.57287104     A.U. after   14 cycles

 Excitation energies and oscillator strengths:

 Excited State   1:      Singlet-A      2.5595 eV  484.42 nm  f=2.6307  <S**2>=0.000
     148 ->149         0.70497
 This state for optimization and/or second-order correction.
 Total Energy, E(TD-HF/TD-DFT) =  -1557.47881271
 Copying the excited state density for this state as the 1-particle RhoCI density.

 The electronic state is 1-A.
 Alpha  occ. eigenvalues --  -10.21638 -10.21195 -10.21027 -10.20634 -10.20568
 Alpha  occ. eigenvalues --  -10.20263 -10.20171 -10.20135 -10.19989 -10.19802
 Alpha  occ. eigenvalues --  -10.19698 -10.19640 -10.19332 -10.19273 -10.19189
 Alpha  occ. eigenvalues --  -10.19174 -10.18814 -10.18731 -10.18697 -10.18686
 Alpha  occ. eigenvalues --  -10.18678 -10.18666 -10.18656 -10.18613 -10.18506
 Alpha  occ. eigenvalues --  -10.18453 -10.18432 -10.18431 -10.18318 -10.18272
 Alpha  occ. eigenvalues --  -10.18153 -10.18093 -10.18061 -10.17804 -10.17658
 Alpha  occ. eigenvalues --  -10.17652 -10.17551 -10.17272 -10.17208 -10.16691
 Alpha  occ. eigenvalues --   -0.85941  -0.84394  -0.83756  -0.83573  -0.81482
 Alpha  occ. eigenvalues --   -0.80659  -0.79681  -0.78472  -0.78192  -0.77394
 Alpha  occ. eigenvalues --   -0.76520  -0.74836  -0.73720  -0.71899  -0.71376
 Alpha  occ. eigenvalues --   -0.69189  -0.68878  -0.68400  -0.68373  -0.67536
 Alpha  occ. eigenvalues --   -0.67299  -0.67007  -0.66455  -0.66235  -0.65820
 Alpha  occ. eigenvalues --   -0.62406  -0.61775  -0.60047  -0.59102  -0.57490
 Alpha  occ. eigenvalues --   -0.56469  -0.55485  -0.54919  -0.53925  -0.53818
 Alpha  occ. eigenvalues --   -0.52722  -0.51882  -0.50066  -0.49801  -0.49377
 Alpha  occ. eigenvalues --   -0.48640  -0.47587  -0.46911  -0.46625  -0.46141
 Alpha  occ. eigenvalues --   -0.45713  -0.45110  -0.44709  -0.44433  -0.43991
 Alpha  occ. eigenvalues --   -0.43417  -0.43292  -0.42919  -0.42319  -0.41892
 Alpha  occ. eigenvalues --   -0.41730  -0.41035  -0.40716  -0.40541  -0.40311
 Alpha  occ. eigenvalues --   -0.40044  -0.39737  -0.39531  -0.39252  -0.39087
 Alpha  occ. eigenvalues --   -0.38746  -0.38485  -0.38349  -0.38138  -0.37847
 Alpha  occ. eigenvalues --   -0.37726  -0.37493  -0.37147  -0.36928  -0.36636
 Alpha  occ. eigenvalues --   -0.36273  -0.36032  -0.35615  -0.35475  -0.35217
 Alpha  occ. eigenvalues --   -0.35000  -0.34869  -0.34625  -0.34091  -0.33627
 Alpha  occ. eigenvalues --   -0.33350  -0.33313  -0.33124  -0.32951  -0.32320
 Alpha  occ. eigenvalues --   -0.32217  -0.31804  -0.31773  -0.31189  -0.31106
 Alpha  occ. eigenvalues --   -0.30857  -0.30131  -0.29341  -0.28731  -0.28588
 Alpha  occ. eigenvalues --   -0.28118  -0.26792  -0.26508  -0.24580  -0.22955
 Alpha  occ. eigenvalues --   -0.21422  -0.19198  -0.17229
 Alpha virt. eigenvalues --   -0.07073  -0.04453  -0.01174   0.01002   0.02967
 Alpha virt. eigenvalues --    0.04651   0.05592   0.06024   0.06981   0.07406
 Alpha virt. eigenvalues --    0.07788   0.07926   0.08315   0.08442   0.08798

 Mulliken charges:
               1
     1  C   -0.013701
     2  C    0.003895
     3  C   -0.156022
     4  C   -0.155808
     5  C   -0.181291
     6  C   -0.182422
     7  C    0.046270
     8  C    0.037605
     9  C   -0.219800
    10  C   -0.208892
    11  C    0.093720
    12  C    0.042200
    13  C   -0.298155
    14  C   -0.289903
    15  C   -0.281738
    16  C   -0.287363
    17  C   -0.116201
    18  C   -0.118059
    19  C   -0.366041
    20  C   -0.374886
    21  C   -0.128328
    22  C   -0.089321
    23  C    0.161028
    24  C    0.109036
    25  C   -0.398876
    26  C   -0.351414
    27  C   -0.108739
    28  C   -0.143459
    29  C   -0.087074
    30  C   -0.071927
    31  C   -0.131827
    32  C   -0.107708
    33  C    0.104861
    34  C    0.168602
    35  C   -0.371260
    36  C   -0.369573
    37  C   -0.116053
    38  C   -0.129944
    39  C   -0.074838
    40  C   -0.099203
    41  H    0.060005
    42  H    0.089461
    43  H    0.105815
    44  H    0.019911
    45  H    0.075403
    46  H    0.107766
    47  H    0.080548
    48  H    0.116917
    49  H    0.111019
    50  H    0.082979
    51  H    0.120690
    52  H    0.083963
    53  H    0.102423
    54  H    0.092522
    55  H    0.093552
    56  H    0.091789
    57  H    0.103567
    58  H    0.099586
    59  H    0.119101
    60  H    0.098116
    61  H    0.063023
    62  H    0.126718
    63  H    0.096696
    64  H    0.089297
    65  H    0.079055
    66  H    0.077877
    67  H    0.116041
    68  H    0.079674
    69  H    0.123149
    70  H    0.138891
    71  H    0.089664
    72  H    0.098041
    73  H    0.083865
    74  H    0.090331
    75  H    0.123169
    76  H    0.112155
    77  H    0.103846
    78  H    0.111280
    79  H    0.071105
    80  H    0.103713
    81  H    0.075669
    82  H    0.066205
    83  H    0.086952
    84  H    0.072993
    85  H    0.086168
    86  H    0.076198
    87  H    0.091896
    88  H    0.113300
    89  H    0.123569
    90  H    0.113809
    91  H    0.117092
    92  H    0.105954
    93  H    0.067315
    94  H    0.079650
    95  H    0.069409
    96  H    0.083713
 Sum of Mulliken charges =  -0.00000

 Dipole moment (field-independent basis, Debye):
    X=              0.4990    Y=              0.7021    Z=             -0.5890  Tot=              1.0435
 Quadrupole moment (field-independent basis, Debye-Ang):
   XX=           -231.3736   YY=           -234.5854   ZZ=           -255.9063
   XY=             -5.7104   XZ=             -0.9961   YZ=              2.3098

 Normal termination of Gaussian 16 at Tue Jul 30 17:10:00 2019.
