 Gaussian 16, Revision A.03,
 Gaussian 16:  ES64L-G16RevA.03 25-Dec-2016

 ---------------------------------
 # td=(NStates=1) B3LYP/6-31G(d,p)
 ---------------------------------

 --
 TD
 --
 Symbolic Z-matrix:
 Charge =  0 Multiplicity = 1

                         Standard orientation:
 ---------------------------------------------------------------------
 Center     Atomic      Atomic             Coordinates (Angstroms)
 Number     Number       Type             X           Y           Z
 ---------------------------------------------------------------------
      1          6           0       12.091049    0.532116   -0.675495
      2          6           0      -12.114035   -0.044374    0.844787
      3          6           0       13.381027   -0.333240   -0.507558
      4          6           0      -13.011422    1.111117    1.323824
      5          6           0       13.050654   -1.803157   -0.512725
      6          6           0      -13.382417    2.058567    0.178484
      7          6           0       11.036011   -0.013113    0.201110
      8          6           0      -11.029850    0.406443   -0.073978
      9          6           0       12.241785   -2.179729    0.788487
     10          6           0      -12.029194    2.673309   -0.462919
     11          6           0       11.149344   -1.197178    0.990151
     12          6           0      -10.963754    1.599611   -0.775638
     13          6           0       11.494267    0.262076   -2.276296
     14          6           0       12.400159    1.921334   -0.503075
     15          6           0      -12.952776   -1.219789    0.172441
     16          6           0      -11.466926   -0.616596    2.171004
     17          6           0        9.912418    0.880507    0.225190
     18          6           0       -9.899769   -0.554374   -0.250153
     19          6           0        9.998707   -1.813738    1.886067
     20          6           0      -10.071940    2.007303   -1.915561
     21          6           0        8.535507    0.493609    0.183902
     22          6           0       -8.565383   -0.358390   -0.292238
     23          6           0        7.464052    1.437874    0.401565
     24          6           0       -7.487177   -1.331988   -0.315149
     25          6           0        7.692971    2.937869    0.870471
     26          6           0       -7.891059   -2.780822   -0.530171
     27          6           0        6.201137    0.960140    0.284800
     28          6           0       -6.141813   -0.856722   -0.326097
     29          6           0        4.844825    1.543414    0.449183
     30          6           0       -4.947170   -1.619751   -0.390183
     31          6           0        3.752989    0.807024    0.218654
     32          6           0       -3.785904   -1.024562   -0.429863
     33          6           0        2.407099    1.271893    0.342573
     34          6           0       -2.501544   -1.810822   -0.490789
     35          6           0        2.238303    2.803801    0.566589
     36          6           0       -2.664046   -3.372366   -0.560141
     37          6           0        1.303754    0.471230    0.160754
     38          6           0       -1.312130   -1.094152   -0.328257
     39          6           0        1.136253   -0.807916   -0.193348
     40          6           0        0.067605   -1.592724   -0.438348
     41          1           0       13.961380    0.064834    0.333660
     42          1           0       14.203745   -0.206890   -1.244539
     43          1           0      -12.309677    1.413184    1.959207
     44          1           0      -13.997340    0.838266    1.977014
     45          1           0       13.950211   -2.467348   -0.786134
     46          1           0       12.418835   -2.046125   -1.305129
     47          1           0      -14.244135    2.777640    0.459432
     48          1           0      -14.030291    1.600865   -0.557167
     49          1           0       12.909726   -2.280814    1.710039
     50          1           0       11.944951   -3.192401    0.745774
     51          1           0      -11.556232    3.502124    0.044038
     52          1           0      -12.139828    3.176736   -1.601582
     53          1           0       11.604402   -0.810865   -2.514021
     54          1           0       12.092158    0.995121   -2.903262
     55          1           0       10.625798    0.861624   -2.290892
     56          1           0       12.833070    2.285477    0.724839
     57          1           0       11.542112    2.629231   -0.754272
     58          1           0       13.291117    2.115457   -1.056761
     59          1           0      -13.436830   -0.655463   -0.606175
     60          1           0      -13.853041   -1.618163    0.927514
     61          1           0      -12.203144   -1.951538   -0.444294
     62          1           0      -10.670727   -0.020997    2.497935
     63          1           0      -11.190598   -1.566047    1.845324
     64          1           0      -12.269495   -0.829028    3.019967
     65          1           0       10.333359    1.939973    0.471077
     66          1           0      -10.142156   -1.693174   -0.340427
     67          1           0        9.215318   -0.949171    2.229777
     68          1           0       10.536974   -2.542431    2.732212
     69          1           0        9.479143   -2.575520    1.197268
     70          1           0       -9.431629    1.096047   -2.254636
     71          1           0       -9.186068    2.830525   -1.879731
     72          1           0      -10.692882    2.431876   -2.796776
     73          1           0        8.255236   -0.542647    0.059627
     74          1           0       -8.155012    0.612167   -0.241335
     75          1           0        8.217731    3.159556    1.872337
     76          1           0        6.801516    3.347483    1.265949
     77          1           0        7.997988    3.633380    0.004959
     78          1           0       -8.887245   -2.835753   -1.123384
     79          1           0       -8.392521   -3.192045    0.594930
     80          1           0       -7.005530   -3.425827   -0.794546
     81          1           0        6.167940   -0.124721    0.116218
     82          1           0       -6.027138    0.221021   -0.430325
     83          1           0        4.888880    2.576421    0.722662
     84          1           0       -4.859865   -2.709784   -0.566446
     85          1           0        3.587173   -0.325787   -0.063838
     86          1           0       -3.699706    0.041521   -0.156654
     87          1           0        2.739547    3.090817    1.740460
     88          1           0        1.161731    3.205927    0.525225
     89          1           0        2.901066    3.317162   -0.157776
     90          1           0       -3.182205   -3.665993   -1.494202
     91          1           0       -2.918845   -3.664364    0.421639
     92          1           0       -1.554433   -3.655331   -0.715943
     93          1           0        0.237069    1.133020    0.052896
     94          1           0       -1.398988    0.092305   -0.321531
     95          1           0        2.116287   -1.366779   -0.261139
     96          1           0        0.331465   -2.597148   -0.661389
 ---------------------------------------------------------------------

 SCF Done:  E(RB3LYP) =  -1557.53162226     A.U. after   15 cycles

 Excitation energies and oscillator strengths:

 Excited State   1:      Singlet-A      2.1984 eV  563.97 nm  f=2.9819  <S**2>=0.000
     148 ->149         0.70583
 This state for optimization and/or second-order correction.
 Total Energy, E(TD-HF/TD-DFT) =  -1557.45083140
 Copying the excited state density for this state as the 1-particle RhoCI density.

 The electronic state is 1-A.
 Alpha  occ. eigenvalues --  -10.21059 -10.21050 -10.20880 -10.20841 -10.20539
 Alpha  occ. eigenvalues --  -10.20473 -10.20415 -10.20400 -10.20221 -10.20145
 Alpha  occ. eigenvalues --  -10.20085 -10.19988 -10.19898 -10.19792 -10.19777
 Alpha  occ. eigenvalues --  -10.19726 -10.19664 -10.19631 -10.19608 -10.19524
 Alpha  occ. eigenvalues --  -10.19520 -10.19473 -10.19464 -10.19418 -10.19389
 Alpha  occ. eigenvalues --  -10.19283 -10.19273 -10.19219 -10.18713 -10.18685
 Alpha  occ. eigenvalues --  -10.18547 -10.18364 -10.18316 -10.18136 -10.18094
 Alpha  occ. eigenvalues --  -10.18087 -10.17893 -10.17796 -10.17420 -10.16597
 Alpha  occ. eigenvalues --   -0.85039  -0.84858  -0.83944  -0.83079  -0.81792
 Alpha  occ. eigenvalues --   -0.80856  -0.79459  -0.78185  -0.77818  -0.76890
 Alpha  occ. eigenvalues --   -0.76173  -0.74962  -0.73791  -0.71319  -0.71035
 Alpha  occ. eigenvalues --   -0.69851  -0.68529  -0.67787  -0.67715  -0.67445
 Alpha  occ. eigenvalues --   -0.66896  -0.66733  -0.66257  -0.66074  -0.65984
 Alpha  occ. eigenvalues --   -0.62769  -0.61931  -0.60216  -0.59391  -0.57317
 Alpha  occ. eigenvalues --   -0.56514  -0.55840  -0.55450  -0.54186  -0.53146
 Alpha  occ. eigenvalues --   -0.52643  -0.51472  -0.49707  -0.49547  -0.48434
 Alpha  occ. eigenvalues --   -0.47733  -0.46789  -0.46594  -0.46397  -0.45674
 Alpha  occ. eigenvalues --   -0.45072  -0.44916  -0.44724  -0.44287  -0.43971
 Alpha  occ. eigenvalues --   -0.43477  -0.43259  -0.42384  -0.42210  -0.42086
 Alpha  occ. eigenvalues --   -0.41508  -0.41419  -0.41121  -0.40953  -0.40432
 Alpha  occ. eigenvalues --   -0.40183  -0.40019  -0.39882  -0.39174  -0.39061
 Alpha  occ. eigenvalues --   -0.38720  -0.37963  -0.37886  -0.37785  -0.37533
 Alpha  occ. eigenvalues --   -0.37230  -0.37179  -0.36900  -0.36702  -0.36467
 Alpha  occ. eigenvalues --   -0.36192  -0.35843  -0.35713  -0.35533  -0.35195
 Alpha  occ. eigenvalues --   -0.34705  -0.34628  -0.34580  -0.34119  -0.34023
 Alpha  occ. eigenvalues --   -0.33936  -0.33847  -0.33339  -0.32933  -0.32903
 Alpha  occ. eigenvalues --   -0.32624  -0.32184  -0.31737  -0.30985  -0.30433
 Alpha  occ. eigenvalues --   -0.30193  -0.29594  -0.29287  -0.28747  -0.28366
 Alpha  occ. eigenvalues --   -0.27661  -0.27562  -0.26404  -0.23694  -0.22633
 Alpha  occ. eigenvalues --   -0.20854  -0.18823  -0.16807
 Alpha virt. eigenvalues --   -0.08355  -0.05317  -0.02544   0.00202   0.01845
 Alpha virt. eigenvalues --    0.03519   0.05623   0.05830   0.06105   0.06805
 Alpha virt. eigenvalues --    0.07012   0.07579   0.07925   0.08080   0.08692

 Mulliken charges:
               1
     1  C    0.006727
     2  C   -0.028208
     3  C   -0.173080
     4  C   -0.151122
     5  C   -0.205861
     6  C   -0.192080
     7  C    0.094370
     8  C    0.077798
     9  C   -0.220396
    10  C   -0.217422
    11  C    0.073502
    12  C    0.083670
    13  C   -0.315168
    14  C   -0.303337
    15  C   -0.294343
    16  C   -0.300192
    17  C   -0.153886
    18  C   -0.146713
    19  C   -0.350000
    20  C   -0.365615
    21  C   -0.132626
    22  C   -0.077758
    23  C    0.131941
    24  C    0.134563
    25  C   -0.375499
    26  C   -0.365655
    27  C   -0.130656
    28  C   -0.153363
    29  C   -0.099511
    30  C   -0.057777
    31  C   -0.072487
    32  C   -0.088633
    33  C    0.113329
    34  C    0.067674
    35  C   -0.346898
    36  C   -0.381212
    37  C   -0.109153
    38  C   -0.125139
    39  C   -0.076588
    40  C   -0.086629
    41  H    0.093008
    42  H    0.077923
    43  H    0.114851
    44  H    0.065545
    45  H    0.072376
    46  H    0.108556
    47  H    0.074276
    48  H    0.108770
    49  H    0.092370
    50  H    0.104149
    51  H    0.121790
    52  H    0.052571
    53  H    0.117137
    54  H    0.086649
    55  H    0.122501
    56  H    0.043535
    57  H    0.101627
    58  H    0.115525
    59  H    0.113596
    60  H    0.085242
    61  H    0.086474
    62  H    0.114514
    63  H    0.111119
    64  H    0.077678
    65  H    0.106342
    66  H    0.056778
    67  H    0.111102
    68  H    0.081958
    69  H    0.112594
    70  H    0.112488
    71  H    0.095590
    72  H    0.106682
    73  H    0.096377
    74  H    0.073078
    75  H    0.110545
    76  H    0.112972
    77  H    0.113549
    78  H    0.124299
    79  H    0.075910
    80  H    0.113272
    81  H    0.068374
    82  H    0.084321
    83  H    0.092934
    84  H    0.081557
    85  H    0.075738
    86  H    0.076319
    87  H    0.071873
    88  H    0.104745
    89  H    0.125540
    90  H    0.134871
    91  H    0.151514
    92  H    0.101854
    93  H    0.044906
    94  H    0.081211
    95  H    0.066111
    96  H    0.086250
 Sum of Mulliken charges =  -0.00000

 Dipole moment (field-independent basis, Debye):
    X=              0.6063    Y=             -0.1945    Z=             -0.6272  Tot=              0.8937
 Quadrupole moment (field-independent basis, Debye-Ang):
   XX=           -239.2010   YY=           -235.4845   ZZ=           -257.3605
   XY=             -1.5985   XZ=             -2.8918   YZ=              2.1151

 Normal termination of Gaussian 16 at Wed Jul 31 11:20:21 2019.
