 Gaussian 16, Revision A.03,
 Gaussian 16:  ES64L-G16RevA.03 25-Dec-2016

 ---------------------------------
 # td=(NStates=1) B3LYP/6-31G(d,p)
 ---------------------------------

 --
 TD
 --
 Symbolic Z-matrix:
 Charge =  0 Multiplicity = 1

                         Standard orientation:
 ---------------------------------------------------------------------
 Center     Atomic      Atomic             Coordinates (Angstroms)
 Number     Number       Type             X           Y           Z
 ---------------------------------------------------------------------
      1          6           0      -12.135751   -0.608050   -0.767794
      2          6           0       12.122049    0.083893    0.881330
      3          6           0      -13.371931    0.233542   -0.787706
      4          6           0       12.870090   -1.217965    1.175132
      5          6           0      -13.117122    1.762106   -0.726498
      6          6           0       13.304887   -2.022814   -0.042729
      7          6           0      -11.023661   -0.001338    0.236235
      8          6           0       10.955299   -0.464876   -0.079297
      9          6           0      -12.288797    2.145464    0.610414
     10          6           0       12.096730   -2.716901   -0.691565
     11          6           0      -11.123908    1.195586    0.827644
     12          6           0       10.993373   -1.584562   -0.797468
     13          6           0      -11.499162   -0.641169   -2.103257
     14          6           0      -12.484455   -2.009719   -0.290358
     15          6           0       12.869816    1.193173    0.334986
     16          6           0       11.395079    0.587568    2.231540
     17          6           0       -9.806884   -0.915954    0.444922
     18          6           0        9.867558    0.532231   -0.223808
     19          6           0      -10.077958    1.720045    1.845610
     20          6           0        9.979166   -1.894320   -1.989812
     21          6           0       -8.542915   -0.526240    0.266436
     22          6           0        8.519479    0.246528   -0.193559
     23          6           0       -7.399125   -1.252520    0.580969
     24          6           0        7.550457    1.173805   -0.248959
     25          6           0       -7.516973   -2.783580    0.879666
     26          6           0        7.951710    2.693643   -0.424309
     27          6           0       -6.124802   -0.693089    0.379203
     28          6           0        6.217877    0.728356   -0.210205
     29          6           0       -4.916433   -1.401166    0.516412
     30          6           0        5.041460    1.612141   -0.478723
     31          6           0       -3.780041   -0.711499    0.262419
     32          6           0        3.804688    1.149090   -0.222001
     33          6           0       -2.405673   -1.269232    0.353750
     34          6           0        2.516878    1.865855   -0.414269
     35          6           0       -2.105855   -2.794409    0.560869
     36          6           0        2.562814    3.367689   -0.851308
     37          6           0       -1.291175   -0.414019    0.213154
     38          6           0        1.317999    1.194452   -0.292042
     39          6           0       -1.226585    1.013066   -0.104434
     40          6           0       -0.101969    1.658923   -0.289614
     41          1           0      -13.953112   -0.011536    0.033166
     42          1           0      -14.062557   -0.237362   -1.601499
     43          1           0       12.223876   -1.986388    1.895296
     44          1           0       13.681784   -0.972191    1.726172
     45          1           0      -14.121863    2.211186   -0.985224
     46          1           0      -12.334419    1.902176   -1.603600
     47          1           0       13.911727   -2.811239    0.270435
     48          1           0       13.914108   -1.415280   -0.873373
     49          1           0      -12.840354    2.287927    1.479082
     50          1           0      -11.621473    3.251898    0.604667
     51          1           0       11.786174   -3.819887   -0.374089
     52          1           0       12.324799   -3.031868   -1.769391
     53          1           0      -11.288546    0.425156   -2.271168
     54          1           0      -12.017565   -1.248879   -3.111599
     55          1           0      -10.411082   -0.991190   -1.997591
     56          1           0      -12.912996   -1.953036    0.718826
     57          1           0      -11.593747   -2.681925   -0.350162
     58          1           0      -13.200080   -2.355966   -0.895614
     59          1           0       13.566017    0.780111   -0.312661
     60          1           0       13.716404    1.645166    0.959407
     61          1           0       12.346588    2.000091    0.027109
     62          1           0       10.669984   -0.235244    2.687560
     63          1           0       10.948020    1.582527    2.037301
     64          1           0       11.993993    0.621605    3.049950
     65          1           0       -9.891921   -1.940459    0.729483
     66          1           0       10.024354    1.525753   -0.408080
     67          1           0       -9.227791    1.203519    2.210959
     68          1           0      -10.584286    2.280171    2.580976
     69          1           0       -9.737906    2.529130    1.444732
     70          1           0        9.516240   -0.984778   -2.143876
     71          1           0        9.377052   -2.795600   -1.679786
     72          1           0       10.755137   -2.253025   -2.845472
     73          1           0       -8.551017    0.621632   -0.145684
     74          1           0        8.080140   -0.706442    0.164660
     75          1           0       -8.243305   -2.898234    1.654781
     76          1           0       -6.695739   -3.261634    1.174320
     77          1           0       -7.920042   -3.319668   -0.012509
     78          1           0        8.752644    2.924779   -1.222384
     79          1           0        8.481084    3.128370    0.471737
     80          1           0        7.074905    3.335865   -0.676679
     81          1           0       -6.051829    0.459761    0.066976
     82          1           0        5.907934   -0.166149   -0.071465
     83          1           0       -5.000531   -2.623689    0.398053
     84          1           0        5.333265    2.740999   -0.991253
     85          1           0       -3.930568    0.366837    0.115837
     86          1           0        3.677492    0.203290    0.339751
     87          1           0       -2.971855   -3.259281    1.211747
     88          1           0       -1.041870   -2.923778    0.670268
     89          1           0       -2.382903   -3.158692   -0.439136
     90          1           0        2.815574    3.355167   -2.080599
     91          1           0        3.510157    3.883807   -0.531945
     92          1           0        1.700379    3.845317   -0.811447
     93          1           0       -0.350309   -1.008361    0.088812
     94          1           0        1.464206    0.137777   -0.415218
     95          1           0       -2.109862    1.689363    0.038699
     96          1           0       -0.081898    2.710015   -0.455107
 ---------------------------------------------------------------------

 SCF Done:  E(RB3LYP) =  -1557.52577335     A.U. after   15 cycles

 Excitation energies and oscillator strengths:

 Excited State   1:      Singlet-A      2.3197 eV  534.47 nm  f=2.7934  <S**2>=0.000
     148 ->149         0.70901
 This state for optimization and/or second-order correction.
 Total Energy, E(TD-HF/TD-DFT) =  -1557.44052420
 Copying the excited state density for this state as the 1-particle RhoCI density.

 The electronic state is 1-A.
 Alpha  occ. eigenvalues --  -10.20905 -10.20812 -10.20778 -10.20688 -10.20410
 Alpha  occ. eigenvalues --  -10.20070 -10.19939 -10.19928 -10.19884 -10.19770
 Alpha  occ. eigenvalues --  -10.19631 -10.19606 -10.19591 -10.19572 -10.19264
 Alpha  occ. eigenvalues --  -10.19256 -10.19184 -10.19149 -10.19092 -10.19088
 Alpha  occ. eigenvalues --  -10.18944 -10.18623 -10.18500 -10.18485 -10.18454
 Alpha  occ. eigenvalues --  -10.18422 -10.18384 -10.18347 -10.18141 -10.18020
 Alpha  occ. eigenvalues --  -10.17983 -10.17905 -10.17899 -10.17686 -10.17506
 Alpha  occ. eigenvalues --  -10.17332 -10.17070 -10.16397 -10.15806 -10.15725
 Alpha  occ. eigenvalues --   -0.84691  -0.84681  -0.83058  -0.82925  -0.81886
 Alpha  occ. eigenvalues --   -0.80782  -0.79270  -0.78807  -0.77981  -0.77043
 Alpha  occ. eigenvalues --   -0.76207  -0.74852  -0.74289  -0.72375  -0.71082
 Alpha  occ. eigenvalues --   -0.69465  -0.69040  -0.68977  -0.68560  -0.68261
 Alpha  occ. eigenvalues --   -0.68143  -0.67359  -0.66746  -0.66394  -0.66047
 Alpha  occ. eigenvalues --   -0.62750  -0.61972  -0.59514  -0.58767  -0.57629
 Alpha  occ. eigenvalues --   -0.55949  -0.55520  -0.54328  -0.53381  -0.52777
 Alpha  occ. eigenvalues --   -0.51910  -0.51456  -0.50663  -0.50085  -0.49060
 Alpha  occ. eigenvalues --   -0.47909  -0.47673  -0.46640  -0.46159  -0.45850
 Alpha  occ. eigenvalues --   -0.45616  -0.45193  -0.44995  -0.44663  -0.44048
 Alpha  occ. eigenvalues --   -0.42931  -0.42596  -0.42522  -0.42008  -0.41946
 Alpha  occ. eigenvalues --   -0.41547  -0.41393  -0.41289  -0.41155  -0.40412
 Alpha  occ. eigenvalues --   -0.40343  -0.40005  -0.39898  -0.39648  -0.39498
 Alpha  occ. eigenvalues --   -0.39210  -0.39062  -0.38761  -0.38358  -0.38168
 Alpha  occ. eigenvalues --   -0.37945  -0.37805  -0.37689  -0.37487  -0.37204
 Alpha  occ. eigenvalues --   -0.36235  -0.36112  -0.35869  -0.35548  -0.35172
 Alpha  occ. eigenvalues --   -0.34789  -0.34493  -0.34422  -0.34172  -0.33949
 Alpha  occ. eigenvalues --   -0.33505  -0.32956  -0.32847  -0.32620  -0.32455
 Alpha  occ. eigenvalues --   -0.32251  -0.31871  -0.31714  -0.31538  -0.30865
 Alpha  occ. eigenvalues --   -0.30716  -0.29806  -0.29166  -0.28965  -0.28670
 Alpha  occ. eigenvalues --   -0.28171  -0.26795  -0.25521  -0.24152  -0.23209
 Alpha  occ. eigenvalues --   -0.21366  -0.18534  -0.16676
 Alpha virt. eigenvalues --   -0.07593  -0.05367  -0.01593   0.01287   0.03289
 Alpha virt. eigenvalues --    0.03946   0.05196   0.06001   0.06501   0.06856
 Alpha virt. eigenvalues --    0.07409   0.07869   0.08470   0.08633   0.09018

 Mulliken charges:
               1
     1  C    0.004872
     2  C    0.016623
     3  C   -0.167664
     4  C   -0.172911
     5  C   -0.200316
     6  C   -0.179699
     7  C    0.028071
     8  C    0.091197
     9  C   -0.210489
    10  C   -0.214779
    11  C    0.060689
    12  C    0.031622
    13  C   -0.272847
    14  C   -0.294559
    15  C   -0.301340
    16  C   -0.298522
    17  C   -0.143235
    18  C   -0.166966
    19  C   -0.360153
    20  C   -0.330021
    21  C   -0.068969
    22  C   -0.077313
    23  C    0.077275
    24  C    0.141528
    25  C   -0.372352
    26  C   -0.383839
    27  C   -0.114128
    28  C   -0.117356
    29  C   -0.070970
    30  C   -0.069193
    31  C   -0.104018
    32  C   -0.130601
    33  C    0.081086
    34  C    0.108415
    35  C   -0.369315
    36  C   -0.348606
    37  C   -0.133722
    38  C   -0.132431
    39  C   -0.075224
    40  C   -0.082702
    41  H    0.097709
    42  H    0.075884
    43  H    0.072921
    44  H    0.088344
    45  H    0.097349
    46  H    0.095824
    47  H    0.096594
    48  H    0.085452
    49  H    0.127263
    50  H    0.054193
    51  H    0.090139
    52  H    0.085061
    53  H    0.095224
    54  H    0.061127
    55  H    0.097445
    56  H    0.095778
    57  H    0.092750
    58  H    0.103071
    59  H    0.109860
    60  H    0.085798
    61  H    0.116278
    62  H    0.079232
    63  H    0.092615
    64  H    0.106677
    65  H    0.080052
    66  H    0.076436
    67  H    0.129993
    68  H    0.099192
    69  H    0.125988
    70  H    0.127334
    71  H    0.110230
    72  H    0.081278
    73  H    0.067591
    74  H    0.078815
    75  H    0.121257
    76  H    0.114558
    77  H    0.119805
    78  H    0.110346
    79  H    0.123214
    80  H    0.101326
    81  H    0.072003
    82  H    0.069204
    83  H    0.080301
    84  H    0.067110
    85  H    0.086297
    86  H    0.089798
    87  H    0.112034
    88  H    0.122557
    89  H    0.131518
    90  H    0.084650
    91  H    0.112449
    92  H    0.122289
    93  H    0.070371
    94  H    0.074703
    95  H    0.087170
    96  H    0.070408
 Sum of Mulliken charges =  -0.00000

 Dipole moment (field-independent basis, Debye):
    X=              0.9562    Y=             -0.0157    Z=              0.2285  Tot=              0.9832
 Quadrupole moment (field-independent basis, Debye-Ang):
   XX=           -210.1592   YY=           -232.4119   ZZ=           -258.1227
   XY=              1.6287   XZ=             -4.3103   YZ=             -1.2470

 Normal termination of Gaussian 16 at Tue Jul 23 16:09:32 2019.
