 Gaussian 16, Revision A.03,
 Gaussian 16:  ES64L-G16RevA.03 25-Dec-2016

 ---------------------------------
 # td=(NStates=1) B3LYP/6-31G(d,p)
 ---------------------------------

 --
 TD
 --
 Symbolic Z-matrix:
 Charge =  0 Multiplicity = 1

                         Standard orientation:
 ---------------------------------------------------------------------
 Center     Atomic      Atomic             Coordinates (Angstroms)
 Number     Number       Type             X           Y           Z
 ---------------------------------------------------------------------
      1          6           0      -12.182172   -0.559568   -0.648137
      2          6           0       12.106947    0.033916    1.011755
      3          6           0      -13.543401    0.249502   -0.493241
      4          6           0       12.980018   -1.216017    1.392697
      5          6           0      -13.364378    1.764312   -0.514374
      6          6           0       13.440732   -2.015024    0.276059
      7          6           0      -11.125170    0.052069    0.346792
      8          6           0       10.968062   -0.465912    0.013034
      9          6           0      -12.490880    2.150053    0.662411
     10          6           0       12.272533   -2.514922   -0.499931
     11          6           0      -11.223927    1.219359    0.927500
     12          6           0       11.105512   -1.642867   -0.760867
     13          6           0      -11.716820   -0.483793   -2.063687
     14          6           0      -12.545317   -2.060823   -0.290442
     15          6           0       12.961030    1.053762    0.388162
     16          6           0       11.416906    0.690969    2.234499
     17          6           0       -9.967864   -0.717256    0.411391
     18          6           0        9.989518    0.532720   -0.238276
     19          6           0      -10.291978    1.766621    2.024060
     20          6           0       10.110138   -2.057396   -1.849488
     21          6           0       -8.634566   -0.333944    0.405268
     22          6           0        8.638899    0.312800   -0.152974
     23          6           0       -7.486862   -1.236336    0.456853
     24          6           0        7.652649    1.372050   -0.368781
     25          6           0       -7.777652   -2.671484    0.842320
     26          6           0        8.037627    2.732813   -0.828503
     27          6           0       -6.233156   -0.798805    0.170138
     28          6           0        6.369423    1.057275   -0.378421
     29          6           0       -4.972842   -1.419096    0.290780
     30          6           0        5.133906    1.737405   -0.436268
     31          6           0       -3.714060   -0.844182    0.114782
     32          6           0        3.873604    1.104924   -0.463380
     33          6           0       -2.380074   -1.294017    0.176224
     34          6           0        2.688432    1.738527   -0.535757
     35          6           0       -2.238941   -2.744724    0.434973
     36          6           0        2.629299    3.245343   -0.654522
     37          6           0       -1.187233   -0.714091   -0.098163
     38          6           0        1.507885    0.968151   -0.303099
     39          6           0       -1.010030    0.769916   -0.422464
     40          6           0        0.166565    1.447786   -0.491181
     41          1           0      -14.117224   -0.170154    0.425668
     42          1           0      -14.242021   -0.003437   -1.387305
     43          1           0       12.511339   -1.935633    1.962450
     44          1           0       13.957869   -0.740249    1.984194
     45          1           0      -14.254229    2.222054   -0.471336
     46          1           0      -12.903061    2.083151   -1.452208
     47          1           0       14.195575   -2.829703    0.514230
     48          1           0       13.925377   -1.293136   -0.364856
     49          1           0      -13.008425    2.134091    1.689614
     50          1           0      -12.155175    3.127829    0.646202
     51          1           0       11.947291   -3.393295    0.151299
     52          1           0       12.524016   -3.007858   -1.403600
     53          1           0      -11.755161    0.468160   -2.643188
     54          1           0      -12.300031   -1.076676   -2.726808
     55          1           0      -10.755558   -1.061518   -2.231801
     56          1           0      -13.289445   -1.962832    0.594151
     57          1           0      -11.600409   -2.739246   -0.179892
     58          1           0      -13.308865   -2.292349   -1.292709
     59          1           0       13.493924    0.863115   -0.439392
     60          1           0       13.643576    1.395322    1.159028
     61          1           0       12.221128    1.933084    0.107792
     62          1           0       10.475314    0.153802    2.580263
     63          1           0       11.108835    1.721875    1.845612
     64          1           0       12.095290    0.860930    3.091040
     65          1           0      -10.126450   -1.775587    0.269083
     66          1           0       10.445052    1.629353   -0.627003
     67          1           0       -9.640756    0.997144    2.420343
     68          1           0      -10.813856    1.947374    2.686968
     69          1           0       -9.639500    2.579551    1.536920
     70          1           0        9.576189   -1.212778   -2.282315
     71          1           0        9.542592   -2.910636   -1.564697
     72          1           0       10.772121   -2.349506   -2.752715
     73          1           0       -8.569204    0.920887    0.455528
     74          1           0        8.227307   -0.660435    0.182971
     75          1           0       -8.403845   -2.568261    1.696543
     76          1           0       -6.658408   -3.284406    0.825126
     77          1           0       -8.549375   -3.197686    0.138617
     78          1           0        8.414047    2.752466   -1.840430
     79          1           0        8.831585    3.221269   -0.119069
     80          1           0        7.106001    3.462129   -0.800947
     81          1           0       -6.207978    0.232428   -0.218825
     82          1           0        6.043585    0.039351   -0.200367
     83          1           0       -5.022971   -2.565744    0.570581
     84          1           0        5.386292    2.906049   -0.145464
     85          1           0       -3.857204    0.181642   -0.307814
     86          1           0        3.774627   -0.069795   -0.487001
     87          1           0       -2.632475   -3.034169    1.389777
     88          1           0       -1.169498   -3.124092    0.071220
     89          1           0       -3.053748   -3.129525   -0.268074
     90          1           0        3.331519    3.519149   -1.393171
     91          1           0        3.214798    3.692643    0.286168
     92          1           0        1.734050    3.746742   -0.755670
     93          1           0       -0.208963   -1.202127    0.002546
     94          1           0        1.619265   -0.235679   -0.190773
     95          1           0       -1.766956    1.409103   -0.488728
     96          1           0        0.118050    2.365727   -0.774232
 ---------------------------------------------------------------------

 SCF Done:  E(RB3LYP) =  -1557.54587649     A.U. after   16 cycles

 Excitation energies and oscillator strengths:

 Excited State   1:      Singlet-A      2.0760 eV  597.24 nm  f=2.9722  <S**2>=0.000
     148 ->149         0.70360
     148 <-149        -0.10522
 This state for optimization and/or second-order correction.
 Total Energy, E(TD-HF/TD-DFT) =  -1557.46958646
 Copying the excited state density for this state as the 1-particle RhoCI density.

 The electronic state is 1-A.
 Alpha  occ. eigenvalues --  -10.20831 -10.20569 -10.20487 -10.20428 -10.20251
 Alpha  occ. eigenvalues --  -10.20136 -10.20074 -10.20006 -10.19892 -10.19790
 Alpha  occ. eigenvalues --  -10.19771 -10.19513 -10.19420 -10.19397 -10.19318
 Alpha  occ. eigenvalues --  -10.19282 -10.19214 -10.19210 -10.19045 -10.19028
 Alpha  occ. eigenvalues --  -10.18778 -10.18638 -10.18446 -10.18442 -10.18225
 Alpha  occ. eigenvalues --  -10.18090 -10.18072 -10.17969 -10.17814 -10.17805
 Alpha  occ. eigenvalues --  -10.17668 -10.17638 -10.17524 -10.17374 -10.17257
 Alpha  occ. eigenvalues --  -10.17164 -10.17062 -10.17039 -10.16663 -10.16322
 Alpha  occ. eigenvalues --   -0.85280  -0.85196  -0.83686  -0.83261  -0.82222
 Alpha  occ. eigenvalues --   -0.81750  -0.79141  -0.78925  -0.78608  -0.78168
 Alpha  occ. eigenvalues --   -0.77763  -0.75482  -0.74453  -0.72813  -0.72130
 Alpha  occ. eigenvalues --   -0.69445  -0.68809  -0.68453  -0.67912  -0.67837
 Alpha  occ. eigenvalues --   -0.67788  -0.67723  -0.67112  -0.66192  -0.65646
 Alpha  occ. eigenvalues --   -0.63175  -0.62579  -0.59942  -0.59481  -0.57678
 Alpha  occ. eigenvalues --   -0.56195  -0.55592  -0.55030  -0.53577  -0.52364
 Alpha  occ. eigenvalues --   -0.51599  -0.51516  -0.50367  -0.49541  -0.48914
 Alpha  occ. eigenvalues --   -0.48503  -0.47589  -0.47185  -0.46660  -0.46071
 Alpha  occ. eigenvalues --   -0.45722  -0.45541  -0.45220  -0.44920  -0.44602
 Alpha  occ. eigenvalues --   -0.43938  -0.43682  -0.43304  -0.42747  -0.42375
 Alpha  occ. eigenvalues --   -0.42040  -0.41803  -0.41476  -0.41130  -0.40726
 Alpha  occ. eigenvalues --   -0.40575  -0.40490  -0.40093  -0.39974  -0.39639
 Alpha  occ. eigenvalues --   -0.39378  -0.38920  -0.38733  -0.38440  -0.38120
 Alpha  occ. eigenvalues --   -0.38071  -0.37834  -0.37644  -0.36933  -0.36779
 Alpha  occ. eigenvalues --   -0.36461  -0.36103  -0.35488  -0.35333  -0.35128
 Alpha  occ. eigenvalues --   -0.34937  -0.34493  -0.34190  -0.33916  -0.33790
 Alpha  occ. eigenvalues --   -0.33536  -0.33482  -0.32992  -0.32575  -0.32087
 Alpha  occ. eigenvalues --   -0.32009  -0.31725  -0.31211  -0.31094  -0.30614
 Alpha  occ. eigenvalues --   -0.30504  -0.30339  -0.30065  -0.29051  -0.28682
 Alpha  occ. eigenvalues --   -0.28454  -0.28026  -0.26299  -0.24331  -0.22714
 Alpha  occ. eigenvalues --   -0.20872  -0.18694  -0.16133
 Alpha virt. eigenvalues --   -0.08382  -0.05685  -0.01294   0.00147   0.02235
 Alpha virt. eigenvalues --    0.04219   0.05525   0.05912   0.06701   0.06925
 Alpha virt. eigenvalues --    0.07326   0.08037   0.08096   0.08517   0.08669

 Mulliken charges:
               1
     1  C   -0.011010
     2  C   -0.004954
     3  C   -0.179033
     4  C   -0.148767
     5  C   -0.177437
     6  C   -0.180471
     7  C    0.140746
     8  C    0.037132
     9  C   -0.217893
    10  C   -0.214413
    11  C   -0.013283
    12  C    0.075001
    13  C   -0.292649
    14  C   -0.285210
    15  C   -0.276046
    16  C   -0.297231
    17  C   -0.116978
    18  C   -0.146233
    19  C   -0.317323
    20  C   -0.360488
    21  C   -0.104601
    22  C   -0.088233
    23  C    0.112535
    24  C    0.132860
    25  C   -0.356832
    26  C   -0.374208
    27  C   -0.110546
    28  C   -0.111155
    29  C   -0.074481
    30  C   -0.101667
    31  C   -0.126935
    32  C   -0.134757
    33  C    0.165532
    34  C    0.147641
    35  C   -0.374242
    36  C   -0.367907
    37  C   -0.152298
    38  C   -0.123762
    39  C   -0.077022
    40  C   -0.074737
    41  H    0.078469
    42  H    0.070179
    43  H    0.094173
    44  H    0.044819
    45  H    0.105373
    46  H    0.102996
    47  H    0.088276
    48  H    0.091976
    49  H    0.088252
    50  H    0.103275
    51  H    0.088827
    52  H    0.096272
    53  H    0.099930
    54  H    0.100377
    55  H    0.096157
    56  H    0.103595
    57  H    0.102339
    58  H    0.072323
    59  H    0.114196
    60  H    0.101067
    61  H    0.071699
    62  H    0.103935
    63  H    0.092753
    64  H    0.097168
    65  H    0.046651
    66  H    0.078824
    67  H    0.117348
    68  H    0.104055
    69  H    0.106812
    70  H    0.128972
    71  H    0.127032
    72  H    0.089309
    73  H    0.063214
    74  H    0.087462
    75  H    0.133584
    76  H    0.086150
    77  H    0.109358
    78  H    0.133426
    79  H    0.097307
    80  H    0.089693
    81  H    0.075136
    82  H    0.063174
    83  H    0.058814
    84  H    0.068681
    85  H    0.071818
    86  H    0.083322
    87  H    0.124102
    88  H    0.095549
    89  H    0.105582
    90  H    0.129175
    91  H    0.103886
    92  H    0.118204
    93  H    0.088132
    94  H    0.058559
    95  H    0.069759
    96  H    0.059843
 Sum of Mulliken charges =  -0.00000

 Dipole moment (field-independent basis, Debye):
    X=             -1.0399    Y=              0.5425    Z=             -0.4467  Tot=              1.2551
 Quadrupole moment (field-independent basis, Debye-Ang):
   XX=           -198.3844   YY=           -237.3506   ZZ=           -254.0300
   XY=            -10.5825   XZ=             -5.1624   YZ=             -1.9287

 Normal termination of Gaussian 16 at Wed Jul 31 21:07:15 2019.
