 Gaussian 16, Revision A.03,
 Gaussian 16:  ES64L-G16RevA.03 25-Dec-2016

 ---------------------------------
 # td=(NStates=1) B3LYP/6-31G(d,p)
 ---------------------------------

 --
 TD
 --
 Symbolic Z-matrix:
 Charge =  0 Multiplicity = 1

                         Standard orientation:
 ---------------------------------------------------------------------
 Center     Atomic      Atomic             Coordinates (Angstroms)
 Number     Number       Type             X           Y           Z
 ---------------------------------------------------------------------
      1          6           0      -12.008688   -0.671106   -0.742327
      2          6           0       11.957117   -0.040754    0.906541
      3          6           0      -13.394336    0.245418   -0.580971
      4          6           0       12.643576   -1.388043    1.491112
      5          6           0      -13.226186    1.864406   -0.428642
      6          6           0       13.139391   -2.132706    0.180838
      7          6           0      -10.947888   -0.115930    0.241701
      8          6           0       10.902513   -0.446734   -0.156015
      9          6           0      -12.186592    2.037977    0.700544
     10          6           0       11.980880   -2.784540   -0.512928
     11          6           0      -11.050822    1.072221    0.896964
     12          6           0       10.951472   -1.645506   -0.770968
     13          6           0      -11.466907   -0.522008   -2.139144
     14          6           0      -12.423018   -2.068008   -0.314026
     15          6           0       13.095430    0.985008    0.266262
     16          6           0       11.455616    0.730163    2.084504
     17          6           0       -9.749274   -0.957129    0.390393
     18          6           0        9.910561    0.616565   -0.352173
     19          6           0      -10.056604    1.579395    1.925738
     20          6           0       10.042975   -2.055560   -1.799254
     21          6           0       -8.487794   -0.556748    0.308581
     22          6           0        8.591357    0.336057   -0.382322
     23          6           0       -7.270928   -1.374011    0.366987
     24          6           0        7.418897    1.307431   -0.448972
     25          6           0       -7.481266   -2.787639    0.541446
     26          6           0        7.826506    2.853513   -0.521181
     27          6           0       -6.092830   -0.655494    0.322571
     28          6           0        6.104774    0.975303   -0.437970
     29          6           0       -4.799282   -1.332793    0.345317
     30          6           0        4.960194    1.774058   -0.501662
     31          6           0       -3.673102   -0.572231    0.277114
     32          6           0        3.703502    1.216278   -0.370015
     33          6           0       -2.308686   -1.205415    0.271691
     34          6           0        2.493190    1.950110   -0.398275
     35          6           0       -2.140332   -2.606447    0.556008
     36          6           0        2.517653    3.460063   -0.744212
     37          6           0       -1.262198   -0.436094    0.100970
     38          6           0        1.290893    1.182727   -0.199808
     39          6           0       -1.172775    0.983535   -0.146329
     40          6           0       -0.070983    1.669890   -0.232535
     41          1           0      -13.895994   -0.179488    0.399052
     42          1           0      -14.196966   -0.023506   -1.235744
     43          1           0       11.882758   -2.039564    2.084781
     44          1           0       13.396497   -1.026345    2.158206
     45          1           0      -14.310892    2.128136   -0.103066
     46          1           0      -12.846157    2.267965   -1.371651
     47          1           0       13.721664   -3.044061    0.435706
     48          1           0       13.884296   -1.483782   -0.564989
     49          1           0      -12.804523    2.233964    1.482505
     50          1           0      -11.888669    2.910469    0.705299
     51          1           0       11.407958   -3.544298    0.093396
     52          1           0       12.113740   -3.280653   -1.532920
     53          1           0      -10.966215    0.437914   -2.370002
     54          1           0      -12.265781   -0.513935   -2.930053
     55          1           0      -10.662065   -1.178448   -2.254717
     56          1           0      -12.879381   -2.069753    0.700211
     57          1           0      -11.281172   -2.638540   -0.379887
     58          1           0      -12.988466   -2.566487   -1.289815
     59          1           0       13.381329    0.283816   -0.725165
     60          1           0       14.042049    1.253370    0.771415
     61          1           0       12.576831    1.854492   -0.130399
     62          1           0       10.612356    0.236203    2.793544
     63          1           0       10.950625    1.640738    2.221096
     64          1           0       12.289542    0.805532    2.929891
     65          1           0       -9.864337   -2.050605    0.380333
     66          1           0       10.362342    1.623047   -0.232291
     67          1           0       -9.412862    0.728864    2.324805
     68          1           0      -10.753299    2.240931    2.565511
     69          1           0       -9.364697    2.206040    1.324651
     70          1           0        9.516199   -1.284607   -2.358044
     71          1           0        9.206131   -2.732601   -1.359504
     72          1           0       10.602494   -2.513617   -2.599863
     73          1           0       -8.284587    0.468751   -0.257945
     74          1           0        8.061026   -0.784103   -0.324603
     75          1           0       -7.710613   -2.985717    1.649165
     76          1           0       -6.577406   -3.490162    0.376342
     77          1           0       -7.978203   -3.372791   -0.254870
     78          1           0        8.482296    2.948204   -1.363481
     79          1           0        8.535853    2.865142    0.405016
     80          1           0        7.053793    3.611808   -0.595360
     81          1           0       -6.057056    0.499712    0.293136
     82          1           0        5.867909   -0.089840   -0.243984
     83          1           0       -4.869063   -2.620016    0.607441
     84          1           0        4.945595    2.942645   -0.641967
     85          1           0       -3.857056    0.511625    0.058090
     86          1           0        3.651031    0.067070   -0.365942
     87          1           0       -2.592777   -2.930570    1.547754
     88          1           0       -0.966100   -2.818182    0.532455
     89          1           0       -2.504802   -3.320329   -0.200389
     90          1           0        3.405422    3.541212   -1.495789
     91          1           0        2.800867    4.174327    0.153681
     92          1           0        1.484346    3.760006   -1.099326
     93          1           0       -0.184744   -0.842680    0.133208
     94          1           0        1.590178    0.149376   -0.223978
     95          1           0       -2.222856    1.498391   -0.213307
     96          1           0        0.065580    2.623587   -0.380964
 ---------------------------------------------------------------------

 SCF Done:  E(RB3LYP) =  -1557.52986162     A.U. after   15 cycles

 Excitation energies and oscillator strengths:

 Excited State   1:      Singlet-A      2.3701 eV  523.12 nm  f=2.7994  <S**2>=0.000
     147 ->149         0.11919
     148 ->149         0.69318
 This state for optimization and/or second-order correction.
 Total Energy, E(TD-HF/TD-DFT) =  -1557.44276307
 Copying the excited state density for this state as the 1-particle RhoCI density.

 The electronic state is 1-A.
 Alpha  occ. eigenvalues --  -10.21253 -10.20775 -10.20755 -10.20616 -10.20615
 Alpha  occ. eigenvalues --  -10.20336 -10.20102 -10.19976 -10.19871 -10.19730
 Alpha  occ. eigenvalues --  -10.19637 -10.19580 -10.19508 -10.19494 -10.19416
 Alpha  occ. eigenvalues --  -10.19367 -10.19283 -10.19214 -10.19208 -10.19150
 Alpha  occ. eigenvalues --  -10.19129 -10.19109 -10.19090 -10.19011 -10.18797
 Alpha  occ. eigenvalues --  -10.18493 -10.18487 -10.18408 -10.18395 -10.18364
 Alpha  occ. eigenvalues --  -10.18248 -10.18239 -10.18180 -10.17963 -10.17783
 Alpha  occ. eigenvalues --  -10.17649 -10.17514 -10.16995 -10.16660 -10.15415
 Alpha  occ. eigenvalues --   -0.84587  -0.84280  -0.83880  -0.82882  -0.82234
 Alpha  occ. eigenvalues --   -0.80817  -0.79050  -0.78817  -0.78226  -0.77295
 Alpha  occ. eigenvalues --   -0.76774  -0.75069  -0.74043  -0.72039  -0.71759
 Alpha  occ. eigenvalues --   -0.69770  -0.68597  -0.68088  -0.67834  -0.67454
 Alpha  occ. eigenvalues --   -0.66764  -0.66640  -0.66473  -0.66425  -0.66124
 Alpha  occ. eigenvalues --   -0.62353  -0.61051  -0.59263  -0.58292  -0.57603
 Alpha  occ. eigenvalues --   -0.56506  -0.55472  -0.54659  -0.53180  -0.52205
 Alpha  occ. eigenvalues --   -0.52135  -0.51155  -0.50540  -0.49261  -0.49010
 Alpha  occ. eigenvalues --   -0.48400  -0.47229  -0.47127  -0.46486  -0.45753
 Alpha  occ. eigenvalues --   -0.45346  -0.45104  -0.44898  -0.44730  -0.44050
 Alpha  occ. eigenvalues --   -0.43796  -0.43249  -0.42463  -0.42244  -0.42114
 Alpha  occ. eigenvalues --   -0.41789  -0.41579  -0.41287  -0.40638  -0.40352
 Alpha  occ. eigenvalues --   -0.40222  -0.40063  -0.39820  -0.39433  -0.39358
 Alpha  occ. eigenvalues --   -0.39015  -0.38918  -0.38753  -0.37905  -0.37865
 Alpha  occ. eigenvalues --   -0.37623  -0.36953  -0.36622  -0.36357  -0.36089
 Alpha  occ. eigenvalues --   -0.35888  -0.35508  -0.35455  -0.35208  -0.34964
 Alpha  occ. eigenvalues --   -0.34837  -0.34592  -0.34336  -0.34031  -0.33922
 Alpha  occ. eigenvalues --   -0.33694  -0.33401  -0.32663  -0.32330  -0.32156
 Alpha  occ. eigenvalues --   -0.32013  -0.31532  -0.31091  -0.30998  -0.30898
 Alpha  occ. eigenvalues --   -0.30275  -0.29833  -0.29426  -0.28359  -0.27858
 Alpha  occ. eigenvalues --   -0.27112  -0.26772  -0.26363  -0.24507  -0.22539
 Alpha  occ. eigenvalues --   -0.21238  -0.18823  -0.16741
 Alpha virt. eigenvalues --   -0.07626  -0.04826  -0.01496   0.00985   0.02989
 Alpha virt. eigenvalues --    0.04518   0.05070   0.05974   0.06482   0.07022
 Alpha virt. eigenvalues --    0.07356   0.07714   0.07789   0.08090   0.08608

 Mulliken charges:
               1
     1  C    0.002180
     2  C   -0.012309
     3  C   -0.186296
     4  C   -0.167068
     5  C   -0.214782
     6  C   -0.183419
     7  C    0.075230
     8  C    0.096704
     9  C   -0.198618
    10  C   -0.198872
    11  C    0.063119
    12  C    0.056826
    13  C   -0.296712
    14  C   -0.268648
    15  C   -0.301225
    16  C   -0.299274
    17  C   -0.161746
    18  C   -0.148725
    19  C   -0.353855
    20  C   -0.364990
    21  C   -0.098201
    22  C   -0.073318
    23  C    0.132304
    24  C    0.085943
    25  C   -0.392030
    26  C   -0.366849
    27  C   -0.127927
    28  C   -0.133837
    29  C   -0.060951
    30  C   -0.069042
    31  C   -0.128094
    32  C   -0.109966
    33  C    0.159728
    34  C    0.100866
    35  C   -0.386574
    36  C   -0.368729
    37  C   -0.138515
    38  C   -0.120647
    39  C   -0.056758
    40  C   -0.061708
    41  H    0.058708
    42  H    0.083800
    43  H    0.096468
    44  H    0.098326
    45  H    0.092687
    46  H    0.103377
    47  H    0.081360
    48  H    0.087523
    49  H    0.108554
    50  H    0.100198
    51  H    0.108820
    52  H    0.092898
    53  H    0.101766
    54  H    0.094283
    55  H    0.106971
    56  H    0.119444
    57  H    0.056138
    58  H    0.081888
    59  H    0.067881
    60  H    0.111971
    61  H    0.108504
    62  H    0.060938
    63  H    0.112638
    64  H    0.073821
    65  H    0.085615
    66  H    0.097981
    67  H    0.122438
    68  H    0.092808
    69  H    0.118494
    70  H    0.116340
    71  H    0.099403
    72  H    0.099496
    73  H    0.070268
    74  H    0.072577
    75  H    0.132925
    76  H    0.088354
    77  H    0.129091
    78  H    0.124564
    79  H    0.108583
    80  H    0.109945
    81  H    0.084874
    82  H    0.067069
    83  H    0.067722
    84  H    0.073094
    85  H    0.088524
    86  H    0.078437
    87  H    0.116943
    88  H    0.092662
    89  H    0.120599
    90  H    0.115241
    91  H    0.112791
    92  H    0.115449
    93  H    0.069954
    94  H    0.073071
    95  H    0.066086
    96  H    0.056431
 Sum of Mulliken charges =  -0.00000

 Dipole moment (field-independent basis, Debye):
    X=             -0.0818    Y=             -0.1274    Z=             -0.3052  Tot=              0.3407
 Quadrupole moment (field-independent basis, Debye-Ang):
   XX=           -231.7560   YY=           -233.6704   ZZ=           -256.3055
   XY=             -5.4243   XZ=              0.0713   YZ=             -0.8194

 Normal termination of Gaussian 16 at Mon Jul 29 19:28:15 2019.
