 Gaussian 16, Revision A.03,
 Gaussian 16:  ES64L-G16RevA.03 25-Dec-2016

 ---------------------------------
 # td=(NStates=1) B3LYP/6-31G(d,p)
 ---------------------------------

 --
 TD
 --
 Symbolic Z-matrix:
 Charge =  0 Multiplicity = 1

                         Standard orientation:
 ---------------------------------------------------------------------
 Center     Atomic      Atomic             Coordinates (Angstroms)
 Number     Number       Type             X           Y           Z
 ---------------------------------------------------------------------
      1          6           0      -12.115788   -0.470611   -0.899039
      2          6           0       12.161572    0.086304    0.784121
      3          6           0      -13.315612    0.472824   -0.870373
      4          6           0       12.947958   -1.129410    1.337573
      5          6           0      -12.905783    2.001606   -0.826330
      6          6           0       13.491137   -1.917092    0.080044
      7          6           0      -11.008591    0.073734    0.030910
      8          6           0       10.990695   -0.367629   -0.144628
      9          6           0      -12.152185    2.230415    0.505872
     10          6           0       12.280353   -2.546389   -0.678374
     11          6           0      -11.048075    1.218539    0.755333
     12          6           0       11.017625   -1.526890   -0.826390
     13          6           0      -11.469189   -0.632455   -2.259664
     14          6           0      -12.631439   -1.831239   -0.280995
     15          6           0       13.001202    1.160303    0.065298
     16          6           0       11.557679    0.772798    2.104233
     17          6           0       -9.880681   -0.876436    0.322819
     18          6           0        9.898919    0.609336   -0.432943
     19          6           0      -10.262168    1.762980    2.004992
     20          6           0        9.914137   -2.140342   -1.825528
     21          6           0       -8.566942   -0.453243    0.375634
     22          6           0        8.627213    0.355483   -0.357558
     23          6           0       -7.455664   -1.334672    0.612411
     24          6           0        7.494548    1.293101   -0.548563
     25          6           0       -7.797083   -2.807177    0.801762
     26          6           0        7.802435    2.732426   -0.775908
     27          6           0       -6.172726   -0.810702    0.539911
     28          6           0        6.221098    0.880506   -0.238620
     29          6           0       -4.981493   -1.475612    0.378283
     30          6           0        5.034104    1.630269   -0.220990
     31          6           0       -3.745545   -0.845725    0.414520
     32          6           0        3.755625    1.148243   -0.163073
     33          6           0       -2.404037   -1.410687    0.527220
     34          6           0        2.450984    1.760598   -0.241478
     35          6           0       -2.376372   -2.878731    0.664141
     36          6           0        2.553995    3.248726   -0.469497
     37          6           0       -1.283621   -0.736001    0.191421
     38          6           0        1.367855    0.964507   -0.092612
     39          6           0       -1.151950    0.699387   -0.070939
     40          6           0       -0.030888    1.383134   -0.257076
     41          1           0      -13.802372    0.313248    0.028362
     42          1           0      -14.118202    0.308517   -1.792068
     43          1           0       12.158213   -1.776280    1.995075
     44          1           0       13.860699   -0.810166    2.057000
     45          1           0      -13.664275    2.514067   -0.932317
     46          1           0      -12.046292    2.212074   -1.730450
     47          1           0       14.221666   -2.608029    0.323558
     48          1           0       14.189826   -1.279380   -0.363340
     49          1           0      -12.858298    2.321575    1.399947
     50          1           0      -11.542107    3.250280    0.404586
     51          1           0       12.057226   -3.472992   -0.290714
     52          1           0       12.721363   -2.663956   -1.708164
     53          1           0      -11.015650    0.350295   -2.495276
     54          1           0      -12.221107   -1.095512   -3.022268
     55          1           0      -10.544916   -1.411431   -2.197716
     56          1           0      -12.673454   -1.589974    0.806730
     57          1           0      -11.893300   -2.762887   -0.646590
     58          1           0      -13.394679   -2.182512   -0.869092
     59          1           0       13.216461    0.668116   -0.978272
     60          1           0       13.956522    1.488534    0.667359
     61          1           0       12.335749    2.005368   -0.272568
     62          1           0       10.976814   -0.052857    2.493522
     63          1           0       10.781706    1.641412    2.034574
     64          1           0       12.525377    0.748380    2.819121
     65          1           0       -9.982365   -1.908835    0.438689
     66          1           0       10.325088    1.667739   -0.477525
     67          1           0       -9.613028    0.927007    2.338335
     68          1           0      -11.002339    2.044469    2.778444
     69          1           0       -9.693634    2.723003    1.658852
     70          1           0        9.333767   -1.270906   -2.103178
     71          1           0        9.262672   -2.808982   -1.446182
     72          1           0       10.320066   -2.663172   -2.755453
     73          1           0       -8.395544    0.448859    0.289897
     74          1           0        8.309539   -0.737012   -0.353790
     75          1           0       -8.283042   -2.888274    1.792684
     76          1           0       -6.883898   -3.445344    0.740240
     77          1           0       -8.527068   -3.091809   -0.119575
     78          1           0        8.673039    2.915496   -1.603811
     79          1           0        8.205200    3.288911    0.312891
     80          1           0        6.813303    3.296503   -0.887556
     81          1           0       -6.150849    0.240251    0.449269
     82          1           0        5.940503   -0.074485   -0.000323
     83          1           0       -5.103231   -2.719718    0.610248
     84          1           0        5.118508    2.618326   -0.144917
     85          1           0       -3.663612    0.217355    0.301831
     86          1           0        3.599655   -0.059871   -0.174939
     87          1           0       -2.745912   -3.252420    1.610234
     88          1           0       -1.366831   -3.225186    0.401526
     89          1           0       -3.000682   -3.438685   -0.038117
     90          1           0        3.480475    3.683343   -1.163061
     91          1           0        2.525147    3.671901    0.647253
     92          1           0        1.585999    3.732154   -0.822945
     93          1           0       -0.332087   -1.373188    0.546008
     94          1           0        1.373930   -0.068076   -0.042891
     95          1           0       -2.011356    1.143907   -0.184035
     96          1           0       -0.218198    2.525807   -0.424616
 ---------------------------------------------------------------------

 SCF Done:  E(RB3LYP) =  -1557.53703651     A.U. after   15 cycles

 Excitation energies and oscillator strengths:

 Excited State   1:      Singlet-A      2.2899 eV  541.45 nm  f=2.8046  <S**2>=0.000
     148 ->149         0.70685
 This state for optimization and/or second-order correction.
 Total Energy, E(TD-HF/TD-DFT) =  -1557.45288531
 Copying the excited state density for this state as the 1-particle RhoCI density.

 The electronic state is 1-A.
 Alpha  occ. eigenvalues --  -10.21285 -10.21278 -10.20740 -10.20483 -10.20306
 Alpha  occ. eigenvalues --  -10.20153 -10.20122 -10.20008 -10.19918 -10.19852
 Alpha  occ. eigenvalues --  -10.19820 -10.19748 -10.19578 -10.19501 -10.19469
 Alpha  occ. eigenvalues --  -10.19453 -10.19417 -10.19410 -10.19074 -10.18919
 Alpha  occ. eigenvalues --  -10.18879 -10.18838 -10.18810 -10.18759 -10.18662
 Alpha  occ. eigenvalues --  -10.18658 -10.18596 -10.18463 -10.18375 -10.18090
 Alpha  occ. eigenvalues --  -10.18070 -10.18047 -10.18029 -10.17991 -10.17877
 Alpha  occ. eigenvalues --  -10.17705 -10.17453 -10.17276 -10.16728 -10.16525
 Alpha  occ. eigenvalues --   -0.85003  -0.84095  -0.83770  -0.83279  -0.82391
 Alpha  occ. eigenvalues --   -0.81617  -0.79147  -0.78240  -0.77903  -0.77072
 Alpha  occ. eigenvalues --   -0.76151  -0.75052  -0.74582  -0.71737  -0.71556
 Alpha  occ. eigenvalues --   -0.70002  -0.68492  -0.68068  -0.67945  -0.67586
 Alpha  occ. eigenvalues --   -0.67246  -0.66778  -0.66559  -0.65856  -0.65334
 Alpha  occ. eigenvalues --   -0.62988  -0.62400  -0.60067  -0.59429  -0.57481
 Alpha  occ. eigenvalues --   -0.56833  -0.55326  -0.54896  -0.54206  -0.53360
 Alpha  occ. eigenvalues --   -0.52448  -0.51955  -0.50777  -0.49634  -0.48915
 Alpha  occ. eigenvalues --   -0.48154  -0.47487  -0.46852  -0.46206  -0.45883
 Alpha  occ. eigenvalues --   -0.45365  -0.44854  -0.44510  -0.44039  -0.43607
 Alpha  occ. eigenvalues --   -0.43136  -0.42754  -0.42689  -0.42040  -0.41927
 Alpha  occ. eigenvalues --   -0.41717  -0.41560  -0.41412  -0.41276  -0.40905
 Alpha  occ. eigenvalues --   -0.40790  -0.40285  -0.40149  -0.39724  -0.39470
 Alpha  occ. eigenvalues --   -0.39396  -0.39066  -0.38636  -0.38450  -0.38082
 Alpha  occ. eigenvalues --   -0.37919  -0.37612  -0.37401  -0.37227  -0.36650
 Alpha  occ. eigenvalues --   -0.36164  -0.35860  -0.35842  -0.35635  -0.34748
 Alpha  occ. eigenvalues --   -0.34490  -0.34243  -0.34065  -0.33771  -0.33719
 Alpha  occ. eigenvalues --   -0.33385  -0.32917  -0.32692  -0.32382  -0.32306
 Alpha  occ. eigenvalues --   -0.32142  -0.31552  -0.31292  -0.31058  -0.30998
 Alpha  occ. eigenvalues --   -0.30690  -0.29713  -0.29167  -0.28866  -0.28399
 Alpha  occ. eigenvalues --   -0.28128  -0.27795  -0.26872  -0.24588  -0.23384
 Alpha  occ. eigenvalues --   -0.21976  -0.18984  -0.16965
 Alpha virt. eigenvalues --   -0.08109  -0.05569  -0.01285   0.00926   0.02725
 Alpha virt. eigenvalues --    0.04018   0.05825   0.06224   0.06306   0.06587
 Alpha virt. eigenvalues --    0.07302   0.07586   0.08126   0.08309   0.08899

 Mulliken charges:
               1
     1  C    0.012619
     2  C    0.009309
     3  C   -0.170751
     4  C   -0.174971
     5  C   -0.140662
     6  C   -0.196587
     7  C    0.039109
     8  C    0.061420
     9  C   -0.218019
    10  C   -0.215534
    11  C    0.049232
    12  C    0.037597
    13  C   -0.281692
    14  C   -0.291951
    15  C   -0.284093
    16  C   -0.298846
    17  C   -0.135445
    18  C   -0.139164
    19  C   -0.341357
    20  C   -0.370835
    21  C   -0.038948
    22  C   -0.074202
    23  C    0.103057
    24  C    0.110266
    25  C   -0.371616
    26  C   -0.353206
    27  C   -0.105830
    28  C   -0.088329
    29  C   -0.075218
    30  C   -0.075973
    31  C   -0.115067
    32  C   -0.122745
    33  C    0.120899
    34  C    0.169227
    35  C   -0.376517
    36  C   -0.376776
    37  C   -0.135110
    38  C   -0.127651
    39  C   -0.057306
    40  C   -0.101935
    41  H    0.102617
    42  H    0.058840
    43  H    0.077029
    44  H    0.066114
    45  H    0.089547
    46  H    0.059503
    47  H    0.085593
    48  H    0.107108
    49  H    0.093331
    50  H    0.079538
    51  H    0.117307
    52  H    0.096454
    53  H    0.109801
    54  H    0.083436
    55  H    0.084390
    56  H    0.114459
    57  H    0.060358
    58  H    0.117760
    59  H    0.090155
    60  H    0.093069
    61  H    0.099735
    62  H    0.105980
    63  H    0.095895
    64  H    0.080808
    65  H    0.083722
    66  H    0.078554
    67  H    0.115968
    68  H    0.114884
    69  H    0.106021
    70  H    0.121189
    71  H    0.129981
    72  H    0.095677
    73  H    0.045032
    74  H    0.083042
    75  H    0.130930
    76  H    0.102134
    77  H    0.105237
    78  H    0.105714
    79  H    0.081318
    80  H    0.106425
    81  H    0.074153
    82  H    0.072563
    83  H    0.055131
    84  H    0.070582
    85  H    0.075306
    86  H    0.049577
    87  H    0.117412
    88  H    0.098831
    89  H    0.122781
    90  H    0.111051
    91  H    0.118430
    92  H    0.110304
    93  H    0.067364
    94  H    0.089468
    95  H    0.074654
    96  H    0.061341
 Sum of Mulliken charges =  -0.00000

 Dipole moment (field-independent basis, Debye):
    X=             -1.9361    Y=              0.0825    Z=              0.2755  Tot=              1.9573
 Quadrupole moment (field-independent basis, Debye-Ang):
   XX=           -216.3997   YY=           -236.2606   ZZ=           -257.1760
   XY=             -4.4528   XZ=             -7.7172   YZ=             -0.0730

 Normal termination of Gaussian 16 at Tue Jul 23 23:02:20 2019.
