 Gaussian 16, Revision A.03,
 Gaussian 16:  ES64L-G16RevA.03 25-Dec-2016

 ---------------------------------
 # td=(NStates=1) B3LYP/6-31G(d,p)
 ---------------------------------

 --
 TD
 --
 Symbolic Z-matrix:
 Charge =  0 Multiplicity = 1

                         Standard orientation:
 ---------------------------------------------------------------------
 Center     Atomic      Atomic             Coordinates (Angstroms)
 Number     Number       Type             X           Y           Z
 ---------------------------------------------------------------------
      1          6           0      -12.214924   -0.646104   -0.449483
      2          6           0       12.132456   -0.057404    0.962818
      3          6           0      -13.451357    0.238171   -0.443822
      4          6           0       12.904523   -1.216977    1.410063
      5          6           0      -13.165964    1.733118   -0.583674
      6          6           0       13.422249   -2.142009    0.203830
      7          6           0      -10.960076    0.083832    0.250910
      8          6           0       10.908360   -0.400967   -0.020156
      9          6           0      -12.185036    2.180797    0.641718
     10          6           0       12.080551   -2.642712   -0.492040
     11          6           0      -11.104742    1.285597    0.933683
     12          6           0       11.012091   -1.594165   -0.702742
     13          6           0      -11.803867   -0.798785   -1.988338
     14          6           0      -12.625052   -2.096080    0.177083
     15          6           0       12.980773    1.025715    0.367037
     16          6           0       11.510580    0.623316    2.249743
     17          6           0       -9.808408   -0.843979    0.547816
     18          6           0        9.892761    0.526240   -0.168626
     19          6           0      -10.106533    1.863981    1.840886
     20          6           0       10.015178   -2.056282   -1.762064
     21          6           0       -8.494195   -0.502920    0.427797
     22          6           0        8.564358    0.282197   -0.238055
     23          6           0       -7.438973   -1.232551    0.431491
     24          6           0        7.482619    1.348824   -0.390460
     25          6           0       -7.650676   -2.723255    0.761218
     26          6           0        7.838564    2.879315   -0.489050
     27          6           0       -6.168149   -0.846494    0.121005
     28          6           0        6.236849    0.867673   -0.393904
     29          6           0       -4.813276   -1.467202    0.077068
     30          6           0        5.044230    1.650615   -0.415736
     31          6           0       -3.677716   -0.700385   -0.170172
     32          6           0        3.795843    1.102953   -0.528175
     33          6           0       -2.329885   -1.258192   -0.060900
     34          6           0        2.522151    1.872064   -0.582239
     35          6           0       -2.221885   -2.745809    0.277989
     36          6           0        2.644419    3.471043   -0.727490
     37          6           0       -1.162116   -0.478263   -0.202761
     38          6           0        1.429170    1.156681   -0.437171
     39          6           0       -1.072238    0.977588   -0.327588
     40          6           0        0.044455    1.724324   -0.388155
     41          1           0      -14.065696    0.015931    0.559333
     42          1           0      -14.079227   -0.110962   -1.363909
     43          1           0       12.286570   -1.993559    1.843392
     44          1           0       13.857476   -1.046747    1.878843
     45          1           0      -14.215205    2.385238   -0.528767
     46          1           0      -12.599465    1.862356   -1.592537
     47          1           0       13.978948   -3.046891    0.505379
     48          1           0       13.996506   -1.600924   -0.647621
     49          1           0      -12.761316    2.580417    1.698930
     50          1           0      -11.920437    3.131759    0.443139
     51          1           0       11.531429   -3.401755    0.207111
     52          1           0       12.209138   -3.129187   -1.565443
     53          1           0      -11.725418    0.159193   -2.336488
     54          1           0      -12.605666   -1.223977   -2.564301
     55          1           0      -10.845622   -1.345093   -2.174739
     56          1           0      -12.867975   -1.834930    1.229871
     57          1           0      -11.862401   -2.919527   -0.025984
     58          1           0      -13.732289   -2.434923   -0.260664
     59          1           0       13.646379    0.473167   -0.278966
     60          1           0       13.663138    1.644870    0.960471
     61          1           0       12.429507    1.815886   -0.104088
     62          1           0       11.067211   -0.334390    2.838883
     63          1           0       11.046182    1.458140    2.044696
     64          1           0       12.215142    0.945932    3.108042
     65          1           0      -10.211057   -1.764335    0.722741
     66          1           0       10.220544    1.627053    0.072247
     67          1           0       -9.578472    1.185190    2.592999
     68          1           0      -10.639076    2.648661    2.316309
     69          1           0       -9.178370    2.350260    1.080594
     70          1           0        9.507683   -1.229592   -2.321892
     71          1           0        9.108371   -2.535015   -1.044334
     72          1           0       10.506647   -2.883533   -2.477270
     73          1           0       -8.424371    0.454507    0.265435
     74          1           0        8.168571   -0.723764   -0.024505
     75          1           0       -8.145623   -2.874816    1.776464
     76          1           0       -6.805859   -3.478908    0.888771
     77          1           0       -8.321491   -3.259623   -0.039005
     78          1           0        8.947541    3.108566   -1.191816
     79          1           0        8.231205    3.221459    0.423435
     80          1           0        7.013897    3.459993   -0.635047
     81          1           0       -6.137568    0.203088    0.015247
     82          1           0        5.958109   -0.146724   -0.382944
     83          1           0       -4.719552   -2.540940    0.227085
     84          1           0        5.147691    2.651526   -0.482695
     85          1           0       -3.968716    0.344985   -0.452426
     86          1           0        3.786925    0.126436   -0.451079
     87          1           0       -2.805771   -3.218741    1.198374
     88          1           0       -1.313159   -3.043342    0.224957
     89          1           0       -2.612214   -3.287395   -0.583887
     90          1           0        3.267419    3.654123   -1.702463
     91          1           0        3.331437    3.935269    0.089993
     92          1           0        1.815773    4.058346   -0.793893
     93          1           0       -0.282848   -1.153856   -0.108714
     94          1           0        1.542577    0.035177   -0.121448
     95          1           0       -2.095920    1.512009   -0.463734
     96          1           0       -0.003907    2.852849   -0.808208
 ---------------------------------------------------------------------

 SCF Done:  E(RB3LYP) =  -1557.52555678     A.U. after   15 cycles

 Excitation energies and oscillator strengths:

 Excited State   1:      Singlet-A      2.2549 eV  549.84 nm  f=2.5832  <S**2>=0.000
     147 ->149         0.12383
     148 ->149         0.69558
 This state for optimization and/or second-order correction.
 Total Energy, E(TD-HF/TD-DFT) =  -1557.44269029
 Copying the excited state density for this state as the 1-particle RhoCI density.

 The electronic state is 1-A.
 Alpha  occ. eigenvalues --  -10.21085 -10.21012 -10.20984 -10.20511 -10.20383
 Alpha  occ. eigenvalues --  -10.20168 -10.20155 -10.20070 -10.20041 -10.19923
 Alpha  occ. eigenvalues --  -10.19853 -10.19848 -10.19833 -10.19759 -10.19731
 Alpha  occ. eigenvalues --  -10.19622 -10.19553 -10.19372 -10.19315 -10.19308
 Alpha  occ. eigenvalues --  -10.19221 -10.19215 -10.19114 -10.18990 -10.18920
 Alpha  occ. eigenvalues --  -10.18862 -10.18668 -10.18547 -10.18526 -10.18189
 Alpha  occ. eigenvalues --  -10.18055 -10.17961 -10.17861 -10.17741 -10.17653
 Alpha  occ. eigenvalues --  -10.17257 -10.17022 -10.16184 -10.16135 -10.16012
 Alpha  occ. eigenvalues --   -0.84907  -0.84900  -0.83456  -0.83110  -0.82073
 Alpha  occ. eigenvalues --   -0.81004  -0.78915  -0.78739  -0.78001  -0.77212
 Alpha  occ. eigenvalues --   -0.76226  -0.74529  -0.73847  -0.71894  -0.71416
 Alpha  occ. eigenvalues --   -0.69671  -0.68817  -0.68085  -0.67886  -0.67746
 Alpha  occ. eigenvalues --   -0.67515  -0.67142  -0.66508  -0.66377  -0.66111
 Alpha  occ. eigenvalues --   -0.62686  -0.61866  -0.59613  -0.58695  -0.57403
 Alpha  occ. eigenvalues --   -0.56280  -0.55778  -0.55062  -0.54510  -0.53613
 Alpha  occ. eigenvalues --   -0.53367  -0.52612  -0.50836  -0.49293  -0.48423
 Alpha  occ. eigenvalues --   -0.48320  -0.47455  -0.46907  -0.46474  -0.46002
 Alpha  occ. eigenvalues --   -0.45517  -0.45062  -0.44420  -0.44257  -0.43618
 Alpha  occ. eigenvalues --   -0.43324  -0.43214  -0.42551  -0.42117  -0.41492
 Alpha  occ. eigenvalues --   -0.41160  -0.41004  -0.40933  -0.40487  -0.40320
 Alpha  occ. eigenvalues --   -0.40185  -0.39574  -0.39543  -0.39487  -0.39453
 Alpha  occ. eigenvalues --   -0.39108  -0.38831  -0.38721  -0.38355  -0.38016
 Alpha  occ. eigenvalues --   -0.37946  -0.37450  -0.37049  -0.36896  -0.36786
 Alpha  occ. eigenvalues --   -0.36483  -0.36332  -0.36166  -0.35795  -0.35647
 Alpha  occ. eigenvalues --   -0.35263  -0.34958  -0.34649  -0.34501  -0.33476
 Alpha  occ. eigenvalues --   -0.33400  -0.33076  -0.32803  -0.32752  -0.32577
 Alpha  occ. eigenvalues --   -0.32499  -0.31819  -0.31443  -0.31349  -0.30932
 Alpha  occ. eigenvalues --   -0.30691  -0.30073  -0.29776  -0.29201  -0.28925
 Alpha  occ. eigenvalues --   -0.28114  -0.27254  -0.26708  -0.24184  -0.22572
 Alpha  occ. eigenvalues --   -0.20751  -0.18276  -0.16702
 Alpha virt. eigenvalues --   -0.07861  -0.05214  -0.02217   0.00148   0.01829
 Alpha virt. eigenvalues --    0.03727   0.05945   0.06094   0.06729   0.07220
 Alpha virt. eigenvalues --    0.07429   0.07546   0.07822   0.08464   0.08702

 Mulliken charges:
               1
     1  C    0.006981
     2  C    0.007212
     3  C   -0.154957
     4  C   -0.184129
     5  C   -0.188529
     6  C   -0.205922
     7  C    0.009900
     8  C    0.102879
     9  C   -0.227070
    10  C   -0.223543
    11  C    0.123600
    12  C    0.060776
    13  C   -0.306510
    14  C   -0.309243
    15  C   -0.304266
    16  C   -0.275069
    17  C   -0.117108
    18  C   -0.139679
    19  C   -0.343809
    20  C   -0.337131
    21  C   -0.077272
    22  C   -0.107978
    23  C    0.198343
    24  C    0.104900
    25  C   -0.384924
    26  C   -0.357250
    27  C   -0.168893
    28  C   -0.107215
    29  C   -0.062311
    30  C   -0.058361
    31  C   -0.104200
    32  C   -0.111142
    33  C    0.077621
    34  C    0.139576
    35  C   -0.358742
    36  C   -0.367095
    37  C   -0.110128
    38  C   -0.128924
    39  C   -0.078980
    40  C   -0.108961
    41  H    0.071446
    42  H    0.078804
    43  H    0.104268
    44  H    0.104458
    45  H    0.075743
    46  H    0.098471
    47  H    0.095928
    48  H    0.093577
    49  H    0.054568
    50  H    0.128676
    51  H    0.098495
    52  H    0.078258
    53  H    0.107362
    54  H    0.094600
    55  H    0.098221
    56  H    0.112999
    57  H    0.107981
    58  H    0.079401
    59  H    0.096801
    60  H    0.095676
    61  H    0.101921
    62  H    0.072385
    63  H    0.101482
    64  H    0.077411
    65  H    0.078259
    66  H    0.067001
    67  H    0.120963
    68  H    0.108151
    69  H    0.079583
    70  H    0.128937
    71  H    0.086851
    72  H    0.086871
    73  H    0.054385
    74  H    0.085165
    75  H    0.105843
    76  H    0.096445
    77  H    0.098180
    78  H    0.076959
    79  H    0.136090
    80  H    0.119009
    81  H    0.059605
    82  H    0.070816
    83  H    0.081959
    84  H    0.054060
    85  H    0.087638
    86  H    0.060626
    87  H    0.112585
    88  H    0.109107
    89  H    0.121753
    90  H    0.108948
    91  H    0.113371
    92  H    0.121219
    93  H    0.073772
    94  H    0.082897
    95  H    0.084072
    96  H    0.077502
 Sum of Mulliken charges =  -0.00000

 Dipole moment (field-independent basis, Debye):
    X=             -0.0376    Y=              0.1805    Z=              0.3495  Tot=              0.3952
 Quadrupole moment (field-independent basis, Debye-Ang):
   XX=           -225.4476   YY=           -231.3230   ZZ=           -257.4985
   XY=             -5.3852   XZ=              1.9561   YZ=             -1.4139

 Normal termination of Gaussian 16 at Thu Aug  1 12:32:42 2019.
