 Gaussian 16, Revision A.03,
 Gaussian 16:  ES64L-G16RevA.03 25-Dec-2016

 ---------------------------------
 # td=(NStates=1) B3LYP/6-31G(d,p)
 ---------------------------------

 --
 TD
 --
 Symbolic Z-matrix:
 Charge =  0 Multiplicity = 1

                         Standard orientation:
 ---------------------------------------------------------------------
 Center     Atomic      Atomic             Coordinates (Angstroms)
 Number     Number       Type             X           Y           Z
 ---------------------------------------------------------------------
      1          6           0       12.069282   -0.598638    0.715113
      2          6           0      -12.056116   -0.148415   -0.891234
      3          6           0       13.494491    0.230460    0.541818
      4          6           0      -13.001251   -1.391659   -1.181919
      5          6           0       13.061418    1.716242    0.651016
      6          6           0      -13.377329   -2.040847    0.152091
      7          6           0       11.003718   -0.073125   -0.168490
      8          6           0      -10.984997   -0.467771    0.204741
      9          6           0       12.152744    2.196780   -0.568814
     10          6           0      -12.108807   -2.529652    0.904815
     11          6           0       11.010814    1.181451   -0.828589
     12          6           0      -11.004513   -1.580856    0.954448
     13          6           0       11.690441   -0.650453    2.182720
     14          6           0       12.549488   -2.039185    0.262676
     15          6           0      -12.944117    1.131950   -0.395561
     16          6           0      -11.343524    0.335631   -2.183645
     17          6           0        9.850724   -0.985954   -0.322776
     18          6           0       -9.894539    0.505596    0.264660
     19          6           0       10.011021    1.713886   -1.890606
     20          6           0       -9.817931   -1.900430    1.920912
     21          6           0        8.513112   -0.441707   -0.148505
     22          6           0       -8.535250    0.305539    0.158347
     23          6           0        7.350882   -1.249765   -0.488204
     24          6           0       -7.583673    1.338624    0.276151
     25          6           0        7.583658   -2.839121   -0.645986
     26          6           0       -7.859124    2.803756    0.444420
     27          6           0        6.082888   -0.630851   -0.324761
     28          6           0       -6.299434    0.906799    0.184032
     29          6           0        4.875986   -1.341961   -0.550828
     30          6           0       -5.024479    1.687497    0.439468
     31          6           0        3.681425   -0.702380   -0.332921
     32          6           0       -3.760619    1.140130    0.218858
     33          6           0        2.376801   -1.231279   -0.479039
     34          6           0       -2.480188    1.896913    0.379581
     35          6           0        2.246246   -2.709585   -0.740803
     36          6           0       -2.522975    3.386816    0.731439
     37          6           0        1.198654   -0.488702   -0.282289
     38          6           0       -1.320798    1.199915    0.219690
     39          6           0        1.091004    0.865411    0.087891
     40          6           0       -0.050006    1.739270    0.315578
     41          1           0       13.824440    0.051140   -0.444535
     42          1           0       14.170708   -0.002635    1.378946
     43          1           0      -12.342026   -1.987324   -1.912554
     44          1           0      -13.990632   -1.065672   -1.627397
     45          1           0       13.905375    2.318059    0.864618
     46          1           0       12.478984    1.972223    1.648793
     47          1           0      -13.921383   -2.860622   -0.190649
     48          1           0      -13.836805   -1.254482    0.804596
     49          1           0       12.707542    2.499126   -1.371623
     50          1           0       11.609328    3.163663    0.110344
     51          1           0      -11.753934   -3.544840    0.537091
     52          1           0      -12.229891   -2.925220    1.793410
     53          1           0       11.511269    0.298849    2.590205
     54          1           0       12.531273   -1.217910    2.853084
     55          1           0       10.803581   -1.137648    2.682246
     56          1           0       12.905674   -1.977652   -0.671516
     57          1           0       11.876646   -2.824737    0.553447
     58          1           0       13.335158   -2.213349    1.122871
     59          1           0      -13.719498    1.045871    0.408501
     60          1           0      -13.493007    1.499265   -1.214953
     61          1           0      -12.170737    2.064434   -0.057921
     62          1           0      -10.477488   -0.320620   -2.343246
     63          1           0      -11.060488    1.432323   -2.033435
     64          1           0      -12.246882    0.068786   -3.112977
     65          1           0       10.119428   -2.060987   -0.699515
     66          1           0      -10.259478    1.659695    0.443031
     67          1           0        9.529851    0.885697   -2.278119
     68          1           0       10.672535    2.096357   -2.423123
     69          1           0        9.109109    2.393914   -1.454007
     70          1           0       -9.124394   -1.077935    2.000246
     71          1           0       -9.145817   -2.668708    1.422658
     72          1           0      -10.243137   -2.434515    3.017654
     73          1           0        8.283377    0.475784    0.061174
     74          1           0       -8.026510   -0.502158   -0.204876
     75          1           0        8.010542   -2.840075   -1.615907
     76          1           0        6.622500   -3.305445   -0.647116
     77          1           0        8.090557   -3.315686    0.161214
     78          1           0       -8.407129    3.040953    1.412591
     79          1           0       -8.581176    3.137547   -0.345818
     80          1           0       -6.795183    3.421345    0.609237
     81          1           0        6.280039    0.498419   -0.067513
     82          1           0       -6.096060   -0.060436   -0.112028
     83          1           0        4.763250   -2.407266   -0.861955
     84          1           0       -5.104178    2.594039    0.671254
     85          1           0        3.686908    0.347370   -0.028740
     86          1           0       -3.925624    0.186934   -0.289513
     87          1           0        2.652764   -2.712305   -1.816368
     88          1           0        1.289189   -3.216160   -0.982844
     89          1           0        2.807695   -3.202202    0.132822
     90          1           0       -2.746462    3.452614    1.686938
     91          1           0       -3.044756    3.884103   -0.004239
     92          1           0       -1.422795    3.971178    0.890194
     93          1           0        0.173369   -1.010392   -0.381405
     94          1           0       -1.408449    0.256557   -0.179443
     95          1           0        2.169461    1.370884    0.292053
     96          1           0        0.102592    2.617868    0.511136
 ---------------------------------------------------------------------

 SCF Done:  E(RB3LYP) =  -1557.45630223     A.U. after   16 cycles

 Excitation energies and oscillator strengths:

 Excited State   1:      Singlet-A      2.0022 eV  619.23 nm  f=3.0690  <S**2>=0.000
     148 ->149         0.70825
     148 <-149        -0.13280
 This state for optimization and/or second-order correction.
 Total Energy, E(TD-HF/TD-DFT) =  -1557.38272167
 Copying the excited state density for this state as the 1-particle RhoCI density.

 The electronic state is 1-A.
 Alpha  occ. eigenvalues --  -10.20428 -10.20243 -10.20220 -10.20208 -10.20146
 Alpha  occ. eigenvalues --  -10.20122 -10.20122 -10.20071 -10.20052 -10.20021
 Alpha  occ. eigenvalues --  -10.19911 -10.19640 -10.19604 -10.19445 -10.19442
 Alpha  occ. eigenvalues --  -10.19312 -10.19231 -10.19182 -10.18953 -10.18853
 Alpha  occ. eigenvalues --  -10.18814 -10.18593 -10.18529 -10.18468 -10.18412
 Alpha  occ. eigenvalues --  -10.18302 -10.18153 -10.18065 -10.17993 -10.17944
 Alpha  occ. eigenvalues --  -10.17892 -10.17877 -10.17802 -10.17796 -10.17522
 Alpha  occ. eigenvalues --  -10.17346 -10.17127 -10.16899 -10.16879 -10.16805
 Alpha  occ. eigenvalues --   -0.84423  -0.83924  -0.83387  -0.82975  -0.82219
 Alpha  occ. eigenvalues --   -0.80729  -0.78220  -0.77843  -0.77389  -0.76886
 Alpha  occ. eigenvalues --   -0.76174  -0.74756  -0.73814  -0.71559  -0.71119
 Alpha  occ. eigenvalues --   -0.70605  -0.69180  -0.68436  -0.68174  -0.67647
 Alpha  occ. eigenvalues --   -0.67412  -0.66976  -0.66298  -0.66031  -0.65722
 Alpha  occ. eigenvalues --   -0.62535  -0.61381  -0.59558  -0.58762  -0.57051
 Alpha  occ. eigenvalues --   -0.56617  -0.56351  -0.55177  -0.54663  -0.54244
 Alpha  occ. eigenvalues --   -0.52600  -0.52000  -0.50647  -0.49762  -0.48967
 Alpha  occ. eigenvalues --   -0.47623  -0.47213  -0.46611  -0.46500  -0.46214
 Alpha  occ. eigenvalues --   -0.45820  -0.45563  -0.45055  -0.44581  -0.44265
 Alpha  occ. eigenvalues --   -0.43813  -0.43756  -0.43531  -0.43315  -0.42598
 Alpha  occ. eigenvalues --   -0.42430  -0.42283  -0.41899  -0.41398  -0.41027
 Alpha  occ. eigenvalues --   -0.40688  -0.40437  -0.39652  -0.39497  -0.38790
 Alpha  occ. eigenvalues --   -0.38380  -0.38167  -0.37949  -0.37839  -0.37293
 Alpha  occ. eigenvalues --   -0.37174  -0.37020  -0.36758  -0.36654  -0.36404
 Alpha  occ. eigenvalues --   -0.36208  -0.35796  -0.35654  -0.35052  -0.34946
 Alpha  occ. eigenvalues --   -0.34343  -0.34275  -0.34046  -0.33706  -0.33613
 Alpha  occ. eigenvalues --   -0.33417  -0.33331  -0.33208  -0.32945  -0.32272
 Alpha  occ. eigenvalues --   -0.32212  -0.31954  -0.31722  -0.31164  -0.30937
 Alpha  occ. eigenvalues --   -0.30857  -0.29752  -0.29551  -0.28913  -0.28426
 Alpha  occ. eigenvalues --   -0.27468  -0.26779  -0.25763  -0.23244  -0.22429
 Alpha  occ. eigenvalues --   -0.20655  -0.18663  -0.15644
 Alpha virt. eigenvalues --   -0.08535  -0.04869  -0.02130   0.00791   0.02425
 Alpha virt. eigenvalues --    0.03766   0.05285   0.06416   0.06764   0.07001
 Alpha virt. eigenvalues --    0.07422   0.07615   0.08279   0.08404   0.08476

 Mulliken charges:
               1
     1  C   -0.017925
     2  C    0.012299
     3  C   -0.167683
     4  C   -0.179794
     5  C   -0.197093
     6  C   -0.184746
     7  C    0.070839
     8  C    0.073590
     9  C   -0.208759
    10  C   -0.217209
    11  C    0.018905
    12  C    0.090957
    13  C   -0.296287
    14  C   -0.293435
    15  C   -0.306909
    16  C   -0.278269
    17  C   -0.155379
    18  C   -0.182358
    19  C   -0.312087
    20  C   -0.352804
    21  C   -0.068643
    22  C   -0.073047
    23  C    0.069642
    24  C    0.172027
    25  C   -0.359583
    26  C   -0.376936
    27  C   -0.122481
    28  C   -0.158789
    29  C   -0.099608
    30  C   -0.047089
    31  C   -0.085926
    32  C   -0.123558
    33  C    0.085583
    34  C    0.065574
    35  C   -0.368809
    36  C   -0.357567
    37  C   -0.117581
    38  C   -0.072390
    39  C   -0.104825
    40  C   -0.030122
    41  H    0.099948
    42  H    0.094847
    43  H    0.089632
    44  H    0.087015
    45  H    0.086537
    46  H    0.079084
    47  H    0.100486
    48  H    0.108010
    49  H    0.114127
    50  H    0.067592
    51  H    0.084159
    52  H    0.103561
    53  H    0.110673
    54  H    0.065668
    55  H    0.101594
    56  H    0.107996
    57  H    0.101396
    58  H    0.081012
    59  H    0.096367
    60  H    0.110510
    61  H    0.059640
    62  H    0.111956
    63  H    0.104206
    64  H    0.051199
    65  H    0.102109
    66  H    0.068876
    67  H    0.125367
    68  H    0.114298
    69  H    0.090140
    70  H    0.131770
    71  H    0.105473
    72  H    0.062031
    73  H    0.070071
    74  H    0.082778
    75  H    0.131912
    76  H    0.104438
    77  H    0.130058
    78  H    0.113764
    79  H    0.122678
    80  H    0.091746
    81  H    0.081936
    82  H    0.064501
    83  H    0.101076
    84  H    0.041942
    85  H    0.074882
    86  H    0.080780
    87  H    0.116142
    88  H    0.111545
    89  H    0.121625
    90  H    0.147753
    91  H    0.136131
    92  H    0.072359
    93  H    0.075043
    94  H    0.074005
    95  H    0.055066
    96  H    0.038764
 Sum of Mulliken charges =  -0.00000

 Dipole moment (field-independent basis, Debye):
    X=              1.1620    Y=             -0.5801    Z=             -0.4169  Tot=              1.3640
 Quadrupole moment (field-independent basis, Debye-Ang):
   XX=           -224.5506   YY=           -235.9164   ZZ=           -254.5291
   XY=              3.6311   XZ=             -0.6636   YZ=              4.6742

 Normal termination of Gaussian 16 at Thu Aug  1 23:28:26 2019.
