 Gaussian 16, Revision A.03,
 Gaussian 16:  ES64L-G16RevA.03 25-Dec-2016

 ---------------------------------
 # td=(NStates=1) B3LYP/6-31G(d,p)
 ---------------------------------

 --
 TD
 --
 Symbolic Z-matrix:
 Charge =  0 Multiplicity = 1

                         Standard orientation:
 ---------------------------------------------------------------------
 Center     Atomic      Atomic             Coordinates (Angstroms)
 Number     Number       Type             X           Y           Z
 ---------------------------------------------------------------------
      1          6           0       12.059278    0.450507   -0.800782
      2          6           0      -12.106999   -0.036821    0.888272
      3          6           0       13.315063   -0.292624   -0.696271
      4          6           0      -12.925231    1.108585    1.352215
      5          6           0       13.190923   -1.841257   -0.544924
      6          6           0      -13.239643    2.093230    0.259856
      7          6           0       11.066065    0.048110    0.350476
      8          6           0      -10.954740    0.416835   -0.088502
      9          6           0       12.308477   -2.042094    0.750150
     10          6           0      -12.035284    2.723016   -0.391224
     11          6           0       11.138261   -1.036361    1.071854
     12          6           0      -10.971388    1.605623   -0.700103
     13          6           0       11.505809    0.355635   -2.239492
     14          6           0       12.550764    1.989402   -0.549571
     15          6           0      -12.892965   -1.127221    0.240278
     16          6           0      -11.387552   -0.613175    2.107015
     17          6           0        9.871867    0.902768    0.340906
     18          6           0       -9.988051   -0.628525   -0.376199
     19          6           0       10.254415   -1.586062    2.071440
     20          6           0       -9.970839    2.182531   -1.665727
     21          6           0        8.548425    0.491713    0.331236
     22          6           0       -8.608920   -0.278383   -0.400474
     23          6           0        7.419826    1.365119    0.405609
     24          6           0       -7.517346   -1.334128   -0.657955
     25          6           0        7.587217    2.906943    0.551105
     26          6           0       -7.920670   -2.755334   -0.845891
     27          6           0        6.170709    0.718714    0.321525
     28          6           0       -6.245172   -0.915636   -0.514446
     29          6           0        4.916142    1.361442    0.463470
     30          6           0       -5.023627   -1.637881   -0.537922
     31          6           0        3.654301    0.720508    0.427952
     32          6           0       -3.770338   -1.072081   -0.381235
     33          6           0        2.296918    1.206052    0.305995
     34          6           0       -2.565321   -1.853362   -0.337546
     35          6           0        2.048397    2.630986    0.330635
     36          6           0       -2.665878   -3.350003   -0.649286
     37          6           0        1.223011    0.413215    0.145582
     38          6           0       -1.377464   -1.164174   -0.209989
     39          6           0        1.192859   -1.016299   -0.055773
     40          6           0        0.014516   -1.699201   -0.164759
     41          1           0       13.864685    0.128736    0.184458
     42          1           0       14.050793    0.202332   -1.449114
     43          1           0      -12.385154    1.606441    2.160743
     44          1           0      -13.852574    1.036159    1.753825
     45          1           0       14.018665   -2.411510   -0.328287
     46          1           0       12.787011   -2.154663   -1.465961
     47          1           0      -13.812717    2.946158    0.461615
     48          1           0      -13.943653    1.467656   -0.326857
     49          1           0       13.027930   -1.861598    1.545417
     50          1           0       12.013966   -2.911797    0.771880
     51          1           0      -11.861602    3.418255    0.271520
     52          1           0      -12.407462    3.201168   -1.287682
     53          1           0       11.320422   -0.621546   -2.527687
     54          1           0       12.242690    0.813511   -3.026878
     55          1           0       10.538940    0.932785   -2.270950
     56          1           0       12.896576    2.019408    0.457878
     57          1           0       11.497773    2.421368   -0.697329
     58          1           0       13.208710    2.535592   -1.367282
     59          1           0      -13.537022   -0.875610   -0.691246
     60          1           0      -13.809188   -0.979477    1.133820
     61          1           0      -12.634564   -2.127254   -0.041580
     62          1           0      -10.957376    0.244746    2.725532
     63          1           0      -10.652363   -1.442258    1.979681
     64          1           0      -12.106041   -1.043809    2.795817
     65          1           0       10.165359    2.174773    0.426872
     66          1           0      -10.288000   -1.642372   -0.390413
     67          1           0        9.732837   -0.740448    2.619550
     68          1           0       10.780429   -2.007894    2.891995
     69          1           0        9.440423   -2.234613    1.726567
     70          1           0       -9.390512    1.381151   -2.182858
     71          1           0       -8.991351    2.776426   -1.377556
     72          1           0      -10.493316    2.934961   -2.454087
     73          1           0        8.486640   -0.486258    0.274397
     74          1           0       -8.371836    0.737691   -0.256185
     75          1           0        8.145161    3.162609    1.492123
     76          1           0        6.600019    3.424760    0.458749
     77          1           0        8.388137    3.288610   -0.148455
     78          1           0       -8.608481   -2.814304   -1.789401
     79          1           0       -8.414874   -3.317926    0.096246
     80          1           0       -7.201564   -3.426855   -0.766225
     81          1           0        6.278506   -0.275613    0.378817
     82          1           0       -6.218153    0.339668   -0.445610
     83          1           0        5.001887    2.417194    0.625083
     84          1           0       -4.936207   -2.797337   -0.637924
     85          1           0        3.729073   -0.265252    0.637405
     86          1           0       -3.535448   -0.039947   -0.329557
     87          1           0        2.471485    3.123204    1.314806
     88          1           0        1.086486    2.850254    0.063041
     89          1           0        2.561832    3.250967   -0.432246
     90          1           0       -3.107615   -3.517920   -1.593916
     91          1           0       -3.386832   -3.774453    0.040346
     92          1           0       -1.590328   -3.862726   -0.505192
     93          1           0        0.186480    0.801590    0.264034
     94          1           0       -1.332612   -0.113734    0.017130
     95          1           0        2.216539   -1.575077   -0.058159
     96          1           0        0.092489   -2.777817   -0.165717
 ---------------------------------------------------------------------

 SCF Done:  E(RB3LYP) =  -1557.55481864     A.U. after   16 cycles

 Excitation energies and oscillator strengths:

 Excited State   1:      Singlet-A      2.1787 eV  569.06 nm  f=2.9684  <S**2>=0.000
     148 ->149         0.70872
 This state for optimization and/or second-order correction.
 Total Energy, E(TD-HF/TD-DFT) =  -1557.47475133
 Copying the excited state density for this state as the 1-particle RhoCI density.

 The electronic state is 1-A.
 Alpha  occ. eigenvalues --  -10.20711 -10.20330 -10.20258 -10.20194 -10.20173
 Alpha  occ. eigenvalues --  -10.20046 -10.19999 -10.19751 -10.19742 -10.19613
 Alpha  occ. eigenvalues --  -10.19386 -10.19356 -10.19322 -10.19279 -10.19270
 Alpha  occ. eigenvalues --  -10.19197 -10.19151 -10.19066 -10.18801 -10.18798
 Alpha  occ. eigenvalues --  -10.18753 -10.18711 -10.18601 -10.18570 -10.18342
 Alpha  occ. eigenvalues --  -10.18263 -10.18171 -10.18148 -10.18096 -10.18005
 Alpha  occ. eigenvalues --  -10.17913 -10.17508 -10.17341 -10.17245 -10.17144
 Alpha  occ. eigenvalues --  -10.17039 -10.16491 -10.16233 -10.16201 -10.16129
 Alpha  occ. eigenvalues --   -0.85602  -0.85114  -0.83692  -0.83054  -0.82116
 Alpha  occ. eigenvalues --   -0.81318  -0.79157  -0.78677  -0.78501  -0.77898
 Alpha  occ. eigenvalues --   -0.77107  -0.75164  -0.74122  -0.71943  -0.71710
 Alpha  occ. eigenvalues --   -0.70125  -0.69134  -0.68931  -0.68466  -0.68192
 Alpha  occ. eigenvalues --   -0.67642  -0.67625  -0.67367  -0.66556  -0.66152
 Alpha  occ. eigenvalues --   -0.63198  -0.62037  -0.60350  -0.59155  -0.57517
 Alpha  occ. eigenvalues --   -0.57225  -0.55916  -0.55195  -0.54434  -0.53631
 Alpha  occ. eigenvalues --   -0.52924  -0.52289  -0.51099  -0.50659  -0.49004
 Alpha  occ. eigenvalues --   -0.48738  -0.48041  -0.47791  -0.47229  -0.46682
 Alpha  occ. eigenvalues --   -0.45756  -0.45605  -0.45070  -0.44673  -0.44603
 Alpha  occ. eigenvalues --   -0.44166  -0.43751  -0.43165  -0.42998  -0.42523
 Alpha  occ. eigenvalues --   -0.42051  -0.41703  -0.41392  -0.41286  -0.40820
 Alpha  occ. eigenvalues --   -0.40688  -0.40281  -0.39999  -0.39640  -0.39214
 Alpha  occ. eigenvalues --   -0.38992  -0.38977  -0.38663  -0.38286  -0.38096
 Alpha  occ. eigenvalues --   -0.37984  -0.37702  -0.37587  -0.36917  -0.36784
 Alpha  occ. eigenvalues --   -0.36582  -0.36352  -0.35980  -0.35774  -0.35471
 Alpha  occ. eigenvalues --   -0.35171  -0.34679  -0.34574  -0.34101  -0.33848
 Alpha  occ. eigenvalues --   -0.33489  -0.33283  -0.33142  -0.32966  -0.32608
 Alpha  occ. eigenvalues --   -0.31946  -0.31500  -0.31355  -0.31047  -0.30698
 Alpha  occ. eigenvalues --   -0.29977  -0.29974  -0.29320  -0.28836  -0.27947
 Alpha  occ. eigenvalues --   -0.27770  -0.26935  -0.25724  -0.24280  -0.23177
 Alpha  occ. eigenvalues --   -0.21520  -0.18796  -0.16547
 Alpha virt. eigenvalues --   -0.08247  -0.05649  -0.01724   0.00601   0.02556
 Alpha virt. eigenvalues --    0.04272   0.05727   0.06483   0.06751   0.07071
 Alpha virt. eigenvalues --    0.07348   0.08257   0.08597   0.08828   0.09030

 Mulliken charges:
               1
     1  C   -0.007612
     2  C    0.003139
     3  C   -0.158912
     4  C   -0.182630
     5  C   -0.199296
     6  C   -0.207814
     7  C    0.077164
     8  C    0.087604
     9  C   -0.209697
    10  C   -0.200441
    11  C    0.064275
    12  C    0.061896
    13  C   -0.291215
    14  C   -0.302707
    15  C   -0.283210
    16  C   -0.297329
    17  C   -0.149582
    18  C   -0.130614
    19  C   -0.387383
    20  C   -0.369484
    21  C   -0.076256
    22  C   -0.105946
    23  C    0.118002
    24  C    0.121001
    25  C   -0.376506
    26  C   -0.355696
    27  C   -0.095713
    28  C   -0.113438
    29  C   -0.088993
    30  C   -0.113028
    31  C   -0.123236
    32  C   -0.073507
    33  C    0.157606
    34  C    0.123187
    35  C   -0.378708
    36  C   -0.382027
    37  C   -0.145001
    38  C   -0.124268
    39  C   -0.077206
    40  C   -0.106951
    41  H    0.072049
    42  H    0.063447
    43  H    0.083824
    44  H    0.102881
    45  H    0.099199
    46  H    0.099761
    47  H    0.080339
    48  H    0.084983
    49  H    0.105660
    50  H    0.097466
    51  H    0.118676
    52  H    0.095849
    53  H    0.110065
    54  H    0.087454
    55  H    0.099811
    56  H    0.111117
    57  H    0.088309
    58  H    0.091377
    59  H    0.093878
    60  H    0.058555
    61  H    0.115392
    62  H    0.094421
    63  H    0.103350
    64  H    0.093951
    65  H    0.052520
    66  H    0.090272
    67  H    0.111557
    68  H    0.115344
    69  H    0.124432
    70  H    0.111315
    71  H    0.095832
    72  H    0.078721
    73  H    0.071591
    74  H    0.095235
    75  H    0.124903
    76  H    0.111675
    77  H    0.118791
    78  H    0.115869
    79  H    0.086995
    80  H    0.117398
    81  H    0.069409
    82  H    0.059458
    83  H    0.072890
    84  H    0.074261
    85  H    0.072280
    86  H    0.078377
    87  H    0.098322
    88  H    0.113148
    89  H    0.113744
    90  H    0.140006
    91  H    0.126035
    92  H    0.096942
    93  H    0.080293
    94  H    0.075058
    95  H    0.084534
    96  H    0.071520
 Sum of Mulliken charges =  -0.00000

 Dipole moment (field-independent basis, Debye):
    X=              0.3616    Y=             -1.0113    Z=              0.8437  Tot=              1.3657
 Quadrupole moment (field-independent basis, Debye-Ang):
   XX=           -230.8492   YY=           -231.7336   ZZ=           -255.7086
   XY=             -4.0861   XZ=              3.1432   YZ=              0.9443

 Normal termination of Gaussian 16 at Mon Jul 29 03:05:28 2019.
