 Gaussian 16, Revision A.03,
 Gaussian 16:  ES64L-G16RevA.03 25-Dec-2016

 ---------------------------------
 # td=(NStates=1) B3LYP/6-31G(d,p)
 ---------------------------------

 --
 TD
 --
 Symbolic Z-matrix:
 Charge =  0 Multiplicity = 1

                         Standard orientation:
 ---------------------------------------------------------------------
 Center     Atomic      Atomic             Coordinates (Angstroms)
 Number     Number       Type             X           Y           Z
 ---------------------------------------------------------------------
      1          6           0       12.114808    0.583380   -0.714612
      2          6           0      -12.186132    0.065259    0.803290
      3          6           0       13.379363   -0.190096   -0.789848
      4          6           0      -13.120659    1.258131    1.202679
      5          6           0       13.088174   -1.776657   -0.760298
      6          6           0      -13.278884    2.068171    0.011627
      7          6           0       11.124135    0.051977    0.287747
      8          6           0      -11.011562    0.446535   -0.166188
      9          6           0       12.475807   -2.058877    0.654144
     10          6           0      -12.066683    2.770689   -0.624792
     11          6           0       11.302501   -1.203577    0.916740
     12          6           0      -10.955308    1.664744   -0.758876
     13          6           0       11.410901    0.591989   -2.197446
     14          6           0       12.383355    2.064427   -0.396841
     15          6           0      -12.947842   -1.119098    0.233556
     16          6           0      -11.502165   -0.524780    2.086523
     17          6           0        9.873318    0.931981    0.434536
     18          6           0       -9.986003   -0.591168   -0.236599
     19          6           0       10.386916   -1.652325    1.976584
     20          6           0       -9.884140    2.065895   -1.757456
     21          6           0        8.621497    0.507384    0.264122
     22          6           0       -8.580014   -0.384404   -0.212056
     23          6           0        7.409986    1.243260    0.483278
     24          6           0       -7.603458   -1.326793   -0.235469
     25          6           0        7.563234    2.780485    0.681348
     26          6           0       -7.946195   -2.803829   -0.497859
     27          6           0        6.149626    0.661060    0.399326
     28          6           0       -6.285518   -0.969264   -0.276458
     29          6           0        4.903879    1.349385    0.469365
     30          6           0       -5.053038   -1.711094   -0.410062
     31          6           0        3.781270    0.651632    0.212157
     32          6           0       -3.848698   -1.188783   -0.296961
     33          6           0        2.391064    1.224202    0.292882
     34          6           0       -2.607437   -1.934005   -0.388938
     35          6           0        2.275225    2.719127    0.577193
     36          6           0       -2.516994   -3.376898   -0.639947
     37          6           0        1.254301    0.426689    0.245468
     38          6           0       -1.407632   -1.134654   -0.308451
     39          6           0        1.141635   -0.943313   -0.176884
     40          6           0       -0.000147   -1.624530   -0.407817
     41          1           0       14.027969   -0.143796    0.241827
     42          1           0       14.055503   -0.041502   -1.737238
     43          1           0      -12.674684    1.744425    2.072203
     44          1           0      -14.073809    1.048682    1.628977
     45          1           0       14.133757   -2.391144   -0.919078
     46          1           0       12.498608   -2.081259   -1.502414
     47          1           0      -14.169556    2.818205    0.194479
     48          1           0      -13.784204    1.462609   -0.589350
     49          1           0       13.221075   -1.985035    1.531338
     50          1           0       12.036637   -3.037798    0.826253
     51          1           0      -11.782659    3.805144   -0.119239
     52          1           0      -12.089493    3.059797   -1.704579
     53          1           0       11.502971   -0.521639   -2.588161
     54          1           0       11.930891    1.164281   -2.968278
     55          1           0       10.449839    0.952881   -2.200480
     56          1           0       12.720570    2.245182    0.693624
     57          1           0       11.462244    2.875383   -0.600083
     58          1           0       13.232299    2.283252   -0.936188
     59          1           0      -13.693638   -0.775073   -0.587391
     60          1           0      -13.630738   -1.584937    0.946507
     61          1           0      -12.533215   -2.145662   -0.050412
     62          1           0      -10.666829    0.111212    2.439657
     63          1           0      -11.296800   -1.594887    1.893391
     64          1           0      -12.351168   -0.377562    2.955680
     65          1           0       10.148173    1.944721    0.806974
     66          1           0      -10.468008   -1.506962   -0.220618
     67          1           0        9.617232   -0.941200    2.625230
     68          1           0       10.984811   -2.008687    3.005689
     69          1           0        9.539034   -2.435753    1.568241
     70          1           0       -9.492776    1.003547   -1.932368
     71          1           0       -8.960616    2.633012   -1.259589
     72          1           0      -10.277660    2.601080   -2.512739
     73          1           0        8.358456   -0.513041    0.156951
     74          1           0       -8.424286    0.659701   -0.177187
     75          1           0        8.383429    2.969563    1.382498
     76          1           0        6.336970    3.192034    1.151218
     77          1           0        7.915703    3.460999   -0.319733
     78          1           0       -8.494510   -2.934375   -1.496367
     79          1           0       -8.597067   -3.150493    0.200701
     80          1           0       -6.940563   -3.218983   -0.854444
     81          1           0        6.222931   -0.413295    0.008239
     82          1           0       -6.100580    0.111421   -0.130187
     83          1           0        4.975905    2.297435    0.670751
     84          1           0       -5.197400   -2.658057   -0.709529
     85          1           0        3.830541   -0.472338    0.102169
     86          1           0       -3.738614   -0.018649   -0.111367
     87          1           0        2.893625    2.983446    1.539638
     88          1           0        1.324648    2.906341    0.795668
     89          1           0        2.771520    3.286744   -0.193301
     90          1           0       -2.969279   -3.524654   -1.706172
     91          1           0       -3.236931   -3.900854    0.126337
     92          1           0       -1.506996   -3.785230   -0.488470
     93          1           0        0.297341    1.050312    0.338726
     94          1           0       -1.464938    0.002392   -0.002697
     95          1           0        2.041240   -1.449291   -0.466846
     96          1           0        0.248201   -2.735167   -0.690718
 ---------------------------------------------------------------------

 SCF Done:  E(RB3LYP) =  -1557.55425004     A.U. after   16 cycles

 Excitation energies and oscillator strengths:

 Excited State   1:      Singlet-A      2.2278 eV  556.54 nm  f=2.9279  <S**2>=0.000
     148 ->149         0.70529
 This state for optimization and/or second-order correction.
 Total Energy, E(TD-HF/TD-DFT) =  -1557.47238144
 Copying the excited state density for this state as the 1-particle RhoCI density.

 The electronic state is 1-A.
 Alpha  occ. eigenvalues --  -10.22087 -10.21046 -10.21038 -10.20891 -10.20663
 Alpha  occ. eigenvalues --  -10.20385 -10.20194 -10.20169 -10.20133 -10.20123
 Alpha  occ. eigenvalues --  -10.20091 -10.19751 -10.19642 -10.19561 -10.19557
 Alpha  occ. eigenvalues --  -10.19460 -10.19410 -10.19225 -10.19174 -10.19164
 Alpha  occ. eigenvalues --  -10.19102 -10.18977 -10.18933 -10.18714 -10.18639
 Alpha  occ. eigenvalues --  -10.18456 -10.18342 -10.18316 -10.18194 -10.18193
 Alpha  occ. eigenvalues --  -10.18185 -10.18154 -10.18144 -10.18127 -10.18116
 Alpha  occ. eigenvalues --  -10.17888 -10.17475 -10.17375 -10.17365 -10.17030
 Alpha  occ. eigenvalues --   -0.84925  -0.84769  -0.83685  -0.83257  -0.82123
 Alpha  occ. eigenvalues --   -0.81378  -0.79193  -0.78508  -0.78207  -0.77655
 Alpha  occ. eigenvalues --   -0.76907  -0.75504  -0.74419  -0.72006  -0.71267
 Alpha  occ. eigenvalues --   -0.69610  -0.68685  -0.67783  -0.67405  -0.67382
 Alpha  occ. eigenvalues --   -0.66906  -0.66615  -0.66504  -0.66079  -0.65778
 Alpha  occ. eigenvalues --   -0.62966  -0.62267  -0.60025  -0.59508  -0.57851
 Alpha  occ. eigenvalues --   -0.56623  -0.55998  -0.55101  -0.54898  -0.53902
 Alpha  occ. eigenvalues --   -0.53224  -0.51793  -0.50364  -0.49496  -0.49131
 Alpha  occ. eigenvalues --   -0.48029  -0.47469  -0.46733  -0.46567  -0.46272
 Alpha  occ. eigenvalues --   -0.45617  -0.44970  -0.44589  -0.43957  -0.43633
 Alpha  occ. eigenvalues --   -0.43583  -0.43016  -0.42790  -0.42426  -0.42301
 Alpha  occ. eigenvalues --   -0.41785  -0.41616  -0.41394  -0.41034  -0.40914
 Alpha  occ. eigenvalues --   -0.40872  -0.40210  -0.39585  -0.39488  -0.39445
 Alpha  occ. eigenvalues --   -0.39147  -0.39080  -0.38800  -0.38646  -0.38077
 Alpha  occ. eigenvalues --   -0.37815  -0.37214  -0.36880  -0.36531  -0.36228
 Alpha  occ. eigenvalues --   -0.36153  -0.36021  -0.35481  -0.35397  -0.35373
 Alpha  occ. eigenvalues --   -0.35191  -0.35034  -0.34661  -0.34298  -0.34044
 Alpha  occ. eigenvalues --   -0.33512  -0.33412  -0.33263  -0.32565  -0.32285
 Alpha  occ. eigenvalues --   -0.31790  -0.31598  -0.31424  -0.31151  -0.30625
 Alpha  occ. eigenvalues --   -0.30170  -0.30020  -0.29913  -0.29553  -0.29259
 Alpha  occ. eigenvalues --   -0.28456  -0.27286  -0.26008  -0.23993  -0.22279
 Alpha  occ. eigenvalues --   -0.21056  -0.18924  -0.16768
 Alpha virt. eigenvalues --   -0.08207  -0.05542  -0.02286   0.00305   0.02089
 Alpha virt. eigenvalues --    0.04089   0.04995   0.05897   0.06802   0.07359
 Alpha virt. eigenvalues --    0.07480   0.07758   0.07935   0.07993   0.08784

 Mulliken charges:
               1
     1  C    0.036560
     2  C   -0.003446
     3  C   -0.189269
     4  C   -0.173136
     5  C   -0.181219
     6  C   -0.183013
     7  C    0.048667
     8  C    0.104354
     9  C   -0.226110
    10  C   -0.200240
    11  C    0.091465
    12  C    0.019371
    13  C   -0.308370
    14  C   -0.295967
    15  C   -0.316504
    16  C   -0.289384
    17  C   -0.146267
    18  C   -0.148059
    19  C   -0.352694
    20  C   -0.357494
    21  C   -0.056470
    22  C   -0.091416
    23  C    0.108468
    24  C    0.125661
    25  C   -0.332012
    26  C   -0.363969
    27  C   -0.132491
    28  C   -0.137656
    29  C   -0.019228
    30  C   -0.063003
    31  C   -0.111769
    32  C   -0.094130
    33  C    0.084413
    34  C    0.118639
    35  C   -0.356916
    36  C   -0.365940
    37  C   -0.125388
    38  C   -0.126324
    39  C   -0.076217
    40  C   -0.100963
    41  H    0.078787
    42  H    0.086829
    43  H    0.092278
    44  H    0.101541
    45  H    0.062547
    46  H    0.117662
    47  H    0.051316
    48  H    0.118299
    49  H    0.100875
    50  H    0.104217
    51  H    0.091720
    52  H    0.095646
    53  H    0.077553
    54  H    0.097408
    55  H    0.121705
    56  H    0.086852
    57  H    0.077773
    58  H    0.110846
    59  H    0.086680
    60  H    0.099965
    61  H    0.098506
    62  H    0.111520
    63  H    0.097961
    64  H    0.063005
    65  H    0.096074
    66  H    0.070440
    67  H    0.100718
    68  H    0.078611
    69  H    0.092814
    70  H    0.118012
    71  H    0.091352
    72  H    0.106848
    73  H    0.075199
    74  H    0.089538
    75  H    0.122720
    76  H    0.050350
    77  H    0.095310
    78  H    0.107570
    79  H    0.130090
    80  H    0.103143
    81  H    0.072169
    82  H    0.063723
    83  H    0.062946
    84  H    0.070388
    85  H    0.081986
    86  H    0.076423
    87  H    0.099501
    88  H    0.114921
    89  H    0.129880
    90  H    0.118137
    91  H    0.110270
    92  H    0.122428
    93  H    0.069413
    94  H    0.078526
    95  H    0.085892
    96  H    0.070583
 Sum of Mulliken charges =  -0.00000

 Dipole moment (field-independent basis, Debye):
    X=              0.4916    Y=             -0.3594    Z=             -0.2461  Tot=              0.6569
 Quadrupole moment (field-independent basis, Debye-Ang):
   XX=           -226.9897   YY=           -237.7298   ZZ=           -256.1223
   XY=              2.4376   XZ=             -2.0357   YZ=              2.9038

 Normal termination of Gaussian 16 at Wed Jul 31 13:12:44 2019.
