 Gaussian 16, Revision A.03,
 Gaussian 16:  ES64L-G16RevA.03 25-Dec-2016

 ---------------------------------
 # td=(NStates=1) B3LYP/6-31G(d,p)
 ---------------------------------

 --
 TD
 --
 Symbolic Z-matrix:
 Charge =  0 Multiplicity = 1

                         Standard orientation:
 ---------------------------------------------------------------------
 Center     Atomic      Atomic             Coordinates (Angstroms)
 Number     Number       Type             X           Y           Z
 ---------------------------------------------------------------------
      1          6           0       12.230741    0.498542   -0.841378
      2          6           0      -12.152674   -0.132971    0.736281
      3          6           0       13.413565   -0.376125   -0.732208
      4          6           0      -13.077939    1.049789    1.269845
      5          6           0       13.119581   -1.944161   -0.652043
      6          6           0      -13.530881    1.966074    0.041999
      7          6           0       11.057245    0.022662    0.148908
      8          6           0      -11.010090    0.454829   -0.053693
      9          6           0       12.198274   -2.263182    0.585739
     10          6           0      -12.199215    2.631199   -0.573060
     11          6           0       11.151185   -1.216103    0.829180
     12          6           0      -11.031018    1.664080   -0.639584
     13          6           0       11.609358    0.456911   -2.271836
     14          6           0       12.597221    2.000750   -0.473754
     15          6           0      -13.052325   -1.229915   -0.079591
     16          6           0      -11.718071   -0.871192    2.068874
     17          6           0        9.976266    0.865573    0.360824
     18          6           0       -9.965118   -0.523424   -0.334393
     19          6           0       10.182920   -1.689325    1.809374
     20          6           0       -9.949233    2.085333   -1.525908
     21          6           0        8.666047    0.510963    0.487442
     22          6           0       -8.630926   -0.280226   -0.105921
     23          6           0        7.436146    1.394658    0.508050
     24          6           0       -7.448339   -1.240131   -0.524529
     25          6           0        7.757725    2.848697    0.775084
     26          6           0       -7.904459   -2.563420   -0.832039
     27          6           0        6.213472    0.880050    0.431972
     28          6           0       -6.110107   -0.729560   -0.468330
     29          6           0        4.890906    1.498272    0.461461
     30          6           0       -5.031530   -1.552536   -0.655963
     31          6           0        3.732786    0.653944    0.329954
     32          6           0       -3.769655   -1.069476   -0.272880
     33          6           0        2.431074    1.292336    0.279206
     34          6           0       -2.509146   -1.781926   -0.212231
     35          6           0        2.349868    2.798835    0.540070
     36          6           0       -2.630922   -3.318639   -0.356737
     37          6           0        1.298324    0.574601    0.273950
     38          6           0       -1.300858   -1.150871   -0.110776
     39          6           0        1.145507   -0.801056    0.071430
     40          6           0        0.014152   -1.609615   -0.069305
     41          1           0       13.828068   -0.062813    0.271959
     42          1           0       14.238880   -0.270284   -1.537271
     43          1           0      -12.690491    1.653228    2.192494
     44          1           0      -14.211390    0.625303    1.513379
     45          1           0       14.095719   -2.472649   -0.447747
     46          1           0       12.676262   -2.527659   -1.445059
     47          1           0      -14.295664    2.769290    0.232383
     48          1           0      -14.042858    1.370663   -0.576457
     49          1           0       12.752352   -1.931766    1.697281
     50          1           0       11.919892   -3.213265    0.502614
     51          1           0      -11.923683    3.538586    0.200141
     52          1           0      -12.508332    2.987322   -1.525421
     53          1           0       11.217259   -0.627911   -2.526524
     54          1           0       12.321669    0.780922   -2.992445
     55          1           0       10.874263    1.137796   -2.553905
     56          1           0       13.281918    2.210269    0.561076
     57          1           0       11.746374    2.619094   -0.411232
     58          1           0       13.210688    2.224603   -1.403767
     59          1           0      -13.289308   -0.824259   -1.162968
     60          1           0      -13.871063   -1.645678    0.480132
     61          1           0      -12.565604   -2.224301   -0.346222
     62          1           0      -11.172475   -0.135822    2.766358
     63          1           0      -11.067256   -1.707366    1.693527
     64          1           0      -12.634124   -1.198568    2.553619
     65          1           0       10.157459    2.020722    0.358274
     66          1           0      -10.234096   -1.629506   -0.422267
     67          1           0        9.620903   -0.857859    2.566526
     68          1           0       10.554261   -2.511177    2.590465
     69          1           0        9.410756   -2.226796    1.291786
     70          1           0       -9.385495    1.424697   -2.189578
     71          1           0       -9.322015    2.936704   -1.147795
     72          1           0      -10.371240    2.876903   -2.243199
     73          1           0        8.262518   -0.583687    0.216383
     74          1           0       -8.262176    0.853424    0.302898
     75          1           0        8.094989    3.086523    1.794267
     76          1           0        6.737374    3.273874    0.724931
     77          1           0        8.282958    3.379712   -0.042704
     78          1           0       -8.875198   -2.528176   -1.548898
     79          1           0       -8.215753   -3.026394    0.229217
     80          1           0       -7.138066   -3.486926   -1.422862
     81          1           0        6.122780   -0.147855    0.267936
     82          1           0       -6.062068    0.338677   -0.261256
     83          1           0        4.780726    2.556297    0.331688
     84          1           0       -5.240358   -2.664600   -0.864837
     85          1           0        3.927940   -0.404489    0.497029
     86          1           0       -3.811866   -0.006584   -0.128784
     87          1           0        2.633381    3.170962    1.568991
     88          1           0        1.268288    3.037457    0.487781
     89          1           0        2.973449    3.317128   -0.413148
     90          1           0       -2.718534   -3.199872   -1.645915
     91          1           0       -3.431604   -3.749984    0.325283
     92          1           0       -1.626004   -4.020599   -0.255280
     93          1           0        0.294225    1.105682    0.356404
     94          1           0       -1.341368   -0.098719   -0.347087
     95          1           0        2.056612   -1.441733    0.046381
     96          1           0        0.266968   -2.694012   -0.099494
 ---------------------------------------------------------------------

 SCF Done:  E(RB3LYP) =  -1557.54366289     A.U. after   16 cycles

 Excitation energies and oscillator strengths:

 Excited State   1:      Singlet-A      2.0574 eV  602.64 nm  f=3.0191  <S**2>=0.000
     147 ->149        -0.10109
     148 ->149         0.70176
     148 <-149        -0.10966
 This state for optimization and/or second-order correction.
 Total Energy, E(TD-HF/TD-DFT) =  -1557.46805657
 Copying the excited state density for this state as the 1-particle RhoCI density.

 The electronic state is 1-A.
 Alpha  occ. eigenvalues --  -10.22187 -10.21797 -10.21071 -10.21002 -10.20861
 Alpha  occ. eigenvalues --  -10.20716 -10.20359 -10.20151 -10.19950 -10.19827
 Alpha  occ. eigenvalues --  -10.19483 -10.19474 -10.19438 -10.19437 -10.19329
 Alpha  occ. eigenvalues --  -10.19309 -10.19267 -10.19261 -10.19172 -10.19159
 Alpha  occ. eigenvalues --  -10.19083 -10.19057 -10.19050 -10.19028 -10.18904
 Alpha  occ. eigenvalues --  -10.18903 -10.18878 -10.18855 -10.18633 -10.18547
 Alpha  occ. eigenvalues --  -10.18463 -10.18364 -10.18203 -10.17872 -10.17866
 Alpha  occ. eigenvalues --  -10.17726 -10.17712 -10.17704 -10.17550 -10.16993
 Alpha  occ. eigenvalues --   -0.84461  -0.84383  -0.83312  -0.82662  -0.81530
 Alpha  occ. eigenvalues --   -0.80722  -0.78815  -0.78180  -0.77721  -0.77242
 Alpha  occ. eigenvalues --   -0.76260  -0.74695  -0.73577  -0.71724  -0.71409
 Alpha  occ. eigenvalues --   -0.69516  -0.67960  -0.67771  -0.67358  -0.66911
 Alpha  occ. eigenvalues --   -0.66843  -0.66582  -0.66420  -0.65652  -0.65423
 Alpha  occ. eigenvalues --   -0.62099  -0.61177  -0.59751  -0.58852  -0.57286
 Alpha  occ. eigenvalues --   -0.56106  -0.55550  -0.54584  -0.53707  -0.53068
 Alpha  occ. eigenvalues --   -0.52245  -0.50893  -0.49187  -0.48491  -0.48266
 Alpha  occ. eigenvalues --   -0.47819  -0.47482  -0.46650  -0.46104  -0.45890
 Alpha  occ. eigenvalues --   -0.44783  -0.44532  -0.44373  -0.44308  -0.43646
 Alpha  occ. eigenvalues --   -0.43240  -0.42520  -0.42166  -0.41987  -0.41869
 Alpha  occ. eigenvalues --   -0.41590  -0.41401  -0.41276  -0.40849  -0.40756
 Alpha  occ. eigenvalues --   -0.40708  -0.40347  -0.39967  -0.39448  -0.39101
 Alpha  occ. eigenvalues --   -0.38848  -0.38323  -0.38100  -0.37892  -0.37556
 Alpha  occ. eigenvalues --   -0.37216  -0.37056  -0.36898  -0.36233  -0.36048
 Alpha  occ. eigenvalues --   -0.35906  -0.35821  -0.35393  -0.35011  -0.34784
 Alpha  occ. eigenvalues --   -0.34537  -0.34495  -0.34137  -0.33719  -0.33700
 Alpha  occ. eigenvalues --   -0.33074  -0.32684  -0.32466  -0.32459  -0.32367
 Alpha  occ. eigenvalues --   -0.31716  -0.31491  -0.31404  -0.31359  -0.30829
 Alpha  occ. eigenvalues --   -0.30750  -0.29638  -0.29287  -0.29104  -0.28151
 Alpha  occ. eigenvalues --   -0.28015  -0.27087  -0.26491  -0.23817  -0.22196
 Alpha  occ. eigenvalues --   -0.20489  -0.18236  -0.15906
 Alpha virt. eigenvalues --   -0.08280  -0.05005  -0.01944   0.00162   0.01887
 Alpha virt. eigenvalues --    0.04464   0.05772   0.05918   0.06469   0.07136
 Alpha virt. eigenvalues --    0.07155   0.07279   0.07700   0.08130   0.08247

 Mulliken charges:
               1
     1  C    0.003540
     2  C   -0.017120
     3  C   -0.167947
     4  C   -0.174379
     5  C   -0.202877
     6  C   -0.194422
     7  C    0.084496
     8  C    0.094312
     9  C   -0.190085
    10  C   -0.220597
    11  C    0.066638
    12  C    0.107047
    13  C   -0.299903
    14  C   -0.294487
    15  C   -0.314639
    16  C   -0.285478
    17  C   -0.134665
    18  C   -0.154914
    19  C   -0.353082
    20  C   -0.377992
    21  C   -0.095014
    22  C   -0.096368
    23  C    0.106505
    24  C    0.110805
    25  C   -0.380081
    26  C   -0.364927
    27  C   -0.120911
    28  C   -0.096641
    29  C   -0.086097
    30  C   -0.074583
    31  C   -0.111581
    32  C   -0.118163
    33  C    0.105132
    34  C    0.095510
    35  C   -0.355469
    36  C   -0.338612
    37  C   -0.116271
    38  C   -0.119736
    39  C   -0.080113
    40  C   -0.094395
    41  H    0.097144
    42  H    0.083298
    43  H    0.088780
    44  H    0.057238
    45  H    0.091393
    46  H    0.105716
    47  H    0.077706
    48  H    0.115343
    49  H    0.076255
    50  H    0.108334
    51  H    0.082374
    52  H    0.111788
    53  H    0.091704
    54  H    0.093100
    55  H    0.112486
    56  H    0.074575
    57  H    0.114594
    58  H    0.094335
    59  H    0.094553
    60  H    0.113839
    61  H    0.089817
    62  H    0.093680
    63  H    0.091394
    64  H    0.105334
    65  H    0.071840
    66  H    0.091357
    67  H    0.093240
    68  H    0.076595
    69  H    0.128879
    70  H    0.132841
    71  H    0.107539
    72  H    0.080440
    73  H    0.055822
    74  H    0.071019
    75  H    0.128253
    76  H    0.096174
    77  H    0.117093
    78  H    0.114070
    79  H    0.119238
    80  H    0.068696
    81  H    0.069246
    82  H    0.084329
    83  H    0.088439
    84  H    0.087068
    85  H    0.095033
    86  H    0.079880
    87  H    0.126309
    88  H    0.105212
    89  H    0.092398
    90  H    0.104462
    91  H    0.122871
    92  H    0.092912
    93  H    0.071738
    94  H    0.076556
    95  H    0.068112
    96  H    0.075118
 Sum of Mulliken charges =  -0.00000

 Dipole moment (field-independent basis, Debye):
    X=             -0.4274    Y=             -0.3255    Z=             -0.7149  Tot=              0.8942
 Quadrupole moment (field-independent basis, Debye-Ang):
   XX=           -217.3720   YY=           -234.1453   ZZ=           -255.9183
   XY=             -3.0072   XZ=             -0.9294   YZ=              1.3889

 Normal termination of Gaussian 16 at Fri Jul 26 15:24:15 2019.
