 Gaussian 16, Revision A.03,
 Gaussian 16:  ES64L-G16RevA.03 25-Dec-2016

 ---------------------------------
 # td=(NStates=1) B3LYP/6-31G(d,p)
 ---------------------------------

 --
 TD
 --
 Symbolic Z-matrix:
 Charge =  0 Multiplicity = 1

                         Standard orientation:
 ---------------------------------------------------------------------
 Center     Atomic      Atomic             Coordinates (Angstroms)
 Number     Number       Type             X           Y           Z
 ---------------------------------------------------------------------
      1          6           0       12.174311    0.556114   -0.738195
      2          6           0      -12.167237   -0.081954    0.833257
      3          6           0       13.540712   -0.277259   -0.502411
      4          6           0      -12.983368    1.143211    1.358042
      5          6           0       13.146626   -1.762517   -0.305276
      6          6           0      -13.332051    2.205298    0.273243
      7          6           0       11.088821    0.062804    0.253773
      8          6           0      -11.001079    0.479155   -0.051259
      9          6           0       12.296147   -1.979516    0.810700
     10          6           0      -12.062722    2.682987   -0.342072
     11          6           0       11.172996   -1.106848    0.973593
     12          6           0      -10.987442    1.712991   -0.635948
     13          6           0       11.581276    0.383495   -2.103420
     14          6           0       12.423517    2.073427   -0.650045
     15          6           0      -12.994222   -1.176816    0.175516
     16          6           0      -11.445111   -0.738221    2.124249
     17          6           0        9.894068    0.973070    0.393889
     18          6           0       -9.984237   -0.520407   -0.229003
     19          6           0       10.139132   -1.524283    2.026368
     20          6           0      -10.048730    2.047115   -1.711790
     21          6           0        8.635159    0.482810    0.286479
     22          6           0       -8.660399   -0.198847   -0.175626
     23          6           0        7.467743    1.277805    0.410404
     24          6           0       -7.569322   -1.292263   -0.466129
     25          6           0        7.583262    2.735289    0.401827
     26          6           0       -8.035013   -2.646635   -0.795702
     27          6           0        6.195720    0.621712    0.376525
     28          6           0       -6.249261   -0.849845   -0.301382
     29          6           0        4.860075    1.218004    0.358736
     30          6           0       -5.062109   -1.553047   -0.623400
     31          6           0        3.752539    0.503324    0.126809
     32          6           0       -3.762345   -1.095083   -0.461690
     33          6           0        2.410583    1.171892    0.344562
     34          6           0       -2.553779   -1.854699   -0.548555
     35          6           0        2.320214    2.706665    0.488268
     36          6           0       -2.523369   -3.413717   -0.873457
     37          6           0        1.215436    0.427109    0.199207
     38          6           0       -1.334250   -1.196859   -0.331234
     39          6           0        1.081431   -1.046163    0.044633
     40          6           0       -0.015446   -1.673151   -0.300778
     41          1           0       13.809507    0.274520    0.553809
     42          1           0       14.194191    0.126126   -1.301520
     43          1           0      -12.346896    1.681852    2.002985
     44          1           0      -13.883855    0.667341    1.865578
     45          1           0       14.275987   -2.104270   -0.053937
     46          1           0       12.739322   -2.253397   -1.306205
     47          1           0      -13.913412    2.973730    0.761133
     48          1           0      -13.878475    1.645223   -0.557874
     49          1           0       12.887769   -1.912931    1.741857
     50          1           0       11.959547   -2.948420    0.778226
     51          1           0      -11.634862    3.615537    0.167806
     52          1           0      -12.320511    3.112240   -1.360922
     53          1           0       11.628453   -0.612378   -2.262999
     54          1           0       12.236432    1.007241   -2.820298
     55          1           0       10.604517    0.553264   -2.095080
     56          1           0       12.891133    2.473166    0.365266
     57          1           0       11.574125    2.672101   -0.942408
     58          1           0       13.031758    2.295267   -1.349727
     59          1           0      -13.387202   -0.806384   -0.955175
     60          1           0      -13.884799   -1.316429    0.688053
     61          1           0      -12.453963   -2.069493    0.084930
     62          1           0      -10.844640   -0.182197    2.701575
     63          1           0      -10.762370   -1.552982    1.685873
     64          1           0      -12.277727   -1.019253    2.863231
     65          1           0       10.141245    2.019266    0.501917
     66          1           0      -10.144148   -1.511713   -0.069683
     67          1           0        9.463900   -0.602684    2.318979
     68          1           0       10.749180   -1.902660    2.770076
     69          1           0        9.611599   -2.453821    1.544720
     70          1           0       -9.256152    1.325397   -1.776295
     71          1           0       -9.684175    3.382691   -1.470415
     72          1           0      -10.699634    2.313000   -2.603983
     73          1           0        8.545663   -0.564887    0.142772
     74          1           0       -8.129911    0.815008    0.068244
     75          1           0        8.158942    3.030235    1.133958
     76          1           0        6.625666    3.308388    0.370021
     77          1           0        7.988741    3.285246   -0.523896
     78          1           0       -8.414469   -2.786866   -1.857173
     79          1           0       -8.849794   -3.095758   -0.139597
     80          1           0       -7.176087   -3.456627   -0.518716
     81          1           0        6.191215   -0.521060    0.348731
     82          1           0       -6.097933    0.126765   -0.224585
     83          1           0        4.681655    2.299263    0.392892
     84          1           0       -5.125962   -2.524729   -0.842235
     85          1           0        3.708348   -0.571832    0.146596
     86          1           0       -3.701649    0.026385   -0.363448
     87          1           0        2.870746    3.212912    1.286269
     88          1           0        1.244687    3.137596    0.812904
     89          1           0        2.585211    3.158025   -0.578927
     90          1           0       -3.156046   -3.393275   -1.774806
     91          1           0       -3.103312   -4.097971   -0.043672
     92          1           0       -1.622705   -3.870862   -1.023305
     93          1           0        0.437714    1.172136    0.177321
     94          1           0       -1.455369   -0.025619    0.042814
     95          1           0        2.024208   -1.653303    0.222330
     96          1           0        0.094933   -2.754990   -0.400217
 ---------------------------------------------------------------------

 SCF Done:  E(RB3LYP) =  -1557.57267430     A.U. after   15 cycles

 Excitation energies and oscillator strengths:

 Excited State   1:      Singlet-A      2.1773 eV  569.44 nm  f=2.9313  <S**2>=0.000
     148 ->149         0.70383
 This state for optimization and/or second-order correction.
 Total Energy, E(TD-HF/TD-DFT) =  -1557.49265954
 Copying the excited state density for this state as the 1-particle RhoCI density.

 The electronic state is 1-A.
 Alpha  occ. eigenvalues --  -10.20834 -10.20805 -10.20670 -10.20575 -10.20321
 Alpha  occ. eigenvalues --  -10.20004 -10.19986 -10.19961 -10.19900 -10.19781
 Alpha  occ. eigenvalues --  -10.19763 -10.19688 -10.19525 -10.19423 -10.19394
 Alpha  occ. eigenvalues --  -10.19143 -10.18845 -10.18830 -10.18816 -10.18600
 Alpha  occ. eigenvalues --  -10.18552 -10.18486 -10.18426 -10.18224 -10.18169
 Alpha  occ. eigenvalues --  -10.18133 -10.18072 -10.17989 -10.17924 -10.17781
 Alpha  occ. eigenvalues --  -10.17779 -10.17776 -10.17521 -10.17483 -10.17478
 Alpha  occ. eigenvalues --  -10.17424 -10.17173 -10.16941 -10.16126 -10.14861
 Alpha  occ. eigenvalues --   -0.85515  -0.85007  -0.82866  -0.82559  -0.81678
 Alpha  occ. eigenvalues --   -0.80649  -0.80070  -0.79053  -0.78565  -0.77509
 Alpha  occ. eigenvalues --   -0.76729  -0.75059  -0.74095  -0.72423  -0.72032
 Alpha  occ. eigenvalues --   -0.69078  -0.68928  -0.68637  -0.68463  -0.68063
 Alpha  occ. eigenvalues --   -0.67759  -0.66925  -0.66858  -0.66715  -0.65895
 Alpha  occ. eigenvalues --   -0.62286  -0.61578  -0.59501  -0.58313  -0.57119
 Alpha  occ. eigenvalues --   -0.56549  -0.55313  -0.54652  -0.54436  -0.53249
 Alpha  occ. eigenvalues --   -0.52888  -0.51987  -0.50320  -0.49758  -0.48688
 Alpha  occ. eigenvalues --   -0.48181  -0.47814  -0.47625  -0.46535  -0.46109
 Alpha  occ. eigenvalues --   -0.45623  -0.45371  -0.45062  -0.44966  -0.44056
 Alpha  occ. eigenvalues --   -0.43523  -0.43279  -0.42362  -0.42269  -0.42176
 Alpha  occ. eigenvalues --   -0.42074  -0.41441  -0.41373  -0.41185  -0.41050
 Alpha  occ. eigenvalues --   -0.40463  -0.40258  -0.40076  -0.39875  -0.39638
 Alpha  occ. eigenvalues --   -0.39440  -0.39300  -0.39080  -0.38520  -0.38147
 Alpha  occ. eigenvalues --   -0.38048  -0.37653  -0.37052  -0.36899  -0.36744
 Alpha  occ. eigenvalues --   -0.36627  -0.36154  -0.36086  -0.35345  -0.35319
 Alpha  occ. eigenvalues --   -0.35067  -0.34736  -0.34453  -0.34343  -0.33646
 Alpha  occ. eigenvalues --   -0.33592  -0.33410  -0.33392  -0.32735  -0.32701
 Alpha  occ. eigenvalues --   -0.32387  -0.31795  -0.31658  -0.31326  -0.31146
 Alpha  occ. eigenvalues --   -0.30950  -0.30268  -0.29494  -0.28691  -0.28243
 Alpha  occ. eigenvalues --   -0.27549  -0.26551  -0.26032  -0.23897  -0.22180
 Alpha  occ. eigenvalues --   -0.20588  -0.18396  -0.16196
 Alpha virt. eigenvalues --   -0.07857  -0.05305  -0.01906   0.00736   0.02697
 Alpha virt. eigenvalues --    0.04223   0.05925   0.06758   0.06904   0.07252
 Alpha virt. eigenvalues --    0.07603   0.07846   0.08102   0.08492   0.09006

 Mulliken charges:
               1
     1  C   -0.026396
     2  C   -0.026625
     3  C   -0.174685
     4  C   -0.178593
     5  C   -0.188474
     6  C   -0.180490
     7  C    0.046376
     8  C    0.112671
     9  C   -0.196328
    10  C   -0.230463
    11  C    0.053612
    12  C    0.095643
    13  C   -0.272433
    14  C   -0.296087
    15  C   -0.278978
    16  C   -0.294717
    17  C   -0.156198
    18  C   -0.154720
    19  C   -0.347833
    20  C   -0.325428
    21  C   -0.080801
    22  C   -0.110586
    23  C    0.127709
    24  C    0.115287
    25  C   -0.377597
    26  C   -0.386460
    27  C   -0.151457
    28  C   -0.105671
    29  C   -0.064859
    30  C   -0.074598
    31  C   -0.089997
    32  C   -0.115830
    33  C    0.069781
    34  C    0.102373
    35  C   -0.378764
    36  C   -0.356587
    37  C   -0.105394
    38  C   -0.112316
    39  C   -0.099779
    40  C   -0.070176
    41  H    0.075265
    42  H    0.092086
    43  H    0.102599
    44  H    0.070618
    45  H    0.080473
    46  H    0.092231
    47  H    0.098888
    48  H    0.090614
    49  H    0.107240
    50  H    0.108797
    51  H    0.095912
    52  H    0.086876
    53  H    0.093773
    54  H    0.073564
    55  H    0.117135
    56  H    0.071005
    57  H    0.098708
    58  H    0.105828
    59  H    0.066689
    60  H    0.114544
    61  H    0.109458
    62  H    0.119412
    63  H    0.080702
    64  H    0.080011
    65  H    0.091165
    66  H    0.081252
    67  H    0.121199
    68  H    0.112192
    69  H    0.095556
    70  H    0.127921
    71  H    0.023353
    72  H    0.116591
    73  H    0.089857
    74  H    0.091401
    75  H    0.132834
    76  H    0.104357
    77  H    0.106509
    78  H    0.129346
    79  H    0.114354
    80  H    0.093751
    81  H    0.072304
    82  H    0.067850
    83  H    0.085544
    84  H    0.062031
    85  H    0.078595
    86  H    0.074990
    87  H    0.127498
    88  H    0.090928
    89  H    0.116100
    90  H    0.125177
    91  H    0.095202
    92  H    0.124743
    93  H    0.079907
    94  H    0.062231
    95  H    0.086170
    96  H    0.072536
 Sum of Mulliken charges =  -0.00000

 Dipole moment (field-independent basis, Debye):
    X=              0.5248    Y=             -0.2672    Z=              0.1641  Tot=              0.6113
 Quadrupole moment (field-independent basis, Debye-Ang):
   XX=           -216.8892   YY=           -232.2174   ZZ=           -256.1404
   XY=              1.5170   XZ=              0.3442   YZ=              2.3866

 Normal termination of Gaussian 16 at Tue Jul 30 00:29:57 2019.
