 Gaussian 16, Revision A.03,
 Gaussian 16:  ES64L-G16RevA.03 25-Dec-2016

 ---------------------------------
 # td=(NStates=1) B3LYP/6-31G(d,p)
 ---------------------------------

 --
 TD
 --
 Symbolic Z-matrix:
 Charge =  0 Multiplicity = 1

                         Standard orientation:
 ---------------------------------------------------------------------
 Center     Atomic      Atomic             Coordinates (Angstroms)
 Number     Number       Type             X           Y           Z
 ---------------------------------------------------------------------
      1          6           0      -12.035064   -0.581072   -0.887609
      2          6           0       12.194664   -0.000693    0.808981
      3          6           0      -13.354741    0.330791   -0.847262
      4          6           0       12.975263   -1.325409    1.273746
      5          6           0      -13.060462    1.801418   -0.661679
      6          6           0       13.333734   -2.091118    0.005722
      7          6           0      -11.014626   -0.013607    0.231333
      8          6           0       11.035871   -0.327684   -0.151350
      9          6           0      -12.318575    2.132712    0.624954
     10          6           0       12.040501   -2.591812   -0.740498
     11          6           0      -11.165526    1.119542    0.903107
     12          6           0       10.957521   -1.502896   -0.856735
     13          6           0      -11.469958   -0.463403   -2.216444
     14          6           0      -12.584176   -2.012303   -0.596623
     15          6           0       12.999438    1.131350    0.174201
     16          6           0       11.649085    0.544127    2.084179
     17          6           0       -9.821322   -0.810915    0.339795
     18          6           0        9.934963    0.593215   -0.288939
     19          6           0      -10.241200    1.518117    2.015523
     20          6           0        9.913051   -1.996608   -1.802279
     21          6           0       -8.559231   -0.454800    0.464978
     22          6           0        8.572508    0.351472   -0.229220
     23          6           0       -7.403060   -1.350501    0.555001
     24          6           0        7.451170    1.321180   -0.259905
     25          6           0       -7.622115   -2.815712    0.781550
     26          6           0        7.866068    2.822421   -0.415201
     27          6           0       -6.120590   -0.750689    0.401118
     28          6           0        6.250307    0.856955   -0.284791
     29          6           0       -4.858996   -1.360459    0.513668
     30          6           0        5.057730    1.735668   -0.357112
     31          6           0       -3.646619   -0.747890    0.363615
     32          6           0        3.814953    1.114067   -0.271981
     33          6           0       -2.356331   -1.293376    0.442859
     34          6           0        2.496473    1.774277   -0.335685
     35          6           0       -2.191137   -2.795097    0.574436
     36          6           0        2.485378    3.276419   -0.821666
     37          6           0       -1.266135   -0.493055    0.181203
     38          6           0        1.284997    1.093457   -0.192521
     39          6           0       -1.191271    0.861556   -0.112037
     40          6           0       -0.018294    1.602151   -0.298315
     41          1           0      -14.221069    0.160854   -0.107254
     42          1           0      -13.874038    0.041777   -1.549144
     43          1           0       12.281981   -1.856966    1.968781
     44          1           0       13.880517   -0.884270    1.797629
     45          1           0      -13.892852    2.454797   -0.698824
     46          1           0      -12.411074    2.308232   -1.362086
     47          1           0       13.921542   -2.980167    0.253526
     48          1           0       13.726728   -1.618840   -0.750082
     49          1           0      -13.005702    2.178230    1.501002
     50          1           0      -11.861819    3.202066    0.776297
     51          1           0       11.645501   -3.413079   -0.102740
     52          1           0       12.263521   -2.875462   -1.781812
     53          1           0      -11.052428    0.521260   -2.435419
     54          1           0      -12.322779   -0.736709   -2.835714
     55          1           0      -10.601166   -0.967341   -2.196576
     56          1           0      -12.979807   -2.065320    0.388901
     57          1           0      -11.803248   -2.856020   -0.608525
     58          1           0      -13.404783   -2.137552   -1.397189
     59          1           0       13.595389    0.851793   -0.909870
     60          1           0       13.783934    1.613010    0.743752
     61          1           0       12.284628    2.053096    0.074287
     62          1           0       10.932109   -0.238056    2.521861
     63          1           0       11.065090    1.456362    1.888135
     64          1           0       12.393552    0.808645    2.890534
     65          1           0      -10.053615   -1.893089    0.587521
     66          1           0       10.107635    1.710260   -0.152870
     67          1           0       -9.426495    0.781043    2.246131
     68          1           0      -10.955159    1.815650    2.876355
     69          1           0       -9.887813    2.560917    1.724032
     70          1           0        9.371798   -1.106744   -2.297694
     71          1           0        9.278728   -2.743953   -1.203222
     72          1           0       10.144235   -2.789293   -2.655587
     73          1           0       -8.360163    0.652964    0.365276
     74          1           0        8.119121   -0.714836   -0.216124
     75          1           0       -7.894897   -3.001536    1.974253
     76          1           0       -6.766245   -3.346602    0.384723
     77          1           0       -8.619239   -3.085928    0.218089
     78          1           0        8.223818    2.940171   -1.427632
     79          1           0        8.690803    2.872811    0.331562
     80          1           0        7.148845    3.508851   -0.084245
     81          1           0       -6.336636    0.490168    0.198907
     82          1           0        6.071548   -0.207498   -0.219468
     83          1           0       -4.715912   -2.342047    0.759448
     84          1           0        5.058859    2.805550   -0.403348
     85          1           0       -3.728067    0.252695    0.046579
     86          1           0        3.748878    0.002929   -0.408296
     87          1           0       -2.894352   -3.238834    1.329404
     88          1           0       -1.092856   -2.942791    0.812480
     89          1           0       -2.583266   -3.302613   -0.220241
     90          1           0        3.079746    3.368018   -1.846077
     91          1           0        3.143143    3.758075   -0.146789
     92          1           0        1.496181    3.932296   -0.986024
     93          1           0       -0.232198   -1.078770    0.150529
     94          1           0        1.461911    0.025544   -0.026886
     95          1           0       -2.094169    1.372204   -0.042461
     96          1           0        0.066643    2.713295   -0.410500
 ---------------------------------------------------------------------

 SCF Done:  E(RB3LYP) =  -1557.63376561     A.U. after   16 cycles

 Excitation energies and oscillator strengths:

 Excited State   1:      Singlet-A      2.1181 eV  585.35 nm  f=3.1442  <S**2>=0.000
     148 ->149         0.70651
     148 <-149        -0.11915
 This state for optimization and/or second-order correction.
 Total Energy, E(TD-HF/TD-DFT) =  -1557.55592559
 Copying the excited state density for this state as the 1-particle RhoCI density.

 The electronic state is 1-A.
 Alpha  occ. eigenvalues --  -10.20869 -10.20538 -10.20370 -10.20239 -10.20101
 Alpha  occ. eigenvalues --  -10.19963 -10.19959 -10.19674 -10.19645 -10.19562
 Alpha  occ. eigenvalues --  -10.19451 -10.19399 -10.19385 -10.19313 -10.19230
 Alpha  occ. eigenvalues --  -10.19191 -10.19092 -10.19036 -10.18987 -10.18965
 Alpha  occ. eigenvalues --  -10.18750 -10.18592 -10.18547 -10.18484 -10.18398
 Alpha  occ. eigenvalues --  -10.18353 -10.18321 -10.18298 -10.18196 -10.18182
 Alpha  occ. eigenvalues --  -10.18143 -10.18095 -10.17825 -10.17622 -10.17578
 Alpha  occ. eigenvalues --  -10.17474 -10.17261 -10.16601 -10.16492 -10.15515
 Alpha  occ. eigenvalues --   -0.84905  -0.84835  -0.83826  -0.82949  -0.81938
 Alpha  occ. eigenvalues --   -0.81169  -0.79286  -0.78685  -0.78502  -0.77602
 Alpha  occ. eigenvalues --   -0.76959  -0.75423  -0.73999  -0.72278  -0.71818
 Alpha  occ. eigenvalues --   -0.70263  -0.69057  -0.68837  -0.67886  -0.67599
 Alpha  occ. eigenvalues --   -0.67381  -0.67288  -0.66997  -0.66049  -0.66026
 Alpha  occ. eigenvalues --   -0.62883  -0.61413  -0.60065  -0.59376  -0.57088
 Alpha  occ. eigenvalues --   -0.56245  -0.55808  -0.55170  -0.54452  -0.53014
 Alpha  occ. eigenvalues --   -0.52324  -0.51755  -0.50299  -0.49359  -0.49211
 Alpha  occ. eigenvalues --   -0.48494  -0.48396  -0.47138  -0.46844  -0.45845
 Alpha  occ. eigenvalues --   -0.45278  -0.45089  -0.44948  -0.44509  -0.44205
 Alpha  occ. eigenvalues --   -0.43632  -0.43053  -0.42874  -0.42831  -0.42084
 Alpha  occ. eigenvalues --   -0.41757  -0.41417  -0.41368  -0.41110  -0.40566
 Alpha  occ. eigenvalues --   -0.40253  -0.40119  -0.40064  -0.40044  -0.39523
 Alpha  occ. eigenvalues --   -0.39172  -0.38865  -0.38666  -0.38525  -0.38390
 Alpha  occ. eigenvalues --   -0.38220  -0.37632  -0.37398  -0.36983  -0.36780
 Alpha  occ. eigenvalues --   -0.36251  -0.35916  -0.35589  -0.35270  -0.35065
 Alpha  occ. eigenvalues --   -0.34930  -0.34649  -0.34635  -0.34231  -0.34010
 Alpha  occ. eigenvalues --   -0.33593  -0.33489  -0.33110  -0.33087  -0.32748
 Alpha  occ. eigenvalues --   -0.32292  -0.31807  -0.31560  -0.31511  -0.31359
 Alpha  occ. eigenvalues --   -0.30505  -0.30137  -0.30018  -0.28923  -0.28244
 Alpha  occ. eigenvalues --   -0.27614  -0.27501  -0.26788  -0.24494  -0.22975
 Alpha  occ. eigenvalues --   -0.20911  -0.18945  -0.16120
 Alpha virt. eigenvalues --   -0.08418  -0.04710  -0.01896   0.01064   0.03010
 Alpha virt. eigenvalues --    0.04842   0.06396   0.06793   0.06859   0.07478
 Alpha virt. eigenvalues --    0.07751   0.07958   0.08381   0.08662   0.09062

 Mulliken charges:
               1
     1  C   -0.026845
     2  C   -0.015797
     3  C   -0.136690
     4  C   -0.164573
     5  C   -0.198546
     6  C   -0.180206
     7  C    0.045054
     8  C    0.113316
     9  C   -0.225456
    10  C   -0.238812
    11  C    0.082562
    12  C    0.062717
    13  C   -0.261155
    14  C   -0.297865
    15  C   -0.283113
    16  C   -0.289844
    17  C   -0.141287
    18  C   -0.173583
    19  C   -0.363487
    20  C   -0.359037
    21  C   -0.099081
    22  C   -0.090009
    23  C    0.118405
    24  C    0.120968
    25  C   -0.360163
    26  C   -0.364798
    27  C   -0.119407
    28  C   -0.125691
    29  C   -0.083443
    30  C   -0.085110
    31  C   -0.094906
    32  C   -0.121626
    33  C    0.113643
    34  C    0.085010
    35  C   -0.378029
    36  C   -0.374761
    37  C   -0.112949
    38  C   -0.088548
    39  C   -0.076460
    40  C   -0.099224
    41  H    0.067612
    42  H    0.082219
    43  H    0.096999
    44  H    0.089360
    45  H    0.090746
    46  H    0.101313
    47  H    0.082027
    48  H    0.114114
    49  H    0.095414
    50  H    0.081119
    51  H    0.100350
    52  H    0.100252
    53  H    0.101478
    54  H    0.092740
    55  H    0.114127
    56  H    0.118943
    57  H    0.084972
    58  H    0.085845
    59  H    0.068113
    60  H    0.104093
    61  H    0.091316
    62  H    0.091910
    63  H    0.088784
    64  H    0.093258
    65  H    0.074149
    66  H    0.067426
    67  H    0.125318
    68  H    0.096639
    69  H    0.099961
    70  H    0.116144
    71  H    0.111391
    72  H    0.089505
    73  H    0.084535
    74  H    0.069967
    75  H    0.103349
    76  H    0.119917
    77  H    0.107670
    78  H    0.135516
    79  H    0.113852
    80  H    0.112738
    81  H    0.058424
    82  H    0.080339
    83  H    0.062181
    84  H    0.086017
    85  H    0.069224
    86  H    0.083601
    87  H    0.107282
    88  H    0.107348
    89  H    0.140721
    90  H    0.107118
    91  H    0.127552
    92  H    0.103265
    93  H    0.059737
    94  H    0.066745
    95  H    0.085538
    96  H    0.078550
 Sum of Mulliken charges =  -0.00000

 Dipole moment (field-independent basis, Debye):
    X=              0.2743    Y=             -0.0800    Z=             -0.1398  Tot=              0.3181
 Quadrupole moment (field-independent basis, Debye-Ang):
   XX=           -216.9722   YY=           -233.7067   ZZ=           -256.3215
   XY=             -1.8347   XZ=              2.2338   YZ=             -0.9255

 Normal termination of Gaussian 16 at Tue Jul 23 10:57:44 2019.
