 Gaussian 16, Revision A.03,
 Gaussian 16:  ES64L-G16RevA.03 25-Dec-2016

 ---------------------------------
 # td=(NStates=1) B3LYP/6-31G(d,p)
 ---------------------------------

 --
 TD
 --
 Symbolic Z-matrix:
 Charge =  0 Multiplicity = 1

                         Standard orientation:
 ---------------------------------------------------------------------
 Center     Atomic      Atomic             Coordinates (Angstroms)
 Number     Number       Type             X           Y           Z
 ---------------------------------------------------------------------
      1          6           0      -12.161271   -0.540383   -0.731408
      2          6           0       12.091349   -0.004003    0.875457
      3          6           0      -13.497036    0.284264   -0.566986
      4          6           0       12.961834   -1.225287    1.178505
      5          6           0      -13.172674    1.843154   -0.597962
      6          6           0       13.442987   -2.063455    0.023695
      7          6           0      -11.034882   -0.018098    0.149288
      8          6           0       10.929235   -0.366150   -0.114695
      9          6           0      -12.190856    2.244593    0.524149
     10          6           0       12.159331   -2.658274   -0.666744
     11          6           0      -11.121709    1.242604    0.859065
     12          6           0       11.017207   -1.627783   -0.830419
     13          6           0      -11.739586   -0.417797   -2.188654
     14          6           0      -12.496027   -1.964604   -0.293453
     15          6           0       12.967870    1.109292    0.183152
     16          6           0       11.609641    0.666147    2.189725
     17          6           0       -9.872879   -0.865699    0.236104
     18          6           0        9.907115    0.621911   -0.280436
     19          6           0      -10.031943    1.644541    1.826711
     20          6           0       10.048613   -1.921508   -1.750977
     21          6           0       -8.576329   -0.512917    0.211824
     22          6           0        8.568710    0.368104   -0.267972
     23          6           0       -7.361576   -1.382823    0.386952
     24          6           0        7.430942    1.306438   -0.486619
     25          6           0       -7.623951   -2.800376    0.805361
     26          6           0        7.776806    2.712616   -0.921022
     27          6           0       -6.110483   -0.857585    0.360865
     28          6           0        6.223241    0.850009   -0.291011
     29          6           0       -4.881753   -1.476184    0.427450
     30          6           0        5.066671    1.691911   -0.316818
     31          6           0       -3.709271   -0.770046    0.326557
     32          6           0        3.792075    1.148585   -0.192696
     33          6           0       -2.438622   -1.358869    0.260366
     34          6           0        2.510944    1.811746   -0.346425
     35          6           0       -2.217285   -2.888146    0.457700
     36          6           0        2.635202    3.361179   -0.446939
     37          6           0       -1.237906   -0.519341    0.218764
     38          6           0        1.367107    1.136714   -0.168454
     39          6           0       -1.174701    0.806793   -0.020653
     40          6           0        0.010131    1.546992   -0.142459
     41          1           0      -13.956360    0.268675    0.441156
     42          1           0      -14.204562    0.020090   -1.259879
     43          1           0       12.550382   -1.873889    1.851008
     44          1           0       13.757267   -0.774017    1.750503
     45          1           0      -14.005772    2.572774   -0.615032
     46          1           0      -12.494009    1.971872   -1.565282
     47          1           0       14.072182   -2.706249    0.484215
     48          1           0       13.896595   -1.539514   -0.829833
     49          1           0      -12.726816    2.543735    1.512332
     50          1           0      -11.546681    2.989544    0.330528
     51          1           0       11.774506   -3.515756    0.007571
     52          1           0       12.277089   -3.105699   -1.717497
     53          1           0      -11.766928    0.473274   -2.393907
     54          1           0      -12.591923   -0.805875   -2.971190
     55          1           0      -10.986403   -0.994302   -2.387809
     56          1           0      -12.671188   -1.929998    0.706607
     57          1           0      -11.893191   -2.606581   -0.588257
     58          1           0      -13.385836   -2.165988   -0.901207
     59          1           0       13.089728    0.874955   -0.721651
     60          1           0       13.889526    1.064662    0.756315
     61          1           0       12.281314    2.113743    0.166406
     62          1           0       11.125565   -0.150321    2.806160
     63          1           0       11.226954    1.676629    2.125027
     64          1           0       12.479595    0.902306    2.856763
     65          1           0      -10.154506   -1.773413    0.586784
     66          1           0       10.109343    1.626559   -0.221382
     67          1           0       -9.500992    0.565289    2.188727
     68          1           0      -10.689112    1.901677    2.992264
     69          1           0       -9.471240    2.442978    1.439294
     70          1           0        9.508283   -0.719762   -1.961160
     71          1           0        9.409568   -2.694315   -1.479664
     72          1           0       10.599411   -2.212815   -2.670799
     73          1           0       -8.419862    0.457244   -0.021471
     74          1           0        8.152099   -0.853349   -0.231769
     75          1           0       -7.912568   -2.807493    1.868683
     76          1           0       -6.751524   -3.536698    0.415688
     77          1           0       -8.667748   -3.187041    0.244129
     78          1           0        8.235466    2.898585   -1.962607
     79          1           0        8.544858    3.040569   -0.131051
     80          1           0        7.049814    3.593255   -0.936390
     81          1           0       -6.035731    0.192687   -0.125215
     82          1           0        5.911766   -0.282402    0.196266
     83          1           0       -4.625397   -2.563681    0.555315
     84          1           0        5.159561    2.549231   -0.541067
     85          1           0       -3.922910    0.238447    0.279796
     86          1           0        3.817655    0.138578    0.222421
     87          1           0       -2.773487   -3.175011    1.350587
     88          1           0       -1.089932   -3.212396    0.392998
     89          1           0       -2.695284   -3.394097   -0.300281
     90          1           0        3.212684    3.565451   -1.340291
     91          1           0        2.937540    3.893496    0.557568
     92          1           0        1.682768    3.794890   -0.690270
     93          1           0       -0.385911   -1.047221    0.479795
     94          1           0        1.611470    0.028387   -0.101647
     95          1           0       -2.025674    1.547555   -0.132616
     96          1           0       -0.209061    2.731152   -0.039002
 ---------------------------------------------------------------------

 SCF Done:  E(RB3LYP) =  -1557.43512152     A.U. after   16 cycles

 Excitation energies and oscillator strengths:

 Excited State   1:      Singlet-A      1.9693 eV  629.59 nm  f=3.0709  <S**2>=0.000
     147 ->149        -0.10512
     148 ->149         0.70198
     148 <-149        -0.13609
 This state for optimization and/or second-order correction.
 Total Energy, E(TD-HF/TD-DFT) =  -1557.36275189
 Copying the excited state density for this state as the 1-particle RhoCI density.

 The electronic state is 1-A.
 Alpha  occ. eigenvalues --  -10.20859 -10.20749 -10.20514 -10.20330 -10.20295
 Alpha  occ. eigenvalues --  -10.20278 -10.20088 -10.19979 -10.19846 -10.19718
 Alpha  occ. eigenvalues --  -10.19671 -10.19452 -10.19431 -10.19328 -10.19214
 Alpha  occ. eigenvalues --  -10.19181 -10.19115 -10.19026 -10.18883 -10.18794
 Alpha  occ. eigenvalues --  -10.18682 -10.18673 -10.18611 -10.18450 -10.18413
 Alpha  occ. eigenvalues --  -10.18372 -10.18085 -10.18057 -10.17877 -10.17792
 Alpha  occ. eigenvalues --  -10.17580 -10.17484 -10.17218 -10.17191 -10.16688
 Alpha  occ. eigenvalues --  -10.16684 -10.16463 -10.16281 -10.15001 -10.14578
 Alpha  occ. eigenvalues --   -0.84968  -0.84450  -0.83774  -0.83404  -0.82194
 Alpha  occ. eigenvalues --   -0.81267  -0.79376  -0.79059  -0.78902  -0.77967
 Alpha  occ. eigenvalues --   -0.77064  -0.75417  -0.74231  -0.72799  -0.72047
 Alpha  occ. eigenvalues --   -0.70968  -0.70153  -0.68165  -0.68043  -0.67887
 Alpha  occ. eigenvalues --   -0.67558  -0.67151  -0.66881  -0.66786  -0.65831
 Alpha  occ. eigenvalues --   -0.62897  -0.61783  -0.60222  -0.59526  -0.57096
 Alpha  occ. eigenvalues --   -0.56497  -0.55614  -0.55426  -0.54550  -0.53798
 Alpha  occ. eigenvalues --   -0.52902  -0.52013  -0.50204  -0.49682  -0.49188
 Alpha  occ. eigenvalues --   -0.48276  -0.47712  -0.47053  -0.46924  -0.46639
 Alpha  occ. eigenvalues --   -0.46064  -0.45662  -0.45529  -0.45016  -0.44213
 Alpha  occ. eigenvalues --   -0.43998  -0.43447  -0.43328  -0.42749  -0.42609
 Alpha  occ. eigenvalues --   -0.42219  -0.42082  -0.41945  -0.41725  -0.41419
 Alpha  occ. eigenvalues --   -0.40964  -0.40868  -0.40455  -0.40146  -0.39832
 Alpha  occ. eigenvalues --   -0.39349  -0.39063  -0.38737  -0.38425  -0.38367
 Alpha  occ. eigenvalues --   -0.37733  -0.36869  -0.36680  -0.36416  -0.36298
 Alpha  occ. eigenvalues --   -0.35954  -0.35569  -0.35186  -0.35115  -0.34909
 Alpha  occ. eigenvalues --   -0.34788  -0.34631  -0.34398  -0.34116  -0.33950
 Alpha  occ. eigenvalues --   -0.33864  -0.33412  -0.33162  -0.33038  -0.32779
 Alpha  occ. eigenvalues --   -0.32345  -0.31729  -0.31382  -0.31227  -0.30933
 Alpha  occ. eigenvalues --   -0.30640  -0.29878  -0.29791  -0.29259  -0.28887
 Alpha  occ. eigenvalues --   -0.28741  -0.27469  -0.25867  -0.23896  -0.21881
 Alpha  occ. eigenvalues --   -0.20285  -0.18632  -0.15886
 Alpha virt. eigenvalues --   -0.08960  -0.04805  -0.02039   0.00372   0.02349
 Alpha virt. eigenvalues --    0.04282   0.05848   0.06715   0.06954   0.07002
 Alpha virt. eigenvalues --    0.07755   0.07839   0.08133   0.08365   0.08557

 Mulliken charges:
               1
     1  C   -0.041307
     2  C   -0.020246
     3  C   -0.167004
     4  C   -0.182425
     5  C   -0.209209
     6  C   -0.173249
     7  C    0.038029
     8  C    0.092522
     9  C   -0.191904
    10  C   -0.228314
    11  C    0.049847
    12  C    0.087876
    13  C   -0.246036
    14  C   -0.282271
    15  C   -0.269705
    16  C   -0.297976
    17  C   -0.124720
    18  C   -0.155918
    19  C   -0.333550
    20  C   -0.361995
    21  C   -0.077183
    22  C   -0.093478
    23  C    0.110651
    24  C    0.131424
    25  C   -0.365338
    26  C   -0.378103
    27  C   -0.138919
    28  C   -0.116665
    29  C   -0.057885
    30  C   -0.005644
    31  C   -0.077596
    32  C   -0.123385
    33  C    0.067933
    34  C    0.111045
    35  C   -0.384780
    36  C   -0.370247
    37  C   -0.115006
    38  C   -0.103348
    39  C   -0.050672
    40  C   -0.126351
    41  H    0.090634
    42  H    0.099580
    43  H    0.100287
    44  H    0.080564
    45  H    0.093470
    46  H    0.077424
    47  H    0.099926
    48  H    0.100383
    49  H    0.081828
    50  H    0.118133
    51  H    0.094114
    52  H    0.085281
    53  H    0.106100
    54  H    0.045856
    55  H    0.113132
    56  H    0.109904
    57  H    0.103955
    58  H    0.089031
    59  H    0.112201
    60  H    0.096889
    61  H    0.067182
    62  H    0.094763
    63  H    0.101459
    64  H    0.083101
    65  H    0.087228
    66  H    0.074692
    67  H    0.114313
    68  H    0.041569
    69  H    0.127007
    70  H    0.087799
    71  H    0.119000
    72  H    0.086933
    73  H    0.068924
    74  H    0.068980
    75  H    0.135552
    76  H    0.101125
    77  H    0.084421
    78  H    0.119058
    79  H    0.113403
    80  H    0.111225
    81  H    0.074646
    82  H    0.061110
    83  H    0.065801
    84  H    0.029211
    85  H    0.073019
    86  H    0.067473
    87  H    0.128496
    88  H    0.103803
    89  H    0.138231
    90  H    0.122228
    91  H    0.113977
    92  H    0.108904
    93  H    0.084149
    94  H    0.072306
    95  H    0.086138
    96  H    0.065184
 Sum of Mulliken charges =  -0.00000

 Dipole moment (field-independent basis, Debye):
    X=             -0.2075    Y=              0.0095    Z=              0.2227  Tot=              0.3045
 Quadrupole moment (field-independent basis, Debye-Ang):
   XX=           -226.6914   YY=           -232.6931   ZZ=           -256.0933
   XY=             -1.8728   XZ=              3.9133   YZ=             -3.8513

 Normal termination of Gaussian 16 at Thu Aug  1 10:08:51 2019.
