 Gaussian 16, Revision A.03,
 Gaussian 16:  ES64L-G16RevA.03 25-Dec-2016

 ---------------------------------
 # td=(NStates=1) B3LYP/6-31G(d,p)
 ---------------------------------

 --
 TD
 --
 Symbolic Z-matrix:
 Charge =  0 Multiplicity = 1

                         Standard orientation:
 ---------------------------------------------------------------------
 Center     Atomic      Atomic             Coordinates (Angstroms)
 Number     Number       Type             X           Y           Z
 ---------------------------------------------------------------------
      1          6           0       12.156324    0.555963   -0.611311
      2          6           0      -12.114014   -0.077756    0.867852
      3          6           0       13.441441   -0.280781   -0.535542
      4          6           0      -13.064609    1.083337    1.196131
      5          6           0       13.183683   -1.831687   -0.406303
      6          6           0      -13.381219    2.035883    0.064453
      7          6           0       10.915041   -0.003793    0.229282
      8          6           0      -10.995012    0.433586   -0.136717
      9          6           0       12.289846   -2.046624    0.788170
     10          6           0      -12.092461    2.632205   -0.377423
     11          6           0       11.087885   -1.132026    0.936667
     12          6           0      -10.938517    1.683109   -0.692599
     13          6           0       11.662856    0.538341   -2.062149
     14          6           0       12.607952    1.965730   -0.219286
     15          6           0      -13.138536   -1.086793    0.128115
     16          6           0      -11.505880   -0.683115    2.111228
     17          6           0        9.802572    0.814156    0.280574
     18          6           0       -9.871023   -0.562204   -0.171819
     19          6           0       10.064834   -1.681027    1.850372
     20          6           0       -9.899673    2.195862   -1.558692
     21          6           0        8.518013    0.367942    0.268020
     22          6           0       -8.508074   -0.304422   -0.161382
     23          6           0        7.353414    1.339199    0.464954
     24          6           0       -7.506876   -1.338716   -0.365850
     25          6           0        7.665581    2.794815    0.546284
     26          6           0       -7.847290   -2.771712   -0.666720
     27          6           0        6.158583    0.743760    0.238745
     28          6           0       -6.207873   -1.011095   -0.114900
     29          6           0        4.760481    1.447077    0.241016
     30          6           0       -4.988371   -1.663416   -0.342057
     31          6           0        3.680095    0.692638    0.177193
     32          6           0       -3.720407   -1.138817   -0.387067
     33          6           0        2.314563    1.252114    0.096648
     34          6           0       -2.436573   -1.791174   -0.537920
     35          6           0        2.289301    2.769943    0.482304
     36          6           0       -2.537301   -3.287390   -0.836727
     37          6           0        1.140595    0.579164    0.042550
     38          6           0       -1.353368   -1.136764   -0.348648
     39          6           0        1.117788   -0.890315   -0.251997
     40          6           0       -0.041279   -1.677327   -0.394570
     41          1           0       14.023243    0.062059    0.284541
     42          1           0       13.893458   -0.091419   -1.402767
     43          1           0      -12.538656    1.706600    1.924293
     44          1           0      -14.104524    0.596081    1.720149
     45          1           0       14.328112   -2.269902   -0.372784
     46          1           0       12.469047   -2.098849   -1.214603
     47          1           0      -14.109348    2.707214    0.444427
     48          1           0      -13.735150    1.559145   -0.995276
     49          1           0       13.087220   -2.017212    1.691310
     50          1           0       11.869085   -3.075540    0.819558
     51          1           0      -11.760028    3.466710    0.477666
     52          1           0      -12.080095    3.379144   -1.391947
     53          1           0       11.257798   -0.341506   -2.403402
     54          1           0       12.440835    0.878528   -2.769257
     55          1           0       10.757304    1.210018   -1.968014
     56          1           0       12.762176    1.928282    0.828803
     57          1           0       11.794488    2.753675   -0.498980
     58          1           0       13.625612    2.015846   -0.892991
     59          1           0      -13.789377   -0.768819   -0.721873
     60          1           0      -13.783969   -1.338204    0.985804
     61          1           0      -12.444142   -1.877870   -0.455528
     62          1           0      -10.804488    0.252388    2.419882
     63          1           0      -11.109109   -1.592910    1.864824
     64          1           0      -12.212865   -0.899971    2.869399
     65          1           0        9.918820    1.779708    0.216704
     66          1           0      -10.250803   -1.534274   -0.026339
     67          1           0        9.412961   -0.854796    2.353990
     68          1           0       10.608486   -2.044782    2.761496
     69          1           0        9.300913   -2.348615    1.474647
     70          1           0       -9.131375    1.448967   -1.860086
     71          1           0       -9.267166    3.028966   -1.059313
     72          1           0      -10.411837    2.734794   -2.271141
     73          1           0        8.128120   -0.643913    0.271399
     74          1           0       -8.419145    0.791134    0.018132
     75          1           0        8.307922    3.098002    1.489875
     76          1           0        6.806882    3.381593    0.570916
     77          1           0        8.382728    2.955251   -0.372841
     78          1           0       -8.746971   -2.785050   -1.263963
     79          1           0       -8.030318   -3.503032    0.277624
     80          1           0       -6.969948   -3.360390   -1.052681
     81          1           0        6.137952   -0.289407    0.032166
     82          1           0       -6.188301    0.107443    0.079683
     83          1           0        4.835079    2.474354    0.508866
     84          1           0       -5.135260   -2.795766   -0.667928
     85          1           0        3.789745   -0.492258    0.135085
     86          1           0       -3.659680   -0.095441    0.147969
     87          1           0        3.096840    2.874358    1.371995
     88          1           0        1.254790    3.168947    0.782752
     89          1           0        2.724383    3.458954   -0.284220
     90          1           0       -3.257331   -3.241434   -1.597628
     91          1           0       -2.841514   -3.975651    0.088543
     92          1           0       -1.399995   -3.656710   -1.212646
     93          1           0        0.209411    1.174336    0.072621
     94          1           0       -1.482470   -0.054560   -0.334173
     95          1           0        2.071973   -1.377098   -0.287388
     96          1           0       -0.006483   -2.734332   -0.592621
 ---------------------------------------------------------------------

 SCF Done:  E(RB3LYP) =  -1557.59813614     A.U. after   14 cycles

 Excitation energies and oscillator strengths:

 Excited State   1:      Singlet-A      2.4168 eV  513.01 nm  f=2.7754  <S**2>=0.000
     148 ->149         0.69471
 This state for optimization and/or second-order correction.
 Total Energy, E(TD-HF/TD-DFT) =  -1557.50931966
 Copying the excited state density for this state as the 1-particle RhoCI density.

 The electronic state is 1-A.
 Alpha  occ. eigenvalues --  -10.20849 -10.20550 -10.20249 -10.20171 -10.20100
 Alpha  occ. eigenvalues --  -10.20062 -10.20055 -10.19983 -10.19949 -10.19909
 Alpha  occ. eigenvalues --  -10.19875 -10.19685 -10.19643 -10.19536 -10.19336
 Alpha  occ. eigenvalues --  -10.19302 -10.19246 -10.19122 -10.19116 -10.19104
 Alpha  occ. eigenvalues --  -10.19002 -10.18977 -10.18974 -10.18951 -10.18909
 Alpha  occ. eigenvalues --  -10.18852 -10.18848 -10.18831 -10.18658 -10.18587
 Alpha  occ. eigenvalues --  -10.18462 -10.18332 -10.17761 -10.17739 -10.17584
 Alpha  occ. eigenvalues --  -10.17494 -10.17487 -10.16779 -10.16239 -10.15961
 Alpha  occ. eigenvalues --   -0.85318  -0.84969  -0.84190  -0.82928  -0.82330
 Alpha  occ. eigenvalues --   -0.81555  -0.79108  -0.79054  -0.78458  -0.77815
 Alpha  occ. eigenvalues --   -0.77041  -0.75523  -0.73906  -0.72502  -0.72087
 Alpha  occ. eigenvalues --   -0.69621  -0.68927  -0.68326  -0.68313  -0.67925
 Alpha  occ. eigenvalues --   -0.67680  -0.67283  -0.66470  -0.66356  -0.65467
 Alpha  occ. eigenvalues --   -0.62567  -0.61644  -0.59606  -0.58608  -0.57058
 Alpha  occ. eigenvalues --   -0.56714  -0.55929  -0.54571  -0.53488  -0.53122
 Alpha  occ. eigenvalues --   -0.52537  -0.51247  -0.50975  -0.49884  -0.49180
 Alpha  occ. eigenvalues --   -0.48148  -0.47920  -0.46856  -0.46554  -0.46289
 Alpha  occ. eigenvalues --   -0.45626  -0.45315  -0.45093  -0.44712  -0.44404
 Alpha  occ. eigenvalues --   -0.44057  -0.43332  -0.42867  -0.42576  -0.42427
 Alpha  occ. eigenvalues --   -0.41809  -0.41750  -0.41463  -0.41105  -0.40885
 Alpha  occ. eigenvalues --   -0.40552  -0.40355  -0.39991  -0.39988  -0.39562
 Alpha  occ. eigenvalues --   -0.39380  -0.39154  -0.38698  -0.38561  -0.38249
 Alpha  occ. eigenvalues --   -0.38079  -0.37992  -0.37604  -0.37307  -0.37080
 Alpha  occ. eigenvalues --   -0.36822  -0.36663  -0.36412  -0.36210  -0.36021
 Alpha  occ. eigenvalues --   -0.35187  -0.34169  -0.33927  -0.33779  -0.33368
 Alpha  occ. eigenvalues --   -0.33339  -0.33049  -0.32649  -0.32439  -0.32367
 Alpha  occ. eigenvalues --   -0.31530  -0.31470  -0.31009  -0.30875  -0.30779
 Alpha  occ. eigenvalues --   -0.30449  -0.30199  -0.29841  -0.28857  -0.28725
 Alpha  occ. eigenvalues --   -0.28396  -0.27670  -0.26739  -0.24690  -0.23208
 Alpha  occ. eigenvalues --   -0.21008  -0.19086  -0.17134
 Alpha virt. eigenvalues --   -0.07720  -0.05080  -0.02309   0.00157   0.02200
 Alpha virt. eigenvalues --    0.04342   0.05800   0.06107   0.06806   0.06972
 Alpha virt. eigenvalues --    0.07364   0.07717   0.08297   0.08645   0.08697

 Mulliken charges:
               1
     1  C   -0.042750
     2  C   -0.018222
     3  C   -0.160382
     4  C   -0.155323
     5  C   -0.193966
     6  C   -0.153929
     7  C    0.108838
     8  C    0.048897
     9  C   -0.204417
    10  C   -0.206030
    11  C    0.057283
    12  C    0.092966
    13  C   -0.283770
    14  C   -0.281935
    15  C   -0.294152
    16  C   -0.278262
    17  C   -0.122763
    18  C   -0.130641
    19  C   -0.381704
    20  C   -0.370355
    21  C   -0.090264
    22  C   -0.116834
    23  C    0.120661
    24  C    0.118990
    25  C   -0.366977
    26  C   -0.366237
    27  C   -0.138189
    28  C   -0.108200
    29  C   -0.078496
    30  C   -0.085067
    31  C   -0.098091
    32  C   -0.133834
    33  C    0.112551
    34  C    0.138287
    35  C   -0.370322
    36  C   -0.345622
    37  C   -0.116610
    38  C   -0.090998
    39  C   -0.100416
    40  C   -0.104226
    41  H    0.089895
    42  H    0.095089
    43  H    0.086590
    44  H    0.047300
    45  H    0.076133
    46  H    0.096867
    47  H    0.105794
    48  H    0.080027
    49  H    0.074125
    50  H    0.100257
    51  H    0.068398
    52  H    0.050357
    53  H    0.111311
    54  H    0.087035
    55  H    0.084857
    56  H    0.116670
    57  H    0.081981
    58  H    0.081751
    59  H    0.108619
    60  H    0.100409
    61  H    0.070303
    62  H    0.095486
    63  H    0.113864
    64  H    0.103354
    65  H    0.066198
    66  H    0.079450
    67  H    0.103715
    68  H    0.101266
    69  H    0.120599
    70  H    0.126953
    71  H    0.102280
    72  H    0.115145
    73  H    0.080536
    74  H    0.100643
    75  H    0.108203
    76  H    0.112966
    77  H    0.119080
    78  H    0.118326
    79  H    0.098385
    80  H    0.111752
    81  H    0.073069
    82  H    0.063827
    83  H    0.086860
    84  H    0.060532
    85  H    0.080174
    86  H    0.069923
    87  H    0.099229
    88  H    0.100673
    89  H    0.117296
    90  H    0.133586
    91  H    0.112802
    92  H    0.074108
    93  H    0.089276
    94  H    0.076619
    95  H    0.081899
    96  H    0.078670
 Sum of Mulliken charges =  -0.00000

 Dipole moment (field-independent basis, Debye):
    X=              0.1693    Y=              0.4468    Z=              0.4020  Tot=              0.6244
 Quadrupole moment (field-independent basis, Debye-Ang):
   XX=           -232.0006   YY=           -238.4663   ZZ=           -257.2301
   XY=             -0.4351   XZ=             -2.2588   YZ=              1.9903

 Normal termination of Gaussian 16 at Fri Jul 26 19:38:24 2019.
