 Gaussian 16, Revision A.03,
 Gaussian 16:  ES64L-G16RevA.03 25-Dec-2016

 ---------------------------------
 # td=(NStates=1) B3LYP/6-31G(d,p)
 ---------------------------------

 --
 TD
 --
 Symbolic Z-matrix:
 Charge =  0 Multiplicity = 1

                         Standard orientation:
 ---------------------------------------------------------------------
 Center     Atomic      Atomic             Coordinates (Angstroms)
 Number     Number       Type             X           Y           Z
 ---------------------------------------------------------------------
      1          6           0      -12.251421   -0.525992   -0.617949
      2          6           0       12.130808    0.015217    0.889603
      3          6           0      -13.609583    0.201230   -0.613715
      4          6           0       13.049988   -1.211508    1.265566
      5          6           0      -13.305574    1.813939   -0.608618
      6          6           0       13.521712   -1.984828    0.023978
      7          6           0      -11.171607   -0.046181    0.357449
      8          6           0       11.051860   -0.486475   -0.086771
      9          6           0      -12.298764    2.155139    0.632702
     10          6           0       12.244382   -2.662000   -0.516413
     11          6           0      -11.144971    1.159572    0.927756
     12          6           0       11.059437   -1.634397   -0.751698
     13          6           0      -11.736506   -0.641429   -2.071456
     14          6           0      -12.662359   -2.029045   -0.299506
     15          6           0       13.079670    1.116461    0.349922
     16          6           0       11.566893    0.524716    2.283310
     17          6           0       -9.926797   -0.897928    0.441049
     18          6           0       10.029173    0.588626   -0.276934
     19          6           0      -10.161181    1.699857    1.927159
     20          6           0       10.068030   -2.047473   -1.745194
     21          6           0       -8.591151   -0.402851    0.338787
     22          6           0        8.651464    0.272905   -0.362561
     23          6           0       -7.451727   -1.378275    0.437818
     24          6           0        7.557015    1.271618   -0.476018
     25          6           0       -7.655269   -2.738361    0.647313
     26          6           0        7.860589    2.781695   -0.639962
     27          6           0       -6.191789   -0.658526    0.254468
     28          6           0        6.235497    0.846032   -0.422578
     29          6           0       -4.933859   -1.310797    0.251586
     30          6           0        5.065761    1.708268   -0.468735
     31          6           0       -3.789694   -0.663643    0.188530
     32          6           0        3.794615    1.148996   -0.222416
     33          6           0       -2.354075   -1.261072    0.349237
     34          6           0        2.643308    1.866166   -0.381730
     35          6           0       -2.199367   -2.716181    0.443108
     36          6           0        2.593784    3.290688   -0.812723
     37          6           0       -1.263080   -0.474022    0.025305
     38          6           0        1.452451    1.149910   -0.179818
     39          6           0       -1.088951    0.911653   -0.102553
     40          6           0        0.078513    1.533795   -0.290337
     41          1           0      -13.984422    0.053131    0.244221
     42          1           0      -14.307309    0.127916   -1.472238
     43          1           0       12.553108   -1.770617    2.215958
     44          1           0       13.982412   -0.689790    1.762532
     45          1           0      -14.304414    2.434094   -0.637929
     46          1           0      -12.602767    1.919464   -1.412450
     47          1           0       13.979911   -2.886323    0.274586
     48          1           0       13.887687   -1.514285   -0.794219
     49          1           0      -13.123456    2.142136    1.410564
     50          1           0      -11.934121    3.205343    0.679476
     51          1           0       11.887623   -3.479202    0.181310
     52          1           0       12.601509   -3.170350   -1.577665
     53          1           0      -11.415453    0.311827   -2.369946
     54          1           0      -12.548437   -1.054430   -2.915848
     55          1           0      -10.689023   -1.225697   -2.319914
     56          1           0      -12.910752   -2.194780    0.891309
     57          1           0      -11.813464   -2.734737   -0.271405
     58          1           0      -13.598997   -2.251539   -0.818300
     59          1           0       13.392542    0.873891   -0.657633
     60          1           0       13.923351    1.288387    1.092545
     61          1           0       12.446859    1.974055    0.076240
     62          1           0       10.736628   -0.162479    2.618805
     63          1           0       11.197983    1.764797    2.302684
     64          1           0       12.229087    0.436529    2.950059
     65          1           0      -10.123779   -1.947194    0.398564
     66          1           0       10.219361    1.679113   -0.387368
     67          1           0       -9.490530    0.890671    2.056804
     68          1           0      -10.663472    2.070092    2.855295
     69          1           0       -9.577427    2.401002    1.615478
     70          1           0        9.398456   -1.234615   -1.851132
     71          1           0        9.212847   -2.689886   -1.187669
     72          1           0       10.509851   -2.484325   -2.649751
     73          1           0       -8.430727    0.503565    0.084783
     74          1           0        8.377319   -0.806401   -0.343524
     75          1           0       -8.199176   -2.974028    1.658987
     76          1           0       -6.789116   -3.437254    0.570309
     77          1           0       -8.332894   -3.040553   -0.104407
     78          1           0        8.549884    3.295423   -1.528212
     79          1           0        8.391392    3.190783    0.239380
     80          1           0        6.919943    3.308463   -0.760706
     81          1           0       -6.108826    0.447995    0.164933
     82          1           0        6.131011   -0.079910   -0.006593
     83          1           0       -4.703406   -2.220336    0.411270
     84          1           0        5.080426    2.754769   -0.646777
     85          1           0       -4.014902    0.355542   -0.138708
     86          1           0        3.703065    0.064170   -0.210156
     87          1           0       -2.864232   -3.079202    1.258341
     88          1           0       -1.238085   -3.121526    0.549777
     89          1           0       -2.672296   -3.141615   -0.492663
     90          1           0        3.123247    3.426618   -1.752430
     91          1           0        3.383221    3.886111   -0.119978
     92          1           0        1.751524    3.785301   -0.810453
     93          1           0       -0.533196   -1.158476    0.113072
     94          1           0        1.693920    0.306153    0.159166
     95          1           0       -2.004662    1.293652   -0.315434
     96          1           0        0.031826    2.645540   -0.804706
 ---------------------------------------------------------------------

 SCF Done:  E(RB3LYP) =  -1557.48447569     A.U. after   16 cycles

 Excitation energies and oscillator strengths:

 Excited State   1:      Singlet-A      2.1108 eV  587.39 nm  f=2.9081  <S**2>=0.000
     147 ->149         0.13356
     148 ->149         0.69687
     148 <-149        -0.10400
 This state for optimization and/or second-order correction.
 Total Energy, E(TD-HF/TD-DFT) =  -1557.40690667
 Copying the excited state density for this state as the 1-particle RhoCI density.

 The electronic state is 1-A.
 Alpha  occ. eigenvalues --  -10.20876 -10.20755 -10.20686 -10.20556 -10.20136
 Alpha  occ. eigenvalues --  -10.19895 -10.19785 -10.19742 -10.19669 -10.19655
 Alpha  occ. eigenvalues --  -10.19604 -10.19539 -10.19428 -10.19314 -10.19015
 Alpha  occ. eigenvalues --  -10.18956 -10.18918 -10.18830 -10.18814 -10.18794
 Alpha  occ. eigenvalues --  -10.18640 -10.18629 -10.18628 -10.18488 -10.18467
 Alpha  occ. eigenvalues --  -10.18464 -10.18421 -10.18306 -10.18251 -10.18099
 Alpha  occ. eigenvalues --  -10.17807 -10.17804 -10.17724 -10.17682 -10.17231
 Alpha  occ. eigenvalues --  -10.17024 -10.17008 -10.16977 -10.16217 -10.15806
 Alpha  occ. eigenvalues --   -0.84630  -0.84321  -0.84197  -0.83408  -0.82082
 Alpha  occ. eigenvalues --   -0.81124  -0.79421  -0.78381  -0.78252  -0.77436
 Alpha  occ. eigenvalues --   -0.76798  -0.75053  -0.74498  -0.71819  -0.71736
 Alpha  occ. eigenvalues --   -0.71217  -0.69550  -0.68834  -0.68318  -0.68027
 Alpha  occ. eigenvalues --   -0.67921  -0.66784  -0.66579  -0.65952  -0.65318
 Alpha  occ. eigenvalues --   -0.62986  -0.61489  -0.59691  -0.58158  -0.57187
 Alpha  occ. eigenvalues --   -0.56862  -0.56114  -0.56029  -0.54954  -0.54627
 Alpha  occ. eigenvalues --   -0.53787  -0.52500  -0.51872  -0.50214  -0.49277
 Alpha  occ. eigenvalues --   -0.48772  -0.47901  -0.47291  -0.46689  -0.46317
 Alpha  occ. eigenvalues --   -0.45488  -0.45281  -0.44843  -0.44261  -0.43647
 Alpha  occ. eigenvalues --   -0.43567  -0.43362  -0.42813  -0.42440  -0.42031
 Alpha  occ. eigenvalues --   -0.41681  -0.41569  -0.41521  -0.41330  -0.41263
 Alpha  occ. eigenvalues --   -0.41164  -0.40710  -0.40415  -0.40086  -0.39693
 Alpha  occ. eigenvalues --   -0.39643  -0.39049  -0.38857  -0.38606  -0.38604
 Alpha  occ. eigenvalues --   -0.38320  -0.38017  -0.37917  -0.37621  -0.37303
 Alpha  occ. eigenvalues --   -0.36891  -0.36271  -0.35795  -0.35629  -0.35312
 Alpha  occ. eigenvalues --   -0.34999  -0.34485  -0.34133  -0.34001  -0.33815
 Alpha  occ. eigenvalues --   -0.33650  -0.33091  -0.33034  -0.32865  -0.32631
 Alpha  occ. eigenvalues --   -0.31798  -0.31795  -0.31441  -0.31121  -0.30882
 Alpha  occ. eigenvalues --   -0.30223  -0.29557  -0.29374  -0.28694  -0.28169
 Alpha  occ. eigenvalues --   -0.27462  -0.27046  -0.26059  -0.24178  -0.23035
 Alpha  occ. eigenvalues --   -0.21233  -0.18478  -0.16199
 Alpha virt. eigenvalues --   -0.08347  -0.05310  -0.02113   0.00832   0.02400
 Alpha virt. eigenvalues --    0.03811   0.05738   0.06171   0.07169   0.07648
 Alpha virt. eigenvalues --    0.07694   0.08031   0.08067   0.09019   0.09171

 Mulliken charges:
               1
     1  C   -0.013355
     2  C   -0.004345
     3  C   -0.158155
     4  C   -0.179718
     5  C   -0.224461
     6  C   -0.165996
     7  C    0.086970
     8  C    0.068598
     9  C   -0.237543
    10  C   -0.229616
    11  C    0.049358
    12  C    0.082187
    13  C   -0.274642
    14  C   -0.295777
    15  C   -0.292511
    16  C   -0.280182
    17  C   -0.156927
    18  C   -0.122966
    19  C   -0.361946
    20  C   -0.368033
    21  C   -0.067586
    22  C   -0.117041
    23  C    0.131610
    24  C    0.108464
    25  C   -0.394878
    26  C   -0.372895
    27  C   -0.152100
    28  C   -0.123279
    29  C   -0.003792
    30  C   -0.092687
    31  C   -0.130809
    32  C   -0.135073
    33  C    0.059628
    34  C    0.156611
    35  C   -0.380393
    36  C   -0.371656
    37  C   -0.076765
    38  C   -0.086097
    39  C   -0.068813
    40  C   -0.085315
    41  H    0.110448
    42  H    0.099675
    43  H    0.075288
    44  H    0.061545
    45  H    0.079815
    46  H    0.110366
    47  H    0.106190
    48  H    0.117674
    49  H    0.095623
    50  H    0.091189
    51  H    0.102717
    52  H    0.057153
    53  H    0.109736
    54  H    0.072295
    55  H    0.076917
    56  H    0.056549
    57  H    0.100966
    58  H    0.109699
    59  H    0.102455
    60  H    0.103294
    61  H    0.097123
    62  H    0.098082
    63  H    0.053029
    64  H    0.117793
    65  H    0.072710
    66  H    0.093469
    67  H    0.119955
    68  H    0.104762
    69  H    0.125516
    70  H    0.129849
    71  H    0.090182
    72  H    0.111783
    73  H    0.077599
    74  H    0.077231
    75  H    0.117638
    76  H    0.115208
    77  H    0.137388
    78  H    0.085159
    79  H    0.125998
    80  H    0.112974
    81  H    0.083509
    82  H    0.084667
    83  H    0.037080
    84  H    0.084205
    85  H    0.064270
    86  H    0.089255
    87  H    0.118350
    88  H    0.120640
    89  H    0.124191
    90  H    0.126572
    91  H    0.090284
    92  H    0.119042
    93  H    0.052151
    94  H    0.046696
    95  H    0.086353
    96  H    0.051615
 Sum of Mulliken charges =  -0.00000

 Dipole moment (field-independent basis, Debye):
    X=              0.8278    Y=             -0.5381    Z=             -0.3817  Tot=              1.0585
 Quadrupole moment (field-independent basis, Debye-Ang):
   XX=           -228.3546   YY=           -234.1068   ZZ=           -255.6974
   XY=             -0.7817   XZ=              0.9864   YZ=             -3.0225

 Normal termination of Gaussian 16 at Tue Jul 23 23:01:10 2019.
