 Gaussian 16, Revision A.03,
 Gaussian 16:  ES64L-G16RevA.03 25-Dec-2016

 ---------------------------------
 # td=(NStates=1) B3LYP/6-31G(d,p)
 ---------------------------------

 --
 TD
 --
 Symbolic Z-matrix:
 Charge =  0 Multiplicity = 1

                         Standard orientation:
 ---------------------------------------------------------------------
 Center     Atomic      Atomic             Coordinates (Angstroms)
 Number     Number       Type             X           Y           Z
 ---------------------------------------------------------------------
      1          6           0      -12.145206   -0.590361   -0.781772
      2          6           0       12.133929   -0.100288    0.803438
      3          6           0      -13.339436    0.337366   -0.668913
      4          6           0       13.019713   -1.244130    1.235082
      5          6           0      -13.028326    1.863414   -0.725630
      6          6           0       13.360249   -2.112625    0.001934
      7          6           0      -11.032901   -0.054347    0.224005
      8          6           0       11.013996   -0.415228   -0.274257
      9          6           0      -12.321534    2.195685    0.590066
     10          6           0       12.134908   -2.607469   -0.699457
     11          6           0      -11.215100    1.159375    0.836687
     12          6           0       10.997660   -1.640281   -0.766935
     13          6           0      -11.547695   -0.451028   -2.254850
     14          6           0      -12.621714   -2.019868   -0.540959
     15          6           0       13.070370    1.099512    0.119040
     16          6           0       11.544671    0.663358    2.038756
     17          6           0       -9.874921   -0.844385    0.408568
     18          6           0       10.005966    0.618034   -0.366790
     19          6           0      -10.237939    1.501646    1.986529
     20          6           0        9.910065   -2.025622   -1.742781
     21          6           0       -8.592835   -0.484244    0.226105
     22          6           0        8.677277    0.343893   -0.233938
     23          6           0       -7.420981   -1.299513    0.367720
     24          6           0        7.508498    1.319378   -0.377630
     25          6           0       -7.583974   -2.871919    0.579018
     26          6           0        7.840892    2.833376   -0.548302
     27          6           0       -6.148236   -0.707544    0.192921
     28          6           0        6.245880    0.880544   -0.268133
     29          6           0       -4.847796   -1.344688    0.327119
     30          6           0        5.065895    1.704892   -0.391380
     31          6           0       -3.730730   -0.642094    0.324272
     32          6           0        3.815125    1.169068   -0.227655
     33          6           0       -2.409056   -1.195807    0.507903
     34          6           0        2.581965    1.832343   -0.413357
     35          6           0       -2.440109   -2.767355    0.803675
     36          6           0        2.483185    3.327386   -0.654244
     37          6           0       -1.218354   -0.606215    0.444945
     38          6           0        1.409758    1.116855   -0.220519
     39          6           0       -1.066346    0.768121    0.109697
     40          6           0       -0.000989    1.615391   -0.133218
     41          1           0      -14.253430    0.094204    0.126962
     42          1           0      -14.097677    0.153819   -1.425779
     43          1           0       12.303607   -1.992069    1.774930
     44          1           0       13.882203   -0.746690    1.707421
     45          1           0      -13.920678    2.491123   -0.572185
     46          1           0      -12.450148    2.111966   -1.515996
     47          1           0       13.870589   -3.090121    0.402232
     48          1           0       14.060088   -1.553786   -0.600921
     49          1           0      -12.977544    2.121086    1.589102
     50          1           0      -11.715742    3.079861    0.665385
     51          1           0       11.728925   -3.335503   -0.124323
     52          1           0       12.192697   -3.072863   -1.762657
     53          1           0      -11.240003    0.640346   -2.532504
     54          1           0      -12.264792   -1.035201   -3.069870
     55          1           0      -10.352330   -0.844104   -2.395448
     56          1           0      -12.934711   -2.254695    0.418778
     57          1           0      -11.812993   -2.755400   -0.791978
     58          1           0      -13.608381   -2.264849   -0.967794
     59          1           0       13.780677    0.532453   -0.535802
     60          1           0       13.775402    1.558250    0.786810
     61          1           0       12.523166    1.955863   -0.470345
     62          1           0       10.856905   -0.065082    2.630373
     63          1           0       10.930689    1.417081    1.778580
     64          1           0       12.332424    0.845012    2.855422
     65          1           0      -10.037091   -1.930930    0.486615
     66          1           0       10.546793    1.731062   -0.567941
     67          1           0       -9.677824    0.874235    2.486520
     68          1           0      -10.854151    1.836482    2.902513
     69          1           0       -9.311274    2.231621    1.864661
     70          1           0        9.172511   -1.355686   -1.882617
     71          1           0        9.259234   -2.865806   -1.283017
     72          1           0       10.514653   -2.151129   -2.580271
     73          1           0       -8.276419    0.631493    0.240157
     74          1           0        8.156202   -0.621147   -0.045770
     75          1           0       -8.141412   -3.112161    1.669833
     76          1           0       -6.702833   -3.389144    0.334958
     77          1           0       -8.308355   -3.088055   -0.041471
     78          1           0        8.387217    2.987894   -1.413299
     79          1           0        8.474230    3.331370    0.231044
     80          1           0        6.932556    3.438965   -0.529702
     81          1           0       -6.041067    0.295775   -0.168669
     82          1           0        5.992459   -0.143892    0.172304
     83          1           0       -4.814256   -2.373081    0.563793
     84          1           0        4.928121    2.692770   -0.505718
     85          1           0       -3.700148    0.272300    0.156887
     86          1           0        3.797039    0.032268   -0.007860
     87          1           0       -3.244754   -2.526041    1.704087
     88          1           0       -1.427817   -3.146160    1.195893
     89          1           0       -2.570784   -3.426988   -0.110856
     90          1           0        2.831098    3.339049   -1.620608
     91          1           0        3.074296    3.864357    0.065344
     92          1           0        1.471673    3.688571   -0.734413
     93          1           0       -0.235936   -1.081875    0.724586
     94          1           0        1.465282    0.088413    0.157074
     95          1           0       -1.949338    1.330846    0.039247
     96          1           0       -0.293824    2.606162   -0.494275
 ---------------------------------------------------------------------

 SCF Done:  E(RB3LYP) =  -1557.53978096     A.U. after   14 cycles

 Excitation energies and oscillator strengths:

 Excited State   1:      Singlet-A      2.2990 eV  539.29 nm  f=2.7068  <S**2>=0.000
     148 ->149         0.70467
 This state for optimization and/or second-order correction.
 Total Energy, E(TD-HF/TD-DFT) =  -1557.45529331
 Copying the excited state density for this state as the 1-particle RhoCI density.

 The electronic state is 1-A.
 Alpha  occ. eigenvalues --  -10.21428 -10.20936 -10.20930 -10.20115 -10.20111
 Alpha  occ. eigenvalues --  -10.19966 -10.19887 -10.19878 -10.19650 -10.19500
 Alpha  occ. eigenvalues --  -10.19415 -10.19222 -10.19196 -10.19154 -10.19126
 Alpha  occ. eigenvalues --  -10.19053 -10.19014 -10.18826 -10.18786 -10.18750
 Alpha  occ. eigenvalues --  -10.18738 -10.18641 -10.18601 -10.18568 -10.18512
 Alpha  occ. eigenvalues --  -10.18473 -10.18058 -10.17970 -10.17960 -10.17741
 Alpha  occ. eigenvalues --  -10.17724 -10.17635 -10.17574 -10.17499 -10.17467
 Alpha  occ. eigenvalues --  -10.17309 -10.17282 -10.17049 -10.16657 -10.16066
 Alpha  occ. eigenvalues --   -0.84971  -0.84837  -0.84019  -0.83055  -0.81607
 Alpha  occ. eigenvalues --   -0.80847  -0.79157  -0.78173  -0.77997  -0.77765
 Alpha  occ. eigenvalues --   -0.76978  -0.75260  -0.74006  -0.72117  -0.71695
 Alpha  occ. eigenvalues --   -0.69739  -0.68995  -0.68571  -0.68229  -0.67957
 Alpha  occ. eigenvalues --   -0.67549  -0.67279  -0.66406  -0.66153  -0.65852
 Alpha  occ. eigenvalues --   -0.63389  -0.61946  -0.60439  -0.59624  -0.57341
 Alpha  occ. eigenvalues --   -0.57009  -0.55967  -0.55024  -0.54422  -0.53571
 Alpha  occ. eigenvalues --   -0.52869  -0.51741  -0.50030  -0.49703  -0.49374
 Alpha  occ. eigenvalues --   -0.48272  -0.47929  -0.47497  -0.46729  -0.46635
 Alpha  occ. eigenvalues --   -0.46094  -0.45473  -0.44391  -0.44277  -0.43866
 Alpha  occ. eigenvalues --   -0.43638  -0.43591  -0.43258  -0.42378  -0.42193
 Alpha  occ. eigenvalues --   -0.41950  -0.41526  -0.41279  -0.40920  -0.40841
 Alpha  occ. eigenvalues --   -0.40457  -0.40168  -0.39816  -0.39696  -0.39522
 Alpha  occ. eigenvalues --   -0.39165  -0.39012  -0.38485  -0.38073  -0.37882
 Alpha  occ. eigenvalues --   -0.37595  -0.37376  -0.36962  -0.36608  -0.36478
 Alpha  occ. eigenvalues --   -0.36348  -0.36125  -0.35966  -0.35854  -0.35496
 Alpha  occ. eigenvalues --   -0.35310  -0.34763  -0.34476  -0.34072  -0.33833
 Alpha  occ. eigenvalues --   -0.33623  -0.32942  -0.32807  -0.32740  -0.32663
 Alpha  occ. eigenvalues --   -0.32303  -0.31744  -0.31337  -0.31068  -0.30364
 Alpha  occ. eigenvalues --   -0.29954  -0.29747  -0.29228  -0.28928  -0.28622
 Alpha  occ. eigenvalues --   -0.28301  -0.27620  -0.25948  -0.24126  -0.22840
 Alpha  occ. eigenvalues --   -0.21180  -0.19044  -0.16627
 Alpha virt. eigenvalues --   -0.07698  -0.04981  -0.01389   0.00980   0.03001
 Alpha virt. eigenvalues --    0.04378   0.06035   0.06676   0.07293   0.07451
 Alpha virt. eigenvalues --    0.07787   0.07941   0.08273   0.08618   0.08795

 Mulliken charges:
               1
     1  C    0.033402
     2  C    0.001342
     3  C   -0.177700
     4  C   -0.177927
     5  C   -0.185499
     6  C   -0.189192
     7  C    0.078480
     8  C    0.124342
     9  C   -0.205693
    10  C   -0.204122
    11  C    0.043937
    12  C    0.004904
    13  C   -0.283200
    14  C   -0.323329
    15  C   -0.326659
    16  C   -0.279621
    17  C   -0.149813
    18  C   -0.159075
    19  C   -0.356845
    20  C   -0.343205
    21  C   -0.073909
    22  C   -0.087228
    23  C    0.093551
    24  C    0.109287
    25  C   -0.356006
    26  C   -0.374130
    27  C   -0.139791
    28  C   -0.148964
    29  C   -0.078180
    30  C   -0.051803
    31  C   -0.023267
    32  C   -0.117738
    33  C    0.066508
    34  C    0.093569
    35  C   -0.354206
    36  C   -0.369941
    37  C   -0.116912
    38  C   -0.125701
    39  C   -0.081878
    40  C   -0.119689
    41  H    0.059916
    42  H    0.092181
    43  H    0.087215
    44  H    0.100323
    45  H    0.097385
    46  H    0.115200
    47  H    0.075364
    48  H    0.103308
    49  H    0.093123
    50  H    0.113351
    51  H    0.122887
    52  H    0.091457
    53  H    0.098620
    54  H    0.084477
    55  H    0.075193
    56  H    0.116114
    57  H    0.098676
    58  H    0.100374
    59  H    0.088478
    60  H    0.099249
    61  H    0.087332
    62  H    0.070470
    63  H    0.114860
    64  H    0.084089
    65  H    0.075647
    66  H    0.081396
    67  H    0.132108
    68  H    0.079954
    69  H    0.080249
    70  H    0.123622
    71  H    0.089181
    72  H    0.113281
    73  H    0.074430
    74  H    0.084451
    75  H    0.089988
    76  H    0.118414
    77  H    0.140897
    78  H    0.126471
    79  H    0.112026
    80  H    0.107940
    81  H    0.078228
    82  H    0.081939
    83  H    0.089381
    84  H    0.068099
    85  H    0.043357
    86  H    0.062199
    87  H    0.108992
    88  H    0.094018
    89  H    0.123102
    90  H    0.137041
    91  H    0.125414
    92  H    0.112561
    93  H    0.085399
    94  H    0.072340
    95  H    0.070382
    96  H    0.079758
 Sum of Mulliken charges =  -0.00000

 Dipole moment (field-independent basis, Debye):
    X=             -1.7415    Y=             -0.1415    Z=             -0.1323  Tot=              1.7522
 Quadrupole moment (field-independent basis, Debye-Ang):
   XX=           -214.3762   YY=           -235.8623   ZZ=           -256.8211
   XY=              0.1357   XZ=             -0.2668   YZ=             -2.6158

 Normal termination of Gaussian 16 at Mon Jul 29 07:23:51 2019.
