 Gaussian 16, Revision A.03,
 Gaussian 16:  ES64L-G16RevA.03 25-Dec-2016

 ---------------------------------
 # td=(NStates=1) B3LYP/6-31G(d,p)
 ---------------------------------

 --
 TD
 --
 Symbolic Z-matrix:
 Charge =  0 Multiplicity = 1

                         Standard orientation:
 ---------------------------------------------------------------------
 Center     Atomic      Atomic             Coordinates (Angstroms)
 Number     Number       Type             X           Y           Z
 ---------------------------------------------------------------------
      1          6           0      -12.150432   -0.543892   -0.747794
      2          6           0       12.058153   -0.063606    0.921232
      3          6           0      -13.406579    0.263732   -0.548009
      4          6           0       12.967406   -1.306078    1.296868
      5          6           0      -13.128026    1.758493   -0.551150
      6          6           0       13.274698   -2.163227    0.035518
      7          6           0      -11.006204   -0.136781    0.218426
      8          6           0       10.944930   -0.430223   -0.173866
      9          6           0      -12.253800    2.120749    0.653135
     10          6           0       11.987529   -2.670316   -0.590113
     11          6           0      -11.077680    1.137453    0.846210
     12          6           0       10.884968   -1.590141   -0.752934
     13          6           0      -11.599835   -0.350612   -2.137119
     14          6           0      -12.479354   -2.061315   -0.472935
     15          6           0       12.918816    0.972879    0.160009
     16          6           0       11.446616    0.497121    2.164843
     17          6           0       -9.846703   -0.975490    0.366240
     18          6           0        9.830484    0.577026   -0.293528
     19          6           0      -10.122011    1.688611    1.844371
     20          6           0        9.894949   -1.961312   -1.790766
     21          6           0       -8.544144   -0.590478    0.243720
     22          6           0        8.556391    0.327940   -0.201583
     23          6           0       -7.428238   -1.332880    0.462811
     24          6           0        7.551392    1.372301   -0.426309
     25          6           0       -7.454474   -2.851321    0.607323
     26          6           0        7.970706    2.861978   -0.625816
     27          6           0       -6.235832   -0.721677    0.335190
     28          6           0        6.250414    0.975012   -0.335499
     29          6           0       -4.994282   -1.350250    0.400767
     30          6           0        5.034724    1.747769   -0.460647
     31          6           0       -3.754424   -0.704870    0.167736
     32          6           0        3.781697    1.245089   -0.225845
     33          6           0       -2.406119   -1.227712    0.336730
     34          6           0        2.601428    1.903682   -0.385880
     35          6           0       -2.234135   -2.667481    0.449407
     36          6           0        2.604594    3.365079   -0.572260
     37          6           0       -1.270297   -0.432092    0.179442
     38          6           0        1.439516    1.155975   -0.117281
     39          6           0       -1.147986    0.948365   -0.066304
     40          6           0       -0.002374    1.692123   -0.303514
     41          1           0      -13.737864    0.027840    0.634912
     42          1           0      -14.145081   -0.294764   -1.107448
     43          1           0       12.476353   -1.869953    2.076526
     44          1           0       13.949177   -1.070695    1.591232
     45          1           0      -14.026616    2.238874   -0.443947
     46          1           0      -12.771062    1.912824   -1.536330
     47          1           0       13.846122   -3.102134    0.365586
     48          1           0       13.850594   -1.629010   -0.624165
     49          1           0      -12.842255    2.233987    1.579653
     50          1           0      -11.824574    3.242024    0.501763
     51          1           0       11.795880   -3.421131    0.016974
     52          1           0       12.219623   -3.157799   -1.657704
     53          1           0      -11.517490    0.674695   -2.402564
     54          1           0      -12.218819   -0.959365   -2.678875
     55          1           0      -10.513873   -0.801709   -2.494109
     56          1           0      -12.741382   -2.253173    0.600664
     57          1           0      -11.656959   -2.732147   -0.647544
     58          1           0      -13.198430   -2.463626   -1.216205
     59          1           0       13.251095    0.470974   -0.738280
     60          1           0       14.040983    1.188235    0.752433
     61          1           0       12.522261    1.934566   -0.255250
     62          1           0       11.018729   -0.368309    2.691514
     63          1           0       10.814095    1.384402    1.837595
     64          1           0       12.433219    1.174779    2.733817
     65          1           0      -10.061715   -2.070749    0.553964
     66          1           0       10.316557    1.543604   -0.483927
     67          1           0       -9.267902    0.852660    2.162969
     68          1           0      -10.708909    1.863221    2.963735
     69          1           0       -9.680912    2.719475    1.554529
     70          1           0        9.388075   -1.135963   -2.053000
     71          1           0        9.204827   -2.524567   -1.238292
     72          1           0       10.309651   -2.732588   -2.558409
     73          1           0       -8.401507    0.541048    0.263419
     74          1           0        8.561969   -0.716160    0.071732
     75          1           0       -8.117000   -3.099089    1.603047
     76          1           0       -6.587405   -3.468961    0.688505
     77          1           0       -8.081637   -3.288650   -0.296151
     78          1           0        8.552064    2.855800   -1.373522
     79          1           0        8.289787    3.408866    0.370277
     80          1           0        7.012277    3.515055   -1.018002
     81          1           0       -5.949857    0.298485    0.220699
     82          1           0        6.154072    0.000433   -0.128973
     83          1           0       -4.802310   -2.346996    0.925840
     84          1           0        5.225683    2.566296   -0.883192
     85          1           0       -3.622446    0.259931   -0.059714
     86          1           0        3.589456   -0.007306    0.269645
     87          1           0       -2.753700   -2.964928    1.430243
     88          1           0       -0.983963   -3.028891    0.544682
     89          1           0       -2.456234   -3.340046   -0.307153
     90          1           0        3.262685    3.949532   -1.429429
     91          1           0        3.124119    3.909969    0.212334
     92          1           0        1.621852    3.757731   -0.611239
     93          1           0       -0.317366   -0.947031    0.272508
     94          1           0        1.558361    0.151594   -0.144186
     95          1           0       -1.983641    1.472428   -0.108051
     96          1           0       -0.157556    2.768680   -0.460107
 ---------------------------------------------------------------------

 SCF Done:  E(RB3LYP) =  -1557.48798976     A.U. after   16 cycles

 Excitation energies and oscillator strengths:

 Excited State   1:      Singlet-A      2.1006 eV  590.24 nm  f=3.0431  <S**2>=0.000
     148 ->149         0.71098
     148 <-149        -0.11241
 This state for optimization and/or second-order correction.
 Total Energy, E(TD-HF/TD-DFT) =  -1557.41079528
 Copying the excited state density for this state as the 1-particle RhoCI density.

 The electronic state is 1-A.
 Alpha  occ. eigenvalues --  -10.20653 -10.20384 -10.20264 -10.20197 -10.20057
 Alpha  occ. eigenvalues --  -10.20042 -10.20017 -10.19914 -10.19900 -10.19868
 Alpha  occ. eigenvalues --  -10.19760 -10.19611 -10.19533 -10.19448 -10.19401
 Alpha  occ. eigenvalues --  -10.19251 -10.19121 -10.19015 -10.18997 -10.18758
 Alpha  occ. eigenvalues --  -10.18705 -10.18632 -10.18541 -10.18361 -10.18161
 Alpha  occ. eigenvalues --  -10.18088 -10.18077 -10.17938 -10.17838 -10.17727
 Alpha  occ. eigenvalues --  -10.17718 -10.17486 -10.17456 -10.17354 -10.17314
 Alpha  occ. eigenvalues --  -10.17263 -10.17199 -10.17186 -10.17127 -10.16136
 Alpha  occ. eigenvalues --   -0.85281  -0.84972  -0.84102  -0.83813  -0.82631
 Alpha  occ. eigenvalues --   -0.81915  -0.79018  -0.78639  -0.78170  -0.77911
 Alpha  occ. eigenvalues --   -0.77261  -0.75426  -0.74838  -0.72513  -0.71714
 Alpha  occ. eigenvalues --   -0.69966  -0.69158  -0.68545  -0.68393  -0.68168
 Alpha  occ. eigenvalues --   -0.67519  -0.67121  -0.66948  -0.66362  -0.66166
 Alpha  occ. eigenvalues --   -0.63310  -0.62452  -0.60043  -0.59438  -0.57005
 Alpha  occ. eigenvalues --   -0.56484  -0.55496  -0.54873  -0.54252  -0.53675
 Alpha  occ. eigenvalues --   -0.53178  -0.52935  -0.51052  -0.50408  -0.49901
 Alpha  occ. eigenvalues --   -0.48692  -0.48086  -0.47290  -0.47039  -0.46051
 Alpha  occ. eigenvalues --   -0.45974  -0.45391  -0.45198  -0.44369  -0.44271
 Alpha  occ. eigenvalues --   -0.43571  -0.43167  -0.42975  -0.42595  -0.42411
 Alpha  occ. eigenvalues --   -0.42234  -0.42047  -0.41918  -0.41503  -0.41241
 Alpha  occ. eigenvalues --   -0.40335  -0.40141  -0.39798  -0.39640  -0.39282
 Alpha  occ. eigenvalues --   -0.39056  -0.38571  -0.38177  -0.38083  -0.37905
 Alpha  occ. eigenvalues --   -0.37792  -0.37116  -0.37047  -0.36817  -0.36600
 Alpha  occ. eigenvalues --   -0.36466  -0.35752  -0.35454  -0.35061  -0.35008
 Alpha  occ. eigenvalues --   -0.34775  -0.34588  -0.34162  -0.33883  -0.33574
 Alpha  occ. eigenvalues --   -0.33313  -0.33292  -0.33111  -0.32859  -0.32390
 Alpha  occ. eigenvalues --   -0.32225  -0.32006  -0.31925  -0.31638  -0.31168
 Alpha  occ. eigenvalues --   -0.30597  -0.30342  -0.30061  -0.29112  -0.28819
 Alpha  occ. eigenvalues --   -0.28180  -0.27377  -0.25989  -0.24159  -0.22872
 Alpha  occ. eigenvalues --   -0.21434  -0.18884  -0.16316
 Alpha virt. eigenvalues --   -0.08542  -0.05409  -0.01542   0.00631   0.02403
 Alpha virt. eigenvalues --    0.04217   0.05800   0.06154   0.06854   0.07006
 Alpha virt. eigenvalues --    0.07123   0.07528   0.08068   0.08443   0.09034

 Mulliken charges:
               1
     1  C   -0.004485
     2  C    0.018671
     3  C   -0.163911
     4  C   -0.173766
     5  C   -0.179007
     6  C   -0.204595
     7  C    0.077031
     8  C    0.034036
     9  C   -0.218472
    10  C   -0.204066
    11  C    0.080371
    12  C    0.045608
    13  C   -0.283511
    14  C   -0.329922
    15  C   -0.296381
    16  C   -0.264480
    17  C   -0.147226
    18  C   -0.135668
    19  C   -0.346779
    20  C   -0.359146
    21  C   -0.103933
    22  C   -0.070892
    23  C    0.147180
    24  C    0.060288
    25  C   -0.362487
    26  C   -0.345029
    27  C   -0.101223
    28  C   -0.092405
    29  C   -0.089132
    30  C   -0.059637
    31  C   -0.096116
    32  C   -0.106371
    33  C    0.106090
    34  C    0.178907
    35  C   -0.361141
    36  C   -0.381254
    37  C   -0.120192
    38  C   -0.134552
    39  C   -0.054642
    40  C   -0.125930
    41  H    0.054340
    42  H    0.091863
    43  H    0.086664
    44  H    0.102836
    45  H    0.099710
    46  H    0.107130
    47  H    0.070900
    48  H    0.110439
    49  H    0.113642
    50  H    0.077054
    51  H    0.117131
    52  H    0.066599
    53  H    0.112015
    54  H    0.103759
    55  H    0.080542
    56  H    0.106000
    57  H    0.106581
    58  H    0.091338
    59  H    0.111966
    60  H    0.049421
    61  H    0.101117
    62  H    0.103780
    63  H    0.103774
    64  H    0.049219
    65  H    0.082007
    66  H    0.072030
    67  H    0.097150
    68  H    0.067978
    69  H    0.107785
    70  H    0.124623
    71  H    0.122495
    72  H    0.093423
    73  H    0.086668
    74  H    0.092488
    75  H    0.091166
    76  H    0.125009
    77  H    0.107594
    78  H    0.140178
    79  H    0.119373
    80  H    0.078988
    81  H    0.084948
    82  H    0.064466
    83  H    0.073129
    84  H    0.054975
    85  H    0.059761
    86  H    0.040660
    87  H    0.107657
    88  H    0.053694
    89  H    0.142709
    90  H    0.092137
    91  H    0.131667
    92  H    0.115183
    93  H    0.074397
    94  H    0.091168
    95  H    0.070760
    96  H    0.084082
 Sum of Mulliken charges =  -0.00000

 Dipole moment (field-independent basis, Debye):
    X=             -1.2920    Y=             -0.0079    Z=             -0.4936  Tot=              1.3831
 Quadrupole moment (field-independent basis, Debye-Ang):
   XX=           -226.2715   YY=           -231.6244   ZZ=           -257.0934
   XY=             -1.5671   XZ=             -0.5704   YZ=             -3.6305

 Normal termination of Gaussian 16 at Mon Jul 29 10:09:06 2019.
