 Gaussian 16, Revision A.03,
 Gaussian 16:  ES64L-G16RevA.03 25-Dec-2016

 ---------------------------------
 # td=(NStates=1) B3LYP/6-31G(d,p)
 ---------------------------------

 --
 TD
 --
 Symbolic Z-matrix:
 Charge =  0 Multiplicity = 1

                         Standard orientation:
 ---------------------------------------------------------------------
 Center     Atomic      Atomic             Coordinates (Angstroms)
 Number     Number       Type             X           Y           Z
 ---------------------------------------------------------------------
      1          6           0       12.053691    0.521063   -0.697000
      2          6           0      -12.078343   -0.032877    0.875364
      3          6           0       13.369837   -0.391160   -0.559783
      4          6           0      -13.009847    1.300109    1.268856
      5          6           0       12.970201   -1.948728   -0.504085
      6          6           0      -13.280098    2.115158   -0.011342
      7          6           0       11.018395   -0.037238    0.270159
      8          6           0      -10.987731    0.391681   -0.084199
      9          6           0       12.101396   -2.220627    0.705557
     10          6           0      -11.954964    2.688521   -0.591982
     11          6           0       11.080307   -1.221834    0.907387
     12          6           0      -10.877134    1.576793   -0.755989
     13          6           0       11.579197    0.516253   -2.083902
     14          6           0       12.514733    1.905978   -0.362135
     15          6           0      -12.912592   -1.163772    0.288215
     16          6           0      -11.524220   -0.481558    2.296786
     17          6           0        9.873537    0.828360    0.441360
     18          6           0       -9.912837   -0.657932   -0.108681
     19          6           0       10.131006   -1.550965    2.000091
     20          6           0       -9.832662    2.016531   -1.691035
     21          6           0        8.607601    0.563531    0.434668
     22          6           0       -8.562264   -0.376963   -0.287746
     23          6           0        7.394026    1.378788    0.539286
     24          6           0       -7.449207   -1.457262   -0.321083
     25          6           0        7.508403    2.910401    0.843355
     26          6           0       -8.021336   -2.870593   -0.447991
     27          6           0        6.126323    0.823867    0.391767
     28          6           0       -6.160009   -1.012535   -0.349798
     29          6           0        4.919245    1.401826    0.344227
     30          6           0       -5.015195   -1.771977   -0.330017
     31          6           0        3.646292    0.753780    0.023586
     32          6           0       -3.732183   -1.161277   -0.393189
     33          6           0        2.298020    1.382006    0.013521
     34          6           0       -2.506209   -1.830779   -0.505133
     35          6           0        2.192457    2.855994    0.372907
     36          6           0       -2.419275   -3.263191   -0.770366
     37          6           0        1.316992    0.637415   -0.166843
     38          6           0       -1.309468   -1.090787   -0.284373
     39          6           0        1.097381   -0.826647   -0.323840
     40          6           0       -0.044939   -1.573469   -0.418549
     41          1           0       13.826760   -0.162355    0.526152
     42          1           0       14.252333   -0.188688   -1.291106
     43          1           0      -12.287591    1.761421    2.009059
     44          1           0      -14.057421    1.023199    1.737243
     45          1           0       13.904508   -2.404086   -0.723753
     46          1           0       12.371895   -2.001353   -1.441527
     47          1           0      -14.049616    2.888498    0.466466
     48          1           0      -13.783120    1.479866   -0.699794
     49          1           0       12.822188   -2.021331    1.500233
     50          1           0       11.677538   -3.280228    0.827724
     51          1           0      -11.632919    3.493748    0.082011
     52          1           0      -12.046000    3.232354   -1.626447
     53          1           0       11.267809   -0.554970   -2.435949
     54          1           0       12.272243    0.859041   -2.895321
     55          1           0       10.705282    1.045868   -2.072179
     56          1           0       13.022610    2.250815    0.710379
     57          1           0       11.762475    2.686229   -0.575080
     58          1           0       13.248106    2.184343   -0.956136
     59          1           0      -13.458683   -0.941363   -0.593836
     60          1           0      -13.761224   -1.538449    0.867280
     61          1           0      -12.331459   -1.993367    0.000838
     62          1           0      -10.794827    0.171037    2.885691
     63          1           0      -11.111148   -1.501110    2.157276
     64          1           0      -12.392955   -0.585691    2.836248
     65          1           0       10.389831    1.905916    0.393131
     66          1           0      -10.306533   -1.745801    0.181866
     67          1           0        9.260743   -0.974706    2.382423
     68          1           0       10.728900   -1.977399    2.914698
     69          1           0        9.697486   -2.524041    1.591726
     70          1           0       -9.326958    1.164017   -2.323037
     71          1           0       -9.092796    2.632493   -1.212007
     72          1           0      -10.322658    2.733425   -2.505141
     73          1           0        8.227573   -0.561792    0.479269
     74          1           0       -8.174321    0.681875   -0.254710
     75          1           0        8.042392    3.084299    1.536876
     76          1           0        6.700566    3.612396    0.846186
     77          1           0        8.053597    3.288949    0.193972
     78          1           0       -8.647527   -2.997913   -1.499616
     79          1           0       -8.765512   -2.927079    0.453887
     80          1           0       -7.270434   -3.726766   -0.303470
     81          1           0        5.958260   -0.226153   -0.061132
     82          1           0       -5.869910    0.077301   -0.278088
     83          1           0        4.868014    2.388388    0.345508
     84          1           0       -5.015622   -2.779286   -0.628247
     85          1           0        3.786732   -0.307303   -0.208516
     86          1           0       -3.617703   -0.072639   -0.120521
     87          1           0        2.528647    2.928623    1.250361
     88          1           0        1.080893    3.101102    0.409763
     89          1           0        2.533538    3.385286   -0.389280
     90          1           0       -2.756307   -3.494205   -1.955955
     91          1           0       -3.139876   -3.937442   -0.224520
     92          1           0       -1.397685   -3.698471   -0.525811
     93          1           0        0.417377    1.149798   -0.190126
     94          1           0       -1.408874   -0.088005   -0.304391
     95          1           0        2.024310   -1.262324   -0.383255
     96          1           0        0.135897   -2.491275   -0.715514
 ---------------------------------------------------------------------

 SCF Done:  E(RB3LYP) =  -1557.51021330     A.U. after   17 cycles

 Excitation energies and oscillator strengths:

 Excited State   1:      Singlet-A      2.0540 eV  603.63 nm  f=2.9590  <S**2>=0.000
     147 ->149        -0.10315
     148 ->149         0.70238
     148 <-149        -0.11287
 This state for optimization and/or second-order correction.
 Total Energy, E(TD-HF/TD-DFT) =  -1557.43473083
 Copying the excited state density for this state as the 1-particle RhoCI density.

 The electronic state is 1-A.
 Alpha  occ. eigenvalues --  -10.20961 -10.20808 -10.20536 -10.20263 -10.19956
 Alpha  occ. eigenvalues --  -10.19951 -10.19663 -10.19661 -10.19562 -10.19514
 Alpha  occ. eigenvalues --  -10.19394 -10.19220 -10.19150 -10.19047 -10.18992
 Alpha  occ. eigenvalues --  -10.18992 -10.18823 -10.18781 -10.18759 -10.18739
 Alpha  occ. eigenvalues --  -10.18733 -10.18661 -10.18540 -10.18497 -10.18321
 Alpha  occ. eigenvalues --  -10.18220 -10.18194 -10.18183 -10.18005 -10.17730
 Alpha  occ. eigenvalues --  -10.17470 -10.17469 -10.17353 -10.17217 -10.17051
 Alpha  occ. eigenvalues --  -10.16991 -10.16463 -10.16444 -10.16274 -10.14276
 Alpha  occ. eigenvalues --   -0.86093  -0.84216  -0.83854  -0.83251  -0.82050
 Alpha  occ. eigenvalues --   -0.81193  -0.80489  -0.78609  -0.78046  -0.77937
 Alpha  occ. eigenvalues --   -0.76323  -0.75738  -0.74199  -0.73291  -0.71764
 Alpha  occ. eigenvalues --   -0.70884  -0.70080  -0.68865  -0.68592  -0.68047
 Alpha  occ. eigenvalues --   -0.67695  -0.67066  -0.66701  -0.66584  -0.65593
 Alpha  occ. eigenvalues --   -0.63074  -0.62232  -0.59439  -0.58614  -0.57517
 Alpha  occ. eigenvalues --   -0.57295  -0.56748  -0.54973  -0.54383  -0.53372
 Alpha  occ. eigenvalues --   -0.53035  -0.51967  -0.50558  -0.48931  -0.48846
 Alpha  occ. eigenvalues --   -0.47956  -0.47604  -0.47004  -0.46890  -0.46583
 Alpha  occ. eigenvalues --   -0.45922  -0.45733  -0.45048  -0.44592  -0.44327
 Alpha  occ. eigenvalues --   -0.43963  -0.43326  -0.42893  -0.42414  -0.42139
 Alpha  occ. eigenvalues --   -0.42119  -0.41886  -0.41653  -0.41231  -0.40884
 Alpha  occ. eigenvalues --   -0.40258  -0.40044  -0.39943  -0.39597  -0.39128
 Alpha  occ. eigenvalues --   -0.38988  -0.38921  -0.38711  -0.38524  -0.38394
 Alpha  occ. eigenvalues --   -0.38277  -0.38068  -0.37706  -0.36877  -0.36640
 Alpha  occ. eigenvalues --   -0.36443  -0.36308  -0.36046  -0.35587  -0.35259
 Alpha  occ. eigenvalues --   -0.34980  -0.34724  -0.34372  -0.34257  -0.34039
 Alpha  occ. eigenvalues --   -0.33782  -0.33425  -0.33069  -0.32938  -0.32736
 Alpha  occ. eigenvalues --   -0.32122  -0.31718  -0.31710  -0.31244  -0.31201
 Alpha  occ. eigenvalues --   -0.31030  -0.30221  -0.29955  -0.29499  -0.28207
 Alpha  occ. eigenvalues --   -0.27873  -0.27240  -0.26016  -0.24465  -0.22449
 Alpha  occ. eigenvalues --   -0.21068  -0.18265  -0.15926
 Alpha virt. eigenvalues --   -0.08368  -0.05483  -0.01599   0.01084   0.02626
 Alpha virt. eigenvalues --    0.05293   0.06389   0.06939   0.07342   0.07775
 Alpha virt. eigenvalues --    0.07881   0.08381   0.08600   0.09280   0.09681

 Mulliken charges:
               1
     1  C   -0.007430
     2  C   -0.033224
     3  C   -0.192944
     4  C   -0.181271
     5  C   -0.195976
     6  C   -0.179547
     7  C    0.083226
     8  C    0.114538
     9  C   -0.219073
    10  C   -0.213090
    11  C    0.089558
    12  C    0.058319
    13  C   -0.282817
    14  C   -0.296041
    15  C   -0.314692
    16  C   -0.296389
    17  C   -0.136200
    18  C   -0.135059
    19  C   -0.362888
    20  C   -0.370101
    21  C   -0.095626
    22  C   -0.109710
    23  C    0.079143
    24  C    0.098398
    25  C   -0.346066
    26  C   -0.353390
    27  C   -0.124050
    28  C   -0.107592
    29  C   -0.057984
    30  C   -0.080849
    31  C   -0.149612
    32  C   -0.135645
    33  C    0.092820
    34  C    0.156065
    35  C   -0.343791
    36  C   -0.381816
    37  C   -0.106164
    38  C   -0.108456
    39  C   -0.089583
    40  C   -0.055435
    41  H    0.065760
    42  H    0.077632
    43  H    0.094464
    44  H    0.073439
    45  H    0.098452
    46  H    0.095420
    47  H    0.070222
    48  H    0.110187
    49  H    0.119326
    50  H    0.094564
    51  H    0.110067
    52  H    0.079396
    53  H    0.088421
    54  H    0.096497
    55  H    0.115936
    56  H    0.076371
    57  H    0.092971
    58  H    0.114869
    59  H    0.107728
    60  H    0.097056
    61  H    0.104845
    62  H    0.100022
    63  H    0.084055
    64  H    0.113844
    65  H    0.066491
    66  H    0.077887
    67  H    0.131942
    68  H    0.090865
    69  H    0.098824
    70  H    0.115096
    71  H    0.126348
    72  H    0.080257
    73  H    0.077444
    74  H    0.089734
    75  H    0.118647
    76  H    0.105426
    77  H    0.125722
    78  H    0.110168
    79  H    0.115767
    80  H    0.101847
    81  H    0.062695
    82  H    0.075642
    83  H    0.063376
    84  H    0.080302
    85  H    0.076764
    86  H    0.071463
    87  H    0.139578
    88  H    0.090100
    89  H    0.133723
    90  H    0.092954
    91  H    0.113896
    92  H    0.111255
    93  H    0.049524
    94  H    0.078235
    95  H    0.063935
    96  H    0.072997
 Sum of Mulliken charges =  -0.00000

 Dipole moment (field-independent basis, Debye):
    X=              0.8643    Y=              0.3081    Z=             -0.3020  Tot=              0.9659
 Quadrupole moment (field-independent basis, Debye-Ang):
   XX=           -213.8086   YY=           -232.9238   ZZ=           -254.6161
   XY=              5.0795   XZ=             -4.5558   YZ=              1.0843

 Normal termination of Gaussian 16 at Mon Jul 29 10:23:25 2019.
