 Gaussian 16, Revision A.03,
 Gaussian 16:  ES64L-G16RevA.03 25-Dec-2016

 ---------------------------------
 # td=(NStates=1) B3LYP/6-31G(d,p)
 ---------------------------------

 --
 TD
 --
 Symbolic Z-matrix:
 Charge =  0 Multiplicity = 1

                         Standard orientation:
 ---------------------------------------------------------------------
 Center     Atomic      Atomic             Coordinates (Angstroms)
 Number     Number       Type             X           Y           Z
 ---------------------------------------------------------------------
      1          6           0      -12.134327   -0.524862   -0.658697
      2          6           0       12.131368   -0.074954    0.849737
      3          6           0      -13.337681    0.375679   -0.543312
      4          6           0       12.925567   -1.272235    1.215347
      5          6           0      -12.968321    1.893689   -0.610549
      6          6           0       13.317718   -2.095392    0.155678
      7          6           0      -11.016624   -0.021462    0.217176
      8          6           0       11.074988   -0.504832   -0.143298
      9          6           0      -12.198290    2.127573    0.476695
     10          6           0       12.074217   -2.595942   -0.591018
     11          6           0      -11.088464    1.250800    0.746912
     12          6           0       11.055617   -1.634792   -0.872419
     13          6           0      -11.631358   -0.615770   -2.152792
     14          6           0      -12.430603   -1.997431   -0.215590
     15          6           0       12.978633    1.003004    0.148586
     16          6           0       11.572252    0.549793    2.177704
     17          6           0       -9.830434   -0.894080    0.294389
     18          6           0        9.908742    0.581630   -0.268681
     19          6           0      -10.141180    1.724193    1.885364
     20          6           0        9.862786   -1.927543   -1.770978
     21          6           0       -8.586342   -0.566358    0.327320
     22          6           0        8.542736    0.363940   -0.234487
     23          6           0       -7.458663   -1.424680    0.558002
     24          6           0        7.475294    1.408948   -0.288928
     25          6           0       -7.610044   -2.911277    0.613100
     26          6           0        7.917419    2.804682   -0.524811
     27          6           0       -6.218427   -0.847043    0.461885
     28          6           0        6.228613    0.950884   -0.385730
     29          6           0       -4.904687   -1.414377    0.629709
     30          6           0        5.046822    1.746547   -0.373879
     31          6           0       -3.722650   -0.754012    0.273979
     32          6           0        3.803558    1.194625   -0.272086
     33          6           0       -2.469592   -1.264035    0.305862
     34          6           0        2.485041    1.941660   -0.447713
     35          6           0       -2.225835   -2.745862    0.474421
     36          6           0        2.501990    3.418487   -0.385889
     37          6           0       -1.294116   -0.507697    0.012650
     38          6           0        1.329494    1.195303   -0.376904
     39          6           0       -1.171269    0.847331   -0.236890
     40          6           0       -0.004050    1.578345   -0.355317
     41          1           0      -13.808986    0.305802    0.576361
     42          1           0      -14.228087    0.054899   -1.105465
     43          1           0       12.336704   -1.747941    2.054988
     44          1           0       13.828912   -0.771490    1.738913
     45          1           0      -13.913321    2.390862   -0.586888
     46          1           0      -12.525409    2.181053   -1.594572
     47          1           0       14.140954   -2.987945    0.573860
     48          1           0       13.957788   -1.568536   -0.685745
     49          1           0      -12.856883    2.254211    1.411746
     50          1           0      -11.700231    3.168620    0.505998
     51          1           0       11.598871   -3.458546    0.104878
     52          1           0       12.108063   -3.221420   -1.492091
     53          1           0      -11.333135    0.512934   -2.533467
     54          1           0      -12.290471   -0.934774   -2.780285
     55          1           0      -10.709404   -1.209625   -2.168898
     56          1           0      -12.805413   -2.024346    0.729565
     57          1           0      -11.682040   -2.580021   -0.526676
     58          1           0      -13.279917   -2.401200   -0.954638
     59          1           0       13.475039    0.654401   -0.749048
     60          1           0       13.742490    1.256825    0.987167
     61          1           0       12.207056    1.738393   -0.137325
     62          1           0       10.789755   -0.046539    2.807379
     63          1           0       10.995553    1.411319    1.876193
     64          1           0       12.497692    0.894305    2.757518
     65          1           0      -10.025853   -1.867429    0.328669
     66          1           0       10.264064    1.531309   -0.370181
     67          1           0       -9.672700    0.927703    2.349206
     68          1           0      -10.950777    2.105797    2.669201
     69          1           0       -9.217993    2.389017    1.700602
     70          1           0        8.908272   -1.167928   -1.968094
     71          1           0        9.582744   -2.909025   -1.340527
     72          1           0       10.285910   -2.437985   -2.707970
     73          1           0       -8.229758    0.452528    0.058265
     74          1           0        8.390609   -0.758737   -0.015878
     75          1           0       -8.196879   -3.045067    1.542571
     76          1           0       -6.864803   -3.766417    0.444204
     77          1           0       -8.247452   -3.312261   -0.147930
     78          1           0        8.616847    3.047319   -1.351564
     79          1           0        8.386406    3.415417    0.401858
     80          1           0        7.269142    3.540841   -0.813886
     81          1           0       -6.288559    0.217417    0.338922
     82          1           0        6.007064    0.015601   -0.448431
     83          1           0       -4.703696   -2.364309    0.706804
     84          1           0        4.990163    2.764152   -0.855831
     85          1           0       -3.787680    0.083936    0.005995
     86          1           0        3.728329    0.197249   -0.134977
     87          1           0       -2.639089   -3.095525    1.284317
     88          1           0       -1.301313   -3.082191    0.201364
     89          1           0       -2.670199   -3.559453   -0.256807
     90          1           0        2.985428    3.717835   -1.440659
     91          1           0        3.307394    3.864700    0.336808
     92          1           0        1.585513    3.913241   -0.287520
     93          1           0       -0.285537   -0.966988   -0.219614
     94          1           0        1.586424    0.070213   -0.555901
     95          1           0       -2.130953    1.433919   -0.318612
     96          1           0        0.033961    2.599038   -0.631136
 ---------------------------------------------------------------------

 SCF Done:  E(RB3LYP) =  -1557.48199640     A.U. after   16 cycles

 Excitation energies and oscillator strengths:

 Excited State   1:      Singlet-A      2.0905 eV  593.08 nm  f=3.1081  <S**2>=0.000
     148 ->149         0.70468
     148 <-149        -0.13190
 This state for optimization and/or second-order correction.
 Total Energy, E(TD-HF/TD-DFT) =  -1557.40517195
 Copying the excited state density for this state as the 1-particle RhoCI density.

 The electronic state is 1-A.
 Alpha  occ. eigenvalues --  -10.20648 -10.20431 -10.20414 -10.19905 -10.19819
 Alpha  occ. eigenvalues --  -10.19608 -10.19491 -10.19405 -10.19213 -10.19104
 Alpha  occ. eigenvalues --  -10.19098 -10.19053 -10.18980 -10.18899 -10.18884
 Alpha  occ. eigenvalues --  -10.18717 -10.18619 -10.18591 -10.18563 -10.18543
 Alpha  occ. eigenvalues --  -10.18499 -10.18486 -10.18467 -10.18328 -10.18101
 Alpha  occ. eigenvalues --  -10.18074 -10.18023 -10.17950 -10.17859 -10.17850
 Alpha  occ. eigenvalues --  -10.17740 -10.17735 -10.17336 -10.17314 -10.17017
 Alpha  occ. eigenvalues --  -10.16969 -10.16662 -10.16627 -10.16564 -10.16134
 Alpha  occ. eigenvalues --   -0.86381  -0.86381  -0.84235  -0.83562  -0.82959
 Alpha  occ. eigenvalues --   -0.82030  -0.79865  -0.79384  -0.78997  -0.77654
 Alpha  occ. eigenvalues --   -0.77075  -0.75689  -0.74714  -0.72858  -0.72023
 Alpha  occ. eigenvalues --   -0.71091  -0.69773  -0.69368  -0.68427  -0.67990
 Alpha  occ. eigenvalues --   -0.67837  -0.67233  -0.67078  -0.66951  -0.66343
 Alpha  occ. eigenvalues --   -0.64296  -0.61822  -0.60583  -0.59233  -0.57546
 Alpha  occ. eigenvalues --   -0.56982  -0.56057  -0.55811  -0.55205  -0.54511
 Alpha  occ. eigenvalues --   -0.53532  -0.52943  -0.51083  -0.49853  -0.49624
 Alpha  occ. eigenvalues --   -0.48692  -0.48306  -0.48123  -0.47927  -0.47139
 Alpha  occ. eigenvalues --   -0.46302  -0.45836  -0.45422  -0.45160  -0.44818
 Alpha  occ. eigenvalues --   -0.44188  -0.43909  -0.43777  -0.43257  -0.42614
 Alpha  occ. eigenvalues --   -0.41756  -0.41622  -0.41016  -0.40945  -0.40780
 Alpha  occ. eigenvalues --   -0.40483  -0.40239  -0.40016  -0.39653  -0.39167
 Alpha  occ. eigenvalues --   -0.39094  -0.39038  -0.38431  -0.38409  -0.38021
 Alpha  occ. eigenvalues --   -0.37663  -0.37551  -0.37262  -0.36814  -0.36494
 Alpha  occ. eigenvalues --   -0.36339  -0.36095  -0.36061  -0.35587  -0.35391
 Alpha  occ. eigenvalues --   -0.35132  -0.35065  -0.34951  -0.34578  -0.34207
 Alpha  occ. eigenvalues --   -0.33865  -0.33681  -0.33627  -0.33330  -0.33196
 Alpha  occ. eigenvalues --   -0.32435  -0.31416  -0.31306  -0.31060  -0.30839
 Alpha  occ. eigenvalues --   -0.30263  -0.30066  -0.29504  -0.29057  -0.28745
 Alpha  occ. eigenvalues --   -0.28035  -0.27620  -0.26033  -0.23838  -0.22244
 Alpha  occ. eigenvalues --   -0.20778  -0.19197  -0.16183
 Alpha virt. eigenvalues --   -0.08779  -0.04678  -0.01813   0.00630   0.02579
 Alpha virt. eigenvalues --    0.04177   0.05635   0.06356   0.06666   0.07280
 Alpha virt. eigenvalues --    0.08381   0.08583   0.08632   0.09058   0.09091

 Mulliken charges:
               1
     1  C   -0.009020
     2  C   -0.033401
     3  C   -0.192105
     4  C   -0.131830
     5  C   -0.177821
     6  C   -0.168745
     7  C    0.098612
     8  C    0.037295
     9  C   -0.202126
    10  C   -0.228948
    11  C    0.057810
    12  C    0.115063
    13  C   -0.284767
    14  C   -0.290844
    15  C   -0.276881
    16  C   -0.291825
    17  C   -0.131337
    18  C   -0.124375
    19  C   -0.357273
    20  C   -0.368825
    21  C   -0.084761
    22  C   -0.140886
    23  C    0.136530
    24  C    0.130494
    25  C   -0.385856
    26  C   -0.384967
    27  C   -0.142040
    28  C   -0.094826
    29  C   -0.066619
    30  C   -0.086354
    31  C   -0.021158
    32  C   -0.098898
    33  C    0.102552
    34  C    0.106100
    35  C   -0.369828
    36  C   -0.376399
    37  C   -0.132177
    38  C   -0.104175
    39  C   -0.075537
    40  C   -0.102285
    41  H    0.058037
    42  H    0.082446
    43  H    0.095879
    44  H    0.064980
    45  H    0.095535
    46  H    0.097199
    47  H    0.059787
    48  H    0.090447
    49  H    0.093891
    50  H    0.089943
    51  H    0.080325
    52  H    0.090699
    53  H    0.068189
    54  H    0.112650
    55  H    0.102414
    56  H    0.114486
    57  H    0.115458
    58  H    0.063140
    59  H    0.108541
    60  H    0.082740
    61  H    0.102170
    62  H    0.097048
    63  H    0.103919
    64  H    0.088791
    65  H    0.067447
    66  H    0.079296
    67  H    0.129305
    68  H    0.084933
    69  H    0.102181
    70  H    0.132661
    71  H    0.110710
    72  H    0.088004
    73  H    0.078589
    74  H    0.093753
    75  H    0.118216
    76  H    0.112200
    77  H    0.121650
    78  H    0.121388
    79  H    0.092938
    80  H    0.120792
    81  H    0.068640
    82  H    0.072303
    83  H    0.063061
    84  H    0.077857
    85  H    0.016128
    86  H    0.071134
    87  H    0.131000
    88  H    0.116950
    89  H    0.080288
    90  H    0.101170
    91  H    0.119960
    92  H    0.123106
    93  H    0.081474
    94  H    0.060714
    95  H    0.077859
    96  H    0.078012
 Sum of Mulliken charges =  -0.00000

 Dipole moment (field-independent basis, Debye):
    X=             -0.8643    Y=             -0.2206    Z=             -0.9529  Tot=              1.3053
 Quadrupole moment (field-independent basis, Debye-Ang):
   XX=           -226.0874   YY=           -232.6312   ZZ=           -255.6085
   XY=              3.7183   XZ=             -0.7603   YZ=             -1.3635

 Normal termination of Gaussian 16 at Tue Jul 23 13:48:22 2019.
