 Gaussian 16, Revision A.03,

 ----------------------------------------------------------------------
 # wB97XD/Def2TZVP Geom=Checkpoint iop(3/107=0110000000,3/108=011000000
 0)
 ----------------------------------------------------------------------

 ------
 cla-s0
 ------
 Structure from the checkpoint file:  "cla-s0-01100.chk"
 Charge =  0 Multiplicity = 1

 SCF Done:  E(RwB97XD) =  -2935.06997498     A.U. after   17 cycles
 Normal termination of Gaussian 16 at Sun Dec  8 08:21:28 2019.

 ----------------------------------------------------------------------
 # wB97XD/Def2TZVP Geom=Checkpoint iop(3/107=0110000000,3/108=011000000
 0)
 ----------------------------------------------------------------------

 -------------
 cla-s0-Cation
 -------------
 Structure from the checkpoint file:  "/home/padawan/israel-mol/w-tuning/chla/tuning/logs/Gau-14860.chk"
 Charge =  1 Multiplicity = 2

 SCF Done:  E(UwB97XD) =  -2934.84666490     A.U. after   25 cycles
 Normal termination of Gaussian 16 at Sun Dec  8 13:18:22 2019.
 Gaussian 16:  ES64L-G16RevA.03 25-Dec-2016

 ----------------------------------------------------------------------
 # wB97XD/Def2TZVP Geom=Checkpoint iop(3/107=0110000000,3/108=011000000
 0)
 ----------------------------------------------------------------------

 ------------
 cla-s0-Anion
 ------------
 Structure from the checkpoint file:  "/home/padawan/israel-mol/w-tuning/chla/tuning/logs/Gau-16089.chk"
 Charge = -1 Multiplicity = 2

                         Standard orientation:
 ---------------------------------------------------------------------
 Center     Atomic      Atomic             Coordinates (Angstroms)
 Number     Number       Type             X           Y           Z
 ---------------------------------------------------------------------
      1         12           0       -7.193104    0.486516    0.135702
      2          6           0       -4.716348   -1.858831    0.463745
      3          6           0       -4.969493    2.898781    0.986155
      4          6           0       -9.627604    2.797493   -0.248956
      5          6           0       -9.457064   -2.032666   -0.560352
      6          7           0       -5.122786    0.498237    0.627746
      7          6           0       -4.283284   -0.591024    0.687856
      8          6           0       -2.872164   -0.175589    1.028414
      9          6           0       -3.043775    1.303947    1.418311
     10          6           0       -4.462324    1.609066    0.976979
     11          6           0       -2.854015    1.553887    2.913567
     12          6           0       -1.903256   -0.391464   -0.136947
     13          6           0       -0.460054   -0.157612    0.276464
     14          6           0        0.515484   -0.311026   -0.863860
     15          8           0        0.217235   -0.487700   -2.014196
     16          8           0        1.776343   -0.214780   -0.430042
     17          7           0       -7.276259    2.490737    0.320186
     18          6           0       -6.268346    3.310217    0.670798
     19          6           0       -6.728797    4.691853    0.686308
     20          6           0       -8.040353    4.666052    0.325141
     21          6           0       -8.392621    3.267025    0.108157
     22          6           0       -5.890792    5.860922    1.074989
     23          6           0       -8.977743    5.776257    0.194306
     24          6           0       -8.684023    6.987132   -0.267931
     25          7           0       -9.197334    0.393884   -0.328301
     26          6           0      -10.021301    1.450331   -0.450300
     27          6           0      -11.345961    1.020509   -0.800882
     28          6           0      -11.300926   -0.345755   -0.878067
     29          6           0       -9.946033   -0.729492   -0.584260
     30          6           0      -12.512322    1.923157   -1.034401
     31          6           0      -12.409244   -1.276964   -1.253077
     32          6           0      -12.444130   -1.574015   -2.753690
     33          7           0       -7.148882   -1.504918   -0.040421
     34          6           0       -8.149793   -2.427995   -0.301267
     35          6           0       -7.619437   -3.760747   -0.252055
     36          6           0       -6.276772   -3.595123    0.042959
     37          6           0       -6.051131   -2.210009    0.159149
     38          6           0       -8.371392   -5.029777   -0.458960
     39          6           0       -5.023288   -4.293058    0.289751
     40          8           0       -4.772996   -5.468711    0.327345
     41          6           0       -3.938500   -3.159782    0.506686
     42          6           0       -3.194578   -3.409439    1.797369
     43          8           0       -3.590489   -3.111286    2.891369
     44          8           0       -2.028992   -4.021873    1.571829
     45          6           0       -1.288777   -4.390095    2.731898
     46          6           0        2.802584   -0.338971   -1.431817
     47          6           0        4.119937   -0.273763   -0.742357
     48          6           0        5.123675    0.561115   -1.002210
     49          6           0        5.090020    1.636110   -2.051782
     50          6           0        6.417251    0.450422   -0.239016
     51          6           0        7.616484    0.075369   -1.112788
     52          6           0        8.891131   -0.098258   -0.295812
     53          6           0       10.165117   -0.324962   -1.114441
     54          6           0       10.082993   -1.601186   -1.948671
     55          6           0       11.383200   -0.326405   -0.186384
     56          6           0       12.736691   -0.355785   -0.887176
     57          6           0       13.900686   -0.242327    0.090760
     58          6           0       15.287628   -0.142178   -0.550412
     59          6           0       15.634804   -1.392203   -1.355562
     60          6           0       16.336862    0.150063    0.525722
     61          6           0       17.743179    0.428893    0.007172
     62          6           0       18.691779    0.877592    1.112977
     63          6           0       20.155359    1.027443    0.692552
     64          6           0       20.339207    2.078804   -0.398834
     65          6           0       21.025748    1.354876    1.902464
     66          1           0       -4.273362    3.676466    1.271534
     67          1           0      -10.403142    3.539046   -0.393287
     68          1           0      -10.170727   -2.821889   -0.767135
     69          1           0       -2.523417   -0.755279    1.888176
     70          1           0       -2.348567    1.938891    0.862897
     71          1           0       -1.832905    1.308310    3.211850
     72          1           0       -3.044372    2.596734    3.170023
     73          1           0       -3.536342    0.930056    3.494398
     74          1           0       -1.998555   -1.407715   -0.520245
     75          1           0       -2.169757    0.270488   -0.964072
     76          1           0       -0.316810    0.844225    0.692136
     77          1           0       -0.165493   -0.851419    1.068312
     78          1           0       -5.260453    6.195956    0.246772
     79          1           0       -6.515631    6.701338    1.377083
     80          1           0       -5.230638    5.611541    1.907206
     81          1           0      -10.001331    5.574081    0.495858
     82          1           0       -9.440068    7.759490   -0.325244
     83          1           0       -7.693379    7.239642   -0.624774
     84          1           0      -12.329614    2.601121   -1.871719
     85          1           0      -13.412736    1.354385   -1.264779
     86          1           0      -12.725186    2.538498   -0.156891
     87          1           0      -12.312153   -2.213189   -0.698279
     88          1           0      -13.365230   -0.847060   -0.946443
     89          1           0      -13.259345   -2.256583   -3.000054
     90          1           0      -12.583045   -0.654354   -3.324672
     91          1           0      -11.506672   -2.027160   -3.080875
     92          1           0       -8.921217   -5.015744   -1.402345
     93          1           0       -7.689935   -5.878419   -0.468039
     94          1           0       -9.098089   -5.186844    0.341693
     95          1           0       -3.233998   -3.259248   -0.321378
     96          1           0       -1.031704   -3.508537    3.319896
     97          1           0       -1.868718   -5.072899    3.352095
     98          1           0       -0.390250   -4.879511    2.366195
     99          1           0        2.669859   -1.298539   -1.937988
    100          1           0        2.665171    0.441745   -2.178391
    101          1           0        4.255195   -1.014896    0.040315
    102          1           0        4.082771    1.878552   -2.384217
    103          1           0        5.549152    2.549930   -1.667022
    104          1           0        5.666614    1.337746   -2.930976
    105          1           0        6.624803    1.410235    0.248761
    106          1           0        6.309894   -0.290747    0.556810
    107          1           0        7.378566   -0.845958   -1.650780
    108          1           0        7.780329    0.847148   -1.871550
    109          1           0        9.031336    0.793779    0.324390
    110          1           0        8.763025   -0.935286    0.401282
    111          1           0       10.272782    0.523949   -1.802070
    112          1           0        9.235200   -1.581126   -2.634184
    113          1           0       10.979998   -1.746602   -2.551102
    114          1           0        9.969311   -2.474740   -1.299546
    115          1           0       11.338069    0.566440    0.446574
    116          1           0       11.309549   -1.183787    0.493933
    117          1           0       12.831272   -1.277419   -1.464769
    118          1           0       12.788421    0.468572   -1.608150
    119          1           0       13.744539    0.642120    0.717835
    120          1           0       13.885873   -1.102468    0.771440
    121          1           0       15.273423    0.712069   -1.239748
    122          1           0       15.660048   -2.271035   -0.703979
    123          1           0       14.904779   -1.580422   -2.143380
    124          1           0       16.610072   -1.303122   -1.835077
    125          1           0       16.003837    1.016099    1.108122
    126          1           0       16.369759   -0.692102    1.227799
    127          1           0       18.155005   -0.466547   -0.468130
    128          1           0       17.687159    1.194678   -0.772729
    129          1           0       18.342558    1.832153    1.525780
    130          1           0       18.638144    0.154950    1.934678
    131          1           0       20.485248    0.061945    0.290679
    132          1           0       19.970446    3.051519   -0.059556
    133          1           0       21.394388    2.194088   -0.654858
    134          1           0       19.804175    1.817846   -1.312794
    135          1           0       20.926994    0.594662    2.680192
    136          1           0       22.080168    1.420274    1.626443
    137          1           0       20.735088    2.315988    2.336442
 ---------------------------------------------------------------------

 SCF Done:  E(UwB97XD) =  -2935.12401344     A.U. after   23 cycles

 Alpha virt. eigenvalues --    2.06486   2.06633   2.07064   2.07506   2.07632
 Alpha virt. eigenvalues --    2.07816   2.08135   2.08410   2.08457   2.08674
 Alpha virt. eigenvalues --    2.08836   2.09112   2.09397   2.09724   2.10087

  Beta  occ. eigenvalues --  -46.74256 -19.19375 -19.17272 -19.12778 -19.10037
  Beta  occ. eigenvalues --  -19.07296 -14.27792 -14.26727 -14.26304 -14.25540
  Beta  occ. eigenvalues --  -10.30375 -10.27821 -10.24787 -10.22079 -10.22047
  Beta  occ. eigenvalues --  -10.21843 -10.21576 -10.21294 -10.21163 -10.20914
  Beta  occ. eigenvalues --  -10.20870 -10.20708 -10.20535 -10.20503 -10.20501
  Beta  occ. eigenvalues --  -10.20447 -10.20333 -10.20284 -10.20253 -10.20132
  Beta  occ. eigenvalues --  -10.20094 -10.19941 -10.19588 -10.19368 -10.18527
  Beta  occ. eigenvalues --  -10.17774 -10.17514 -10.16491 -10.16488 -10.16418
  Beta  occ. eigenvalues --  -10.16381 -10.16269 -10.16153 -10.15933 -10.15777
  Beta  occ. eigenvalues --  -10.15728 -10.15696 -10.15403 -10.15333 -10.15286
  Beta  occ. eigenvalues --  -10.15085 -10.15076 -10.14778 -10.14707 -10.14051
  Beta  occ. eigenvalues --  -10.13793 -10.13777 -10.13685 -10.13654 -10.13541
  Beta  occ. eigenvalues --  -10.13451 -10.13324 -10.12789 -10.12225 -10.11341
  Beta  occ. eigenvalues --   -3.00534  -1.74086  -1.73474  -1.73422  -1.10697
  Beta  occ. eigenvalues --   -1.08461  -1.01474  -0.98963  -0.98403  -0.91072
  Beta  occ. eigenvalues --   -0.90110  -0.89958  -0.89027  -0.85919  -0.85227
  Beta  occ. eigenvalues --   -0.84327  -0.83343  -0.80115  -0.79465  -0.78969
  Beta  occ. eigenvalues --   -0.77991  -0.76677  -0.76542  -0.76243  -0.75260
  Beta  occ. eigenvalues --   -0.74876  -0.74218  -0.73361  -0.73200  -0.72246
  Beta  occ. eigenvalues --   -0.71742  -0.71518  -0.70928  -0.70687  -0.70479
  Beta  occ. eigenvalues --   -0.69862  -0.69315  -0.68345  -0.67294  -0.66137
  Beta  occ. eigenvalues --   -0.65643  -0.65066  -0.64467  -0.64319  -0.62619
  Beta  occ. eigenvalues --   -0.61900  -0.60543  -0.59690  -0.59572  -0.58879
  Beta  occ. eigenvalues --   -0.58853  -0.58381  -0.58132  -0.57568  -0.56191
  Beta  occ. eigenvalues --   -0.55621  -0.54963  -0.53584  -0.53141  -0.53115
  Beta  occ. eigenvalues --   -0.51936  -0.50647  -0.50071  -0.50003  -0.49834
  Beta  occ. eigenvalues --   -0.49505  -0.49079  -0.48416  -0.48309  -0.47741
  Beta  occ. eigenvalues --   -0.47119  -0.46995  -0.46762  -0.46686  -0.46358
  Beta  occ. eigenvalues --   -0.46270  -0.46058  -0.45881  -0.45671  -0.45435
  Beta  occ. eigenvalues --   -0.45145  -0.44638  -0.44538  -0.44316  -0.43777
  Beta  occ. eigenvalues --   -0.43562  -0.43319  -0.42955  -0.42745  -0.42473
  Beta  occ. eigenvalues --   -0.41922  -0.41521  -0.41038  -0.40983  -0.40845
  Beta  occ. eigenvalues --   -0.40758  -0.40247  -0.39941  -0.39650  -0.39561
  Beta  occ. eigenvalues --   -0.39401  -0.39110  -0.38767  -0.38671  -0.38539
  Beta  occ. eigenvalues --   -0.38395  -0.38179  -0.38040  -0.37986  -0.37868
  Beta  occ. eigenvalues --   -0.37615  -0.37450  -0.37214  -0.37142  -0.36807
  Beta  occ. eigenvalues --   -0.36737  -0.36490  -0.36275  -0.36123  -0.36114
  Beta  occ. eigenvalues --   -0.35917  -0.35734  -0.35496  -0.35283  -0.34939
  Beta  occ. eigenvalues --   -0.34716  -0.34606  -0.34296  -0.34253  -0.34206
  Beta  occ. eigenvalues --   -0.34103  -0.33896  -0.33815  -0.33629  -0.33551
  Beta  occ. eigenvalues --   -0.33449  -0.33361  -0.33214  -0.33152  -0.32979
  Beta  occ. eigenvalues --   -0.32574  -0.32490  -0.32342  -0.32233  -0.32137
  Beta  occ. eigenvalues --   -0.31492  -0.31329  -0.31182  -0.30846  -0.30556
  Beta  occ. eigenvalues --   -0.30373  -0.29816  -0.29688  -0.29536  -0.29330
  Beta  occ. eigenvalues --   -0.29050  -0.28541  -0.28306  -0.27910  -0.27116
  Beta  occ. eigenvalues --   -0.26620  -0.25511  -0.24737  -0.24675  -0.23996
  Beta  occ. eigenvalues --   -0.23736  -0.23523  -0.21272  -0.20338  -0.19595
  Beta  occ. eigenvalues --   -0.18190  -0.17542  -0.17031  -0.16684  -0.11785
  Beta  occ. eigenvalues --   -0.10785
  Beta virt. eigenvalues --    0.06648   0.08717   0.10357   0.12459   0.12794
  Beta virt. eigenvalues --    0.12866   0.13111   0.13988   0.14172   0.14543
  Beta virt. eigenvalues --    0.14667   0.15126   0.15342   0.15618   0.15748

 Mulliken charges and spin densities:
               1          2
     1  Mg   0.789124  -0.002898
     2  C   -0.196403   0.043526
     3  C   -0.562242   0.051838
     4  C   -0.370556   0.049403
     5  C   -0.383062   0.267819
     6  N   -0.492585   0.096686
     7  C    0.309558  -0.006437
     8  C   -0.011718  -0.002132
     9  C    0.099001   0.000050
    10  C    0.228515   0.026432
    11  C   -0.376776   0.000663
    12  C   -0.292918   0.001589
    13  C   -0.201859   0.000055
    14  C    0.382650   0.000058
    15  O   -0.388557   0.000013
    16  O   -0.289860  -0.000005
    17  N   -0.438114  -0.042671
    18  C    0.317903   0.077664
    19  C   -0.023275   0.076304
    20  C   -0.003978   0.046462
    21  C    0.253058   0.059387
    22  C   -0.418786  -0.004612
    23  C   -0.163520  -0.018018
    24  C   -0.303556   0.037692
    25  N   -0.455441   0.099787
    26  C    0.215439   0.016655
    27  C   -0.001367  -0.053126
    28  C   -0.068167   0.036863
    29  C    0.352309  -0.098611
    30  C   -0.381155   0.004164
    31  C   -0.269793  -0.002133
    32  C   -0.301036   0.001989
    33  N   -0.461612  -0.002642
    34  C    0.230810  -0.064057
    35  C   -0.121878   0.200976
    36  C   -0.092860   0.002115
    37  C    0.199024   0.024339
    38  C   -0.419250  -0.010631
    39  C    0.189916   0.020524
    40  O   -0.408584   0.047185
    41  C    0.037248   0.003987
    42  C    0.361545   0.000210
    43  O   -0.393639   0.001403
    44  O   -0.290104  -0.000127
    45  C   -0.180389   0.000054
    46  C   -0.006696   0.000011
    47  C   -0.150133  -0.000003
    48  C    0.030372   0.000005
    49  C   -0.354773  -0.000000
    50  C   -0.155300  -0.000000
    51  C   -0.249169  -0.000000
    52  C   -0.171133   0.000000
    53  C    0.049000  -0.000000
    54  C   -0.386521   0.000000
    55  C   -0.176221   0.000000
    56  C   -0.219949   0.000000
    57  C   -0.176807   0.000000
    58  C    0.054324  -0.000000
    59  C   -0.386843   0.000000
    60  C   -0.175181   0.000000
    61  C   -0.222557  -0.000000
    62  C   -0.180270   0.000000
    63  C    0.012817  -0.000000
    64  C   -0.355007   0.000000
    65  C   -0.315494  -0.000000
    66  H    0.095808  -0.002065
    67  H    0.112517  -0.001541
    68  H    0.115440  -0.010890
    69  H    0.109207   0.000029
    70  H    0.050273   0.000656
    71  H    0.091412   0.001601
    72  H    0.106060   0.000415
    73  H    0.135063  -0.000147
    74  H    0.128355  -0.000369
    75  H    0.122661   0.000095
    76  H    0.118263   0.000311
    77  H    0.119060  -0.000034
    78  H    0.116375   0.005981
    79  H    0.133347   0.000155
    80  H    0.108166   0.001666
    81  H    0.099402   0.001788
    82  H    0.097636  -0.001652
    83  H    0.130065  -0.001348
    84  H    0.121651  -0.002392
    85  H    0.097230  -0.000088
    86  H    0.117620  -0.001973
    87  H    0.096371   0.002299
    88  H    0.083700   0.000253
    89  H    0.081747  -0.000066
    90  H    0.100969   0.000096
    91  H    0.122574  -0.000271
    92  H    0.103493   0.008307
    93  H    0.141606   0.000332
    94  H    0.107280   0.010761
    95  H    0.077972   0.000285
    96  H    0.113054  -0.000018
    97  H    0.128286   0.000016
    98  H    0.110878   0.000007
    99  H    0.111794  -0.000001
   100  H    0.089661  -0.000000
   101  H    0.102252   0.000000
   102  H    0.121200   0.000000
   103  H    0.113600   0.000000
   104  H    0.130647   0.000000
   105  H    0.100601   0.000000
   106  H    0.094891  -0.000000
   107  H    0.109994   0.000000
   108  H    0.095296  -0.000000
   109  H    0.082999   0.000000
   110  H    0.089268  -0.000000
   111  H    0.047745   0.000000
   112  H    0.122827  -0.000000
   113  H    0.113839   0.000000
   114  H    0.100947  -0.000000
   115  H    0.083667   0.000000
   116  H    0.085329  -0.000000
   117  H    0.098563   0.000000
   118  H    0.080567  -0.000000
   119  H    0.083606  -0.000000
   120  H    0.084737   0.000000
   121  H    0.047978   0.000000
   122  H    0.099509   0.000000
   123  H    0.118914  -0.000000
   124  H    0.117150  -0.000000
   125  H    0.084445   0.000000
   126  H    0.085952  -0.000000
   127  H    0.090359   0.000000
   128  H    0.093865   0.000000
   129  H    0.086524   0.000000
   130  H    0.083834  -0.000000
   131  H    0.051591   0.000000
   132  H    0.099125   0.000000
   133  H    0.106604   0.000000
   134  H    0.119009  -0.000000
   135  H    0.105259   0.000000
   136  H    0.106775  -0.000000
   137  H    0.098021   0.000000
 Sum of Mulliken charges =  -1.00000   1.00000

 Dipole moment (field-independent basis, Debye):
    X=             34.5760    Y=              3.6003    Z=             -0.5293  Tot=             34.7669
 Quadrupole moment (field-independent basis, Debye-Ang):
   XX=           -649.0699   YY=           -471.4631   ZZ=           -414.9068
   XY=             -4.1422   XZ=              2.3720   YZ=             -1.1272

 Normal termination of Gaussian 16 at Sun Dec  8 17:54:02 2019.
