 Gaussian 16, Revision A.03,

 ----------------------------------------------------------------------
 # wB97XD/Def2TZVP Geom=Checkpoint Guess=Read iop(3/107=0169500000,3/10
 8=0169500000)
 ----------------------------------------------------------------------

 ------
 cla-s0
 ------
 Structure from the checkpoint file:  "cla-s0-01695.chk"
 Charge =  0 Multiplicity = 1

 SCF Done:  E(RwB97XD) =  -2934.80312924     A.U. after   14 cycles
 Normal termination of Gaussian 16 at Sat Dec  7 17:32:32 2019.

 ----------------------------------------------------------------------
 # wB97XD/Def2TZVP Geom=Checkpoint iop(3/107=0169500000,3/108=016950000
 0)
 ----------------------------------------------------------------------

 -------------
 cla-s0-Cation
 -------------
 Structure from the checkpoint file:  "/home/padawan/israel-mol/w-tuning/chla/tuning/logs/Gau-10252.chk"
 Charge =  1 Multiplicity = 2

 SCF Done:  E(UwB97XD) =  -2934.57734133     A.U. after   27 cycles
 Normal termination of Gaussian 16 at Sat Dec  7 22:52:46 2019.
 Gaussian 16:  ES64L-G16RevA.03 25-Dec-2016

 ----------------------------------------------------------------------
 # wB97XD/Def2TZVP Geom=Checkpoint iop(3/107=0169500000,3/108=016950000
 0)
 ----------------------------------------------------------------------

 ------------
 cla-s0-Anion
 ------------
 Structure from the checkpoint file:  "/home/padawan/israel-mol/w-tuning/chla/tuning/logs/Gau-11709.chk"
 Charge = -1 Multiplicity = 2

                         Standard orientation:
 ---------------------------------------------------------------------
 Center     Atomic      Atomic             Coordinates (Angstroms)
 Number     Number       Type             X           Y           Z
 ---------------------------------------------------------------------
      1         12           0       -7.193104    0.486516    0.135702
      2          6           0       -4.716348   -1.858831    0.463745
      3          6           0       -4.969493    2.898781    0.986155
      4          6           0       -9.627604    2.797493   -0.248956
      5          6           0       -9.457064   -2.032666   -0.560352
      6          7           0       -5.122786    0.498237    0.627746
      7          6           0       -4.283284   -0.591024    0.687856
      8          6           0       -2.872164   -0.175589    1.028414
      9          6           0       -3.043775    1.303947    1.418311
     10          6           0       -4.462324    1.609066    0.976979
     11          6           0       -2.854015    1.553887    2.913567
     12          6           0       -1.903256   -0.391464   -0.136947
     13          6           0       -0.460054   -0.157612    0.276464
     14          6           0        0.515484   -0.311026   -0.863860
     15          8           0        0.217235   -0.487700   -2.014196
     16          8           0        1.776343   -0.214780   -0.430042
     17          7           0       -7.276259    2.490737    0.320186
     18          6           0       -6.268346    3.310217    0.670798
     19          6           0       -6.728797    4.691853    0.686308
     20          6           0       -8.040353    4.666052    0.325141
     21          6           0       -8.392621    3.267025    0.108157
     22          6           0       -5.890792    5.860922    1.074989
     23          6           0       -8.977743    5.776257    0.194306
     24          6           0       -8.684023    6.987132   -0.267931
     25          7           0       -9.197334    0.393884   -0.328301
     26          6           0      -10.021301    1.450331   -0.450300
     27          6           0      -11.345961    1.020509   -0.800882
     28          6           0      -11.300926   -0.345755   -0.878067
     29          6           0       -9.946033   -0.729492   -0.584260
     30          6           0      -12.512322    1.923157   -1.034401
     31          6           0      -12.409244   -1.276964   -1.253077
     32          6           0      -12.444130   -1.574015   -2.753690
     33          7           0       -7.148882   -1.504918   -0.040421
     34          6           0       -8.149793   -2.427995   -0.301267
     35          6           0       -7.619437   -3.760747   -0.252055
     36          6           0       -6.276772   -3.595123    0.042959
     37          6           0       -6.051131   -2.210009    0.159149
     38          6           0       -8.371392   -5.029777   -0.458960
     39          6           0       -5.023288   -4.293058    0.289751
     40          8           0       -4.772996   -5.468711    0.327345
     41          6           0       -3.938500   -3.159782    0.506686
     42          6           0       -3.194578   -3.409439    1.797369
     43          8           0       -3.590489   -3.111286    2.891369
     44          8           0       -2.028992   -4.021873    1.571829
     45          6           0       -1.288777   -4.390095    2.731898
     46          6           0        2.802584   -0.338971   -1.431817
     47          6           0        4.119937   -0.273763   -0.742357
     48          6           0        5.123675    0.561115   -1.002210
     49          6           0        5.090020    1.636110   -2.051782
     50          6           0        6.417251    0.450422   -0.239016
     51          6           0        7.616484    0.075369   -1.112788
     52          6           0        8.891131   -0.098258   -0.295812
     53          6           0       10.165117   -0.324962   -1.114441
     54          6           0       10.082993   -1.601186   -1.948671
     55          6           0       11.383200   -0.326405   -0.186384
     56          6           0       12.736691   -0.355785   -0.887176
     57          6           0       13.900686   -0.242327    0.090760
     58          6           0       15.287628   -0.142178   -0.550412
     59          6           0       15.634804   -1.392203   -1.355562
     60          6           0       16.336862    0.150063    0.525722
     61          6           0       17.743179    0.428893    0.007172
     62          6           0       18.691779    0.877592    1.112977
     63          6           0       20.155359    1.027443    0.692552
     64          6           0       20.339207    2.078804   -0.398834
     65          6           0       21.025748    1.354876    1.902464
     66          1           0       -4.273362    3.676466    1.271534
     67          1           0      -10.403142    3.539046   -0.393287
     68          1           0      -10.170727   -2.821889   -0.767135
     69          1           0       -2.523417   -0.755279    1.888176
     70          1           0       -2.348567    1.938891    0.862897
     71          1           0       -1.832905    1.308310    3.211850
     72          1           0       -3.044372    2.596734    3.170023
     73          1           0       -3.536342    0.930056    3.494398
     74          1           0       -1.998555   -1.407715   -0.520245
     75          1           0       -2.169757    0.270488   -0.964072
     76          1           0       -0.316810    0.844225    0.692136
     77          1           0       -0.165493   -0.851419    1.068312
     78          1           0       -5.260453    6.195956    0.246772
     79          1           0       -6.515631    6.701338    1.377083
     80          1           0       -5.230638    5.611541    1.907206
     81          1           0      -10.001331    5.574081    0.495858
     82          1           0       -9.440068    7.759490   -0.325244
     83          1           0       -7.693379    7.239642   -0.624774
     84          1           0      -12.329614    2.601121   -1.871719
     85          1           0      -13.412736    1.354385   -1.264779
     86          1           0      -12.725186    2.538498   -0.156891
     87          1           0      -12.312153   -2.213189   -0.698279
     88          1           0      -13.365230   -0.847060   -0.946443
     89          1           0      -13.259345   -2.256583   -3.000054
     90          1           0      -12.583045   -0.654354   -3.324672
     91          1           0      -11.506672   -2.027160   -3.080875
     92          1           0       -8.921217   -5.015744   -1.402345
     93          1           0       -7.689935   -5.878419   -0.468039
     94          1           0       -9.098089   -5.186844    0.341693
     95          1           0       -3.233998   -3.259248   -0.321378
     96          1           0       -1.031704   -3.508537    3.319896
     97          1           0       -1.868718   -5.072899    3.352095
     98          1           0       -0.390250   -4.879511    2.366195
     99          1           0        2.669859   -1.298539   -1.937988
    100          1           0        2.665171    0.441745   -2.178391
    101          1           0        4.255195   -1.014896    0.040315
    102          1           0        4.082771    1.878552   -2.384217
    103          1           0        5.549152    2.549930   -1.667022
    104          1           0        5.666614    1.337746   -2.930976
    105          1           0        6.624803    1.410235    0.248761
    106          1           0        6.309894   -0.290747    0.556810
    107          1           0        7.378566   -0.845958   -1.650780
    108          1           0        7.780329    0.847148   -1.871550
    109          1           0        9.031336    0.793779    0.324390
    110          1           0        8.763025   -0.935286    0.401282
    111          1           0       10.272782    0.523949   -1.802070
    112          1           0        9.235200   -1.581126   -2.634184
    113          1           0       10.979998   -1.746602   -2.551102
    114          1           0        9.969311   -2.474740   -1.299546
    115          1           0       11.338069    0.566440    0.446574
    116          1           0       11.309549   -1.183787    0.493933
    117          1           0       12.831272   -1.277419   -1.464769
    118          1           0       12.788421    0.468572   -1.608150
    119          1           0       13.744539    0.642120    0.717835
    120          1           0       13.885873   -1.102468    0.771440
    121          1           0       15.273423    0.712069   -1.239748
    122          1           0       15.660048   -2.271035   -0.703979
    123          1           0       14.904779   -1.580422   -2.143380
    124          1           0       16.610072   -1.303122   -1.835077
    125          1           0       16.003837    1.016099    1.108122
    126          1           0       16.369759   -0.692102    1.227799
    127          1           0       18.155005   -0.466547   -0.468130
    128          1           0       17.687159    1.194678   -0.772729
    129          1           0       18.342558    1.832153    1.525780
    130          1           0       18.638144    0.154950    1.934678
    131          1           0       20.485248    0.061945    0.290679
    132          1           0       19.970446    3.051519   -0.059556
    133          1           0       21.394388    2.194088   -0.654858
    134          1           0       19.804175    1.817846   -1.312794
    135          1           0       20.926994    0.594662    2.680192
    136          1           0       22.080168    1.420274    1.626443
    137          1           0       20.735088    2.315988    2.336442
 ---------------------------------------------------------------------

 SCF Done:  E(UwB97XD) =  -2934.86236951     A.U. after   24 cycles

 Alpha virt. eigenvalues --    2.08438   2.08559   2.09017   2.09406   2.09576
 Alpha virt. eigenvalues --    2.09797   2.10021   2.10367   2.10430   2.10604
 Alpha virt. eigenvalues --    2.10789   2.11079   2.11346   2.11657   2.12021

  Beta  occ. eigenvalues --  -46.76921 -19.22168 -19.20088 -19.15609 -19.12899
  Beta  occ. eigenvalues --  -19.10150 -14.30357 -14.29504 -14.28991 -14.28283
  Beta  occ. eigenvalues --  -10.33239 -10.30701 -10.27522 -10.24797 -10.24771
  Beta  occ. eigenvalues --  -10.24769 -10.24303 -10.24073 -10.23888 -10.23632
  Beta  occ. eigenvalues --  -10.23594 -10.23429 -10.23235 -10.23225 -10.23203
  Beta  occ. eigenvalues --  -10.23172 -10.23046 -10.23005 -10.22973 -10.22851
  Beta  occ. eigenvalues --  -10.22803 -10.22645 -10.22295 -10.22110 -10.21255
  Beta  occ. eigenvalues --  -10.20618 -10.20272 -10.19210 -10.19206 -10.19133
  Beta  occ. eigenvalues --  -10.19094 -10.19083 -10.19022 -10.18693 -10.18492
  Beta  occ. eigenvalues --  -10.18452 -10.18445 -10.18033 -10.18014 -10.17998
  Beta  occ. eigenvalues --  -10.17780 -10.17771 -10.17560 -10.17502 -10.16846
  Beta  occ. eigenvalues --  -10.16575 -10.16457 -10.16438 -10.16426 -10.16150
  Beta  occ. eigenvalues --  -10.16145 -10.16124 -10.15548 -10.14794 -10.13912
  Beta  occ. eigenvalues --   -3.03202  -1.76728  -1.76135  -1.76085  -1.13718
  Beta  occ. eigenvalues --   -1.11495  -1.04447  -1.01954  -1.01425  -0.94049
  Beta  occ. eigenvalues --   -0.93081  -0.92986  -0.92042  -0.88972  -0.88276
  Beta  occ. eigenvalues --   -0.87369  -0.86380  -0.83133  -0.82480  -0.81975
  Beta  occ. eigenvalues --   -0.80991  -0.79764  -0.79570  -0.79226  -0.78244
  Beta  occ. eigenvalues --   -0.77884  -0.77210  -0.76327  -0.76162  -0.75212
  Beta  occ. eigenvalues --   -0.74727  -0.74449  -0.73924  -0.73626  -0.73420
  Beta  occ. eigenvalues --   -0.72803  -0.72265  -0.71287  -0.70223  -0.69059
  Beta  occ. eigenvalues --   -0.68573  -0.68015  -0.67362  -0.67223  -0.65514
  Beta  occ. eigenvalues --   -0.64766  -0.63402  -0.62561  -0.62417  -0.61742
  Beta  occ. eigenvalues --   -0.61717  -0.61240  -0.61005  -0.60407  -0.59043
  Beta  occ. eigenvalues --   -0.58451  -0.57790  -0.56367  -0.55958  -0.55905
  Beta  occ. eigenvalues --   -0.54747  -0.53430  -0.52849  -0.52794  -0.52623
  Beta  occ. eigenvalues --   -0.52293  -0.51848  -0.51212  -0.51071  -0.50552
  Beta  occ. eigenvalues --   -0.49926  -0.49738  -0.49488  -0.49401  -0.49094
  Beta  occ. eigenvalues --   -0.49048  -0.48824  -0.48616  -0.48378  -0.48145
  Beta  occ. eigenvalues --   -0.47815  -0.47321  -0.47235  -0.47027  -0.46409
  Beta  occ. eigenvalues --   -0.46270  -0.45946  -0.45589  -0.45408  -0.45114
  Beta  occ. eigenvalues --   -0.44491  -0.44180  -0.43706  -0.43560  -0.43465
  Beta  occ. eigenvalues --   -0.43377  -0.42939  -0.42467  -0.42341  -0.42084
  Beta  occ. eigenvalues --   -0.42063  -0.41785  -0.41373  -0.41144  -0.41049
  Beta  occ. eigenvalues --   -0.40925  -0.40788  -0.40697  -0.40567  -0.40401
  Beta  occ. eigenvalues --   -0.40111  -0.40000  -0.39838  -0.39778  -0.39311
  Beta  occ. eigenvalues --   -0.39258  -0.39018  -0.38792  -0.38690  -0.38577
  Beta  occ. eigenvalues --   -0.38464  -0.38322  -0.38027  -0.37837  -0.37362
  Beta  occ. eigenvalues --   -0.37321  -0.37063  -0.36871  -0.36727  -0.36652
  Beta  occ. eigenvalues --   -0.36597  -0.36397  -0.36293  -0.36083  -0.36046
  Beta  occ. eigenvalues --   -0.35859  -0.35760  -0.35757  -0.35678  -0.35401
  Beta  occ. eigenvalues --   -0.35054  -0.34997  -0.34790  -0.34716  -0.34693
  Beta  occ. eigenvalues --   -0.34001  -0.33854  -0.33666  -0.33349  -0.32903
  Beta  occ. eigenvalues --   -0.32834  -0.32274  -0.32184  -0.32016  -0.31758
  Beta  occ. eigenvalues --   -0.31488  -0.31034  -0.30746  -0.30309  -0.29631
  Beta  occ. eigenvalues --   -0.29153  -0.28053  -0.27194  -0.27055  -0.26406
  Beta  occ. eigenvalues --   -0.26161  -0.26093  -0.23615  -0.22547  -0.21812
  Beta  occ. eigenvalues --   -0.20643  -0.19741  -0.19209  -0.18889  -0.13367
  Beta  occ. eigenvalues --   -0.12227
  Beta virt. eigenvalues --    0.07358   0.09448   0.11615   0.12644   0.13323
  Beta virt. eigenvalues --    0.14027   0.14191   0.14250   0.14713   0.14858
  Beta virt. eigenvalues --    0.15359   0.15404   0.15808   0.15988   0.16228

 Mulliken charges and spin densities:
               1          2
     1  Mg   0.741176  -0.003040
     2  C   -0.195154   0.039364
     3  C   -0.570568   0.037650
     4  C   -0.390924   0.041647
     5  C   -0.399606   0.293418
     6  N   -0.442272   0.093862
     7  C    0.270962  -0.003125
     8  C    0.011112  -0.001790
     9  C    0.084434   0.000560
    10  C    0.221248   0.036485
    11  C   -0.391616   0.000819
    12  C   -0.309215   0.001395
    13  C   -0.213025   0.000048
    14  C    0.354821   0.000044
    15  O   -0.372762   0.000014
    16  O   -0.274743  -0.000007
    17  N   -0.387720  -0.054943
    18  C    0.304256   0.096449
    19  C   -0.030558   0.076409
    20  C   -0.003607   0.052348
    21  C    0.250166   0.068240
    22  C   -0.425055  -0.004548
    23  C   -0.170752  -0.019398
    24  C   -0.303445   0.037643
    25  N   -0.406695   0.113119
    26  C    0.216502   0.009989
    27  C   -0.018413  -0.068652
    28  C   -0.057188   0.042047
    29  C    0.338189  -0.123909
    30  C   -0.390883   0.005547
    31  C   -0.278874  -0.002474
    32  C   -0.318998   0.001927
    33  N   -0.405667   0.000021
    34  C    0.236478  -0.075606
    35  C   -0.125074   0.208686
    36  C   -0.080231   0.000529
    37  C    0.166121   0.027967
    38  C   -0.426623  -0.011230
    39  C    0.130361   0.017627
    40  O   -0.380255   0.044804
    41  C    0.060712   0.002843
    42  C    0.312847   0.000737
    43  O   -0.371652   0.001205
    44  O   -0.272259  -0.000126
    45  C   -0.197458   0.000053
    46  C   -0.035437   0.000008
    47  C   -0.156367  -0.000002
    48  C    0.049991   0.000004
    49  C   -0.372318  -0.000000
    50  C   -0.181429   0.000000
    51  C   -0.252830  -0.000000
    52  C   -0.191776   0.000000
    53  C    0.052051  -0.000000
    54  C   -0.404231   0.000000
    55  C   -0.196165   0.000000
    56  C   -0.224172  -0.000000
    57  C   -0.197062   0.000000
    58  C    0.057461  -0.000000
    59  C   -0.404336   0.000000
    60  C   -0.195151   0.000000
    61  C   -0.228448  -0.000000
    62  C   -0.197532   0.000000
    63  C    0.013941  -0.000000
    64  C   -0.372958   0.000000
    65  C   -0.335310  -0.000000
    66  H    0.092718  -0.001397
    67  H    0.104726  -0.001008
    68  H    0.110085  -0.010001
    69  H    0.103937   0.000119
    70  H    0.060204   0.001038
    71  H    0.096082   0.001720
    72  H    0.110332   0.000570
    73  H    0.139492  -0.000117
    74  H    0.127921  -0.000304
    75  H    0.130242   0.000115
    76  H    0.124887   0.000317
    77  H    0.124669  -0.000023
    78  H    0.122440   0.005821
    79  H    0.134937   0.000237
    80  H    0.112162   0.001522
    81  H    0.103908   0.001928
    82  H    0.100867  -0.001447
    83  H    0.130177  -0.001141
    84  H    0.127069  -0.003120
    85  H    0.101781  -0.000072
    86  H    0.122315  -0.002632
    87  H    0.102316   0.002556
    88  H    0.090341   0.000274
    89  H    0.088652  -0.000116
    90  H    0.105004   0.000170
    91  H    0.125911  -0.000136
    92  H    0.107845   0.008539
    93  H    0.144425   0.000347
    94  H    0.113008   0.010939
    95  H    0.086784   0.000642
    96  H    0.118626  -0.000018
    97  H    0.133579   0.000016
    98  H    0.116955   0.000008
    99  H    0.119713  -0.000001
   100  H    0.094922  -0.000000
   101  H    0.109839   0.000000
   102  H    0.126731   0.000000
   103  H    0.118816   0.000000
   104  H    0.135123   0.000000
   105  H    0.107870   0.000000
   106  H    0.102642  -0.000000
   107  H    0.113415   0.000000
   108  H    0.099389  -0.000000
   109  H    0.090386   0.000000
   110  H    0.096100  -0.000000
   111  H    0.056689   0.000000
   112  H    0.127434  -0.000000
   113  H    0.118814  -0.000000
   114  H    0.106359  -0.000000
   115  H    0.090764   0.000000
   116  H    0.092203  -0.000000
   117  H    0.098233   0.000000
   118  H    0.088295  -0.000000
   119  H    0.090728  -0.000000
   120  H    0.091643  -0.000000
   121  H    0.056830   0.000000
   122  H    0.104895   0.000000
   123  H    0.123772  -0.000000
   124  H    0.121694  -0.000000
   125  H    0.091753   0.000000
   126  H    0.092518  -0.000000
   127  H    0.094481   0.000000
   128  H    0.098033   0.000000
   129  H    0.092560   0.000000
   130  H    0.090736  -0.000000
   131  H    0.059836   0.000000
   132  H    0.104319   0.000000
   133  H    0.112481  -0.000000
   134  H    0.122972  -0.000000
   135  H    0.110901   0.000000
   136  H    0.112559  -0.000000
   137  H    0.103143   0.000000
 Sum of Mulliken charges =  -1.00000   1.00000

 Dipole moment (field-independent basis, Debye):
    X=             34.5180    Y=              3.7515    Z=             -0.5424  Tot=             34.7255
 Quadrupole moment (field-independent basis, Debye-Ang):
   XX=           -649.6216   YY=           -472.7952   ZZ=           -417.4033
   XY=             -5.6473   XZ=              2.3990   YZ=             -1.2241

 Normal termination of Gaussian 16 at Sun Dec  8 03:42:32 2019.
