 Gaussian 16, Revision A.03,

 ----------------------------------------------------------------------
 # wB97XD/Def2TZVP Geom=Checkpoint Guess=Read iop(3/107=0900000000,3/10
 8=0900000000)
 ----------------------------------------------------------------------

 ------
 cla-s0
 ------
 Structure from the checkpoint file:  "cla-s0-09000.chk"
 Charge =  0 Multiplicity = 1

 SCF Done:  E(RwB97XD) =  -2935.18540691     A.U. after   17 cycles
 Normal termination of Gaussian 16 at Tue Dec  3 12:53:37 2019.

 ----------------------------------------------------------------------
 # wB97XD/Def2TZVP Geom=Checkpoint iop(3/107=0900000000,3/108=090000000
 0)
 ----------------------------------------------------------------------

 -------------
 cla-s0-Cation
 -------------
 Structure from the checkpoint file:  "/home/padawan/israel-mol/w-tuning/chla/tuning/logs/Gau-108796.chk"
 Charge =  1 Multiplicity = 2

 SCF Done:  E(UwB97XD) =  -2934.97141547     A.U. after   37 cycles
 Normal termination of Gaussian 16 at Tue Dec  3 20:24:21 2019.
 Gaussian 16:  ES64L-G16RevA.03 25-Dec-2016

 ----------------------------------------------------------------------
 # wB97XD/Def2TZVP Geom=Checkpoint iop(3/107=0900000000,3/108=090000000
 0)
 ----------------------------------------------------------------------

 ------------
 cla-s0-Anion
 ------------
 Structure from the checkpoint file:  "/home/padawan/israel-mol/w-tuning/chla/tuning/logs/Gau-111122.chk"
 Charge = -1 Multiplicity = 2

                         Standard orientation:
 ---------------------------------------------------------------------
 Center     Atomic      Atomic             Coordinates (Angstroms)
 Number     Number       Type             X           Y           Z
 ---------------------------------------------------------------------
      1         12           0       -7.193104    0.486516    0.135702
      2          6           0       -4.716348   -1.858831    0.463745
      3          6           0       -4.969493    2.898781    0.986155
      4          6           0       -9.627604    2.797493   -0.248956
      5          6           0       -9.457064   -2.032666   -0.560352
      6          7           0       -5.122786    0.498237    0.627746
      7          6           0       -4.283284   -0.591024    0.687856
      8          6           0       -2.872164   -0.175589    1.028414
      9          6           0       -3.043775    1.303947    1.418311
     10          6           0       -4.462324    1.609066    0.976979
     11          6           0       -2.854015    1.553887    2.913567
     12          6           0       -1.903256   -0.391464   -0.136947
     13          6           0       -0.460054   -0.157612    0.276464
     14          6           0        0.515484   -0.311026   -0.863860
     15          8           0        0.217235   -0.487700   -2.014196
     16          8           0        1.776343   -0.214780   -0.430042
     17          7           0       -7.276259    2.490737    0.320186
     18          6           0       -6.268346    3.310217    0.670798
     19          6           0       -6.728797    4.691853    0.686308
     20          6           0       -8.040353    4.666052    0.325141
     21          6           0       -8.392621    3.267025    0.108157
     22          6           0       -5.890792    5.860922    1.074989
     23          6           0       -8.977743    5.776257    0.194306
     24          6           0       -8.684023    6.987132   -0.267931
     25          7           0       -9.197334    0.393884   -0.328301
     26          6           0      -10.021301    1.450331   -0.450300
     27          6           0      -11.345961    1.020509   -0.800882
     28          6           0      -11.300926   -0.345755   -0.878067
     29          6           0       -9.946033   -0.729492   -0.584260
     30          6           0      -12.512322    1.923157   -1.034401
     31          6           0      -12.409244   -1.276964   -1.253077
     32          6           0      -12.444130   -1.574015   -2.753690
     33          7           0       -7.148882   -1.504918   -0.040421
     34          6           0       -8.149793   -2.427995   -0.301267
     35          6           0       -7.619437   -3.760747   -0.252055
     36          6           0       -6.276772   -3.595123    0.042959
     37          6           0       -6.051131   -2.210009    0.159149
     38          6           0       -8.371392   -5.029777   -0.458960
     39          6           0       -5.023288   -4.293058    0.289751
     40          8           0       -4.772996   -5.468711    0.327345
     41          6           0       -3.938500   -3.159782    0.506686
     42          6           0       -3.194578   -3.409439    1.797369
     43          8           0       -3.590489   -3.111286    2.891369
     44          8           0       -2.028992   -4.021873    1.571829
     45          6           0       -1.288777   -4.390095    2.731898
     46          6           0        2.802584   -0.338971   -1.431817
     47          6           0        4.119937   -0.273763   -0.742357
     48          6           0        5.123675    0.561115   -1.002210
     49          6           0        5.090020    1.636110   -2.051782
     50          6           0        6.417251    0.450422   -0.239016
     51          6           0        7.616484    0.075369   -1.112788
     52          6           0        8.891131   -0.098258   -0.295812
     53          6           0       10.165117   -0.324962   -1.114441
     54          6           0       10.082993   -1.601186   -1.948671
     55          6           0       11.383200   -0.326405   -0.186384
     56          6           0       12.736691   -0.355785   -0.887176
     57          6           0       13.900686   -0.242327    0.090760
     58          6           0       15.287628   -0.142178   -0.550412
     59          6           0       15.634804   -1.392203   -1.355562
     60          6           0       16.336862    0.150063    0.525722
     61          6           0       17.743179    0.428893    0.007172
     62          6           0       18.691779    0.877592    1.112977
     63          6           0       20.155359    1.027443    0.692552
     64          6           0       20.339207    2.078804   -0.398834
     65          6           0       21.025748    1.354876    1.902464
     66          1           0       -4.273362    3.676466    1.271534
     67          1           0      -10.403142    3.539046   -0.393287
     68          1           0      -10.170727   -2.821889   -0.767135
     69          1           0       -2.523417   -0.755279    1.888176
     70          1           0       -2.348567    1.938891    0.862897
     71          1           0       -1.832905    1.308310    3.211850
     72          1           0       -3.044372    2.596734    3.170023
     73          1           0       -3.536342    0.930056    3.494398
     74          1           0       -1.998555   -1.407715   -0.520245
     75          1           0       -2.169757    0.270488   -0.964072
     76          1           0       -0.316810    0.844225    0.692136
     77          1           0       -0.165493   -0.851419    1.068312
     78          1           0       -5.260453    6.195956    0.246772
     79          1           0       -6.515631    6.701338    1.377083
     80          1           0       -5.230638    5.611541    1.907206
     81          1           0      -10.001331    5.574081    0.495858
     82          1           0       -9.440068    7.759490   -0.325244
     83          1           0       -7.693379    7.239642   -0.624774
     84          1           0      -12.329614    2.601121   -1.871719
     85          1           0      -13.412736    1.354385   -1.264779
     86          1           0      -12.725186    2.538498   -0.156891
     87          1           0      -12.312153   -2.213189   -0.698279
     88          1           0      -13.365230   -0.847060   -0.946443
     89          1           0      -13.259345   -2.256583   -3.000054
     90          1           0      -12.583045   -0.654354   -3.324672
     91          1           0      -11.506672   -2.027160   -3.080875
     92          1           0       -8.921217   -5.015744   -1.402345
     93          1           0       -7.689935   -5.878419   -0.468039
     94          1           0       -9.098089   -5.186844    0.341693
     95          1           0       -3.233998   -3.259248   -0.321378
     96          1           0       -1.031704   -3.508537    3.319896
     97          1           0       -1.868718   -5.072899    3.352095
     98          1           0       -0.390250   -4.879511    2.366195
     99          1           0        2.669859   -1.298539   -1.937988
    100          1           0        2.665171    0.441745   -2.178391
    101          1           0        4.255195   -1.014896    0.040315
    102          1           0        4.082771    1.878552   -2.384217
    103          1           0        5.549152    2.549930   -1.667022
    104          1           0        5.666614    1.337746   -2.930976
    105          1           0        6.624803    1.410235    0.248761
    106          1           0        6.309894   -0.290747    0.556810
    107          1           0        7.378566   -0.845958   -1.650780
    108          1           0        7.780329    0.847148   -1.871550
    109          1           0        9.031336    0.793779    0.324390
    110          1           0        8.763025   -0.935286    0.401282
    111          1           0       10.272782    0.523949   -1.802070
    112          1           0        9.235200   -1.581126   -2.634184
    113          1           0       10.979998   -1.746602   -2.551102
    114          1           0        9.969311   -2.474740   -1.299546
    115          1           0       11.338069    0.566440    0.446574
    116          1           0       11.309549   -1.183787    0.493933
    117          1           0       12.831272   -1.277419   -1.464769
    118          1           0       12.788421    0.468572   -1.608150
    119          1           0       13.744539    0.642120    0.717835
    120          1           0       13.885873   -1.102468    0.771440
    121          1           0       15.273423    0.712069   -1.239748
    122          1           0       15.660048   -2.271035   -0.703979
    123          1           0       14.904779   -1.580422   -2.143380
    124          1           0       16.610072   -1.303122   -1.835077
    125          1           0       16.003837    1.016099    1.108122
    126          1           0       16.369759   -0.692102    1.227799
    127          1           0       18.155005   -0.466547   -0.468130
    128          1           0       17.687159    1.194678   -0.772729
    129          1           0       18.342558    1.832153    1.525780
    130          1           0       18.638144    0.154950    1.934678
    131          1           0       20.485248    0.061945    0.290679
    132          1           0       19.970446    3.051519   -0.059556
    133          1           0       21.394388    2.194088   -0.654858
    134          1           0       19.804175    1.817846   -1.312794
    135          1           0       20.926994    0.594662    2.680192
    136          1           0       22.080168    1.420274    1.626443
    137          1           0       20.735088    2.315988    2.336442
 ---------------------------------------------------------------------

 SCF Done:  E(UwB97XD) =  -2935.26459544     A.U. after   38 cycles

 Alpha virt. eigenvalues --    2.22797   2.23128   2.23427   2.23756   2.24045
 Alpha virt. eigenvalues --    2.24263   2.24705   2.24761   2.25131   2.25427
 Alpha virt. eigenvalues --    2.25572   2.25732   2.25797   2.26073   2.26293

  Beta  occ. eigenvalues --  -47.06970 -19.50056 -19.47819 -19.43351 -19.40459
  Beta  occ. eigenvalues --  -19.36954 -14.58540 -14.58481 -14.56775 -14.56460
  Beta  occ. eigenvalues --  -10.65778 -10.63100 -10.58243 -10.56353 -10.55283
  Beta  occ. eigenvalues --  -10.54707 -10.54438 -10.54217 -10.53821 -10.53547
  Beta  occ. eigenvalues --  -10.53480 -10.53325 -10.53139 -10.53137 -10.53104
  Beta  occ. eigenvalues --  -10.53096 -10.53063 -10.52935 -10.52913 -10.52789
  Beta  occ. eigenvalues --  -10.52694 -10.52680 -10.52419 -10.52259 -10.52183
  Beta  occ. eigenvalues --  -10.51777 -10.51396 -10.50795 -10.50132 -10.49771
  Beta  occ. eigenvalues --  -10.49625 -10.49620 -10.49536 -10.49442 -10.49062
  Beta  occ. eigenvalues --  -10.49046 -10.48515 -10.48459 -10.48375 -10.48278
  Beta  occ. eigenvalues --  -10.48126 -10.48025 -10.47752 -10.47736 -10.47654
  Beta  occ. eigenvalues --  -10.47328 -10.47245 -10.46468 -10.46342 -10.45971
  Beta  occ. eigenvalues --  -10.45746 -10.45468 -10.45051 -10.44501 -10.42891
  Beta  occ. eigenvalues --   -3.33460  -2.01312  -2.00836  -2.00796  -1.37452
  Beta  occ. eigenvalues --   -1.35048  -1.26790  -1.24131  -1.23587  -1.16170
  Beta  occ. eigenvalues --   -1.15123  -1.14743  -1.13636  -1.09461  -1.08734
  Beta  occ. eigenvalues --   -1.07617  -1.06416  -1.02953  -1.02230  -1.01979
  Beta  occ. eigenvalues --   -1.00537  -1.00016  -0.99325  -0.98151  -0.97794
  Beta  occ. eigenvalues --   -0.97101  -0.96203  -0.95376  -0.94805  -0.93936
  Beta  occ. eigenvalues --   -0.93238  -0.92899  -0.91926  -0.90983  -0.90953
  Beta  occ. eigenvalues --   -0.90351  -0.89945  -0.89342  -0.87758  -0.86403
  Beta  occ. eigenvalues --   -0.86047  -0.85804  -0.84464  -0.83465  -0.82525
  Beta  occ. eigenvalues --   -0.80601  -0.79507  -0.78601  -0.77882  -0.77560
  Beta  occ. eigenvalues --   -0.76897  -0.76206  -0.75676  -0.74788  -0.74610
  Beta  occ. eigenvalues --   -0.73197  -0.72693  -0.70768  -0.70275  -0.69990
  Beta  occ. eigenvalues --   -0.69131  -0.66545  -0.65978  -0.65661  -0.65601
  Beta  occ. eigenvalues --   -0.64928  -0.64756  -0.64332  -0.63910  -0.63479
  Beta  occ. eigenvalues --   -0.63059  -0.62701  -0.62328  -0.62169  -0.61701
  Beta  occ. eigenvalues --   -0.61497  -0.61280  -0.60867  -0.60558  -0.60222
  Beta  occ. eigenvalues --   -0.60136  -0.59766  -0.59290  -0.58800  -0.58395
  Beta  occ. eigenvalues --   -0.58148  -0.57653  -0.57084  -0.56726  -0.56566
  Beta  occ. eigenvalues --   -0.55968  -0.55729  -0.55478  -0.55206  -0.54968
  Beta  occ. eigenvalues --   -0.54350  -0.54213  -0.53994  -0.53830  -0.53376
  Beta  occ. eigenvalues --   -0.52922  -0.52858  -0.52444  -0.52235  -0.52058
  Beta  occ. eigenvalues --   -0.51987  -0.51727  -0.51661  -0.51414  -0.51317
  Beta  occ. eigenvalues --   -0.51108  -0.50916  -0.50456  -0.50243  -0.50102
  Beta  occ. eigenvalues --   -0.50097  -0.49970  -0.49773  -0.49459  -0.49276
  Beta  occ. eigenvalues --   -0.48962  -0.48817  -0.48744  -0.48288  -0.47987
  Beta  occ. eigenvalues --   -0.47838  -0.47539  -0.47249  -0.47152  -0.46726
  Beta  occ. eigenvalues --   -0.46624  -0.46531  -0.46229  -0.46174  -0.46108
  Beta  occ. eigenvalues --   -0.45816  -0.45811  -0.45709  -0.45609  -0.45390
  Beta  occ. eigenvalues --   -0.45245  -0.45106  -0.44777  -0.44620  -0.44461
  Beta  occ. eigenvalues --   -0.44406  -0.43966  -0.43934  -0.43341  -0.43206
  Beta  occ. eigenvalues --   -0.42947  -0.42437  -0.42094  -0.41758  -0.41710
  Beta  occ. eigenvalues --   -0.41432  -0.41354  -0.41079  -0.40570  -0.40287
  Beta  occ. eigenvalues --   -0.40050  -0.37829  -0.37264  -0.36270  -0.35572
  Beta  occ. eigenvalues --   -0.34243  -0.34145  -0.33356  -0.30742  -0.28608
  Beta  occ. eigenvalues --   -0.27944  -0.26132  -0.25347  -0.24848  -0.18679
  Beta  occ. eigenvalues --   -0.16337
  Beta virt. eigenvalues --    0.10191   0.12931   0.13531   0.14244   0.15124
  Beta virt. eigenvalues --    0.15551   0.15807   0.15941   0.16450   0.16646
  Beta virt. eigenvalues --    0.16894   0.17058   0.17323   0.18048   0.18134

 Mulliken charges and spin densities:
               1          2
     1  Mg   0.887140  -0.002023
     2  C   -0.272107  -0.008651
     3  C   -0.631125  -0.049868
     4  C   -0.397993  -0.083275
     5  C   -0.361634   0.540760
     6  N   -0.472118   0.076528
     7  C    0.231607   0.040321
     8  C    0.019353  -0.003795
     9  C    0.081566  -0.003177
    10  C    0.233986   0.124443
    11  C   -0.430702   0.003718
    12  C   -0.330994   0.002818
    13  C   -0.241014   0.000264
    14  C    0.414016   0.000022
    15  O   -0.440371   0.000022
    16  O   -0.328833  -0.000013
    17  N   -0.390468  -0.167813
    18  C    0.307208   0.216688
    19  C   -0.062263   0.073252
    20  C   -0.002942   0.070570
    21  C    0.232366   0.154114
    22  C   -0.446541  -0.006968
    23  C   -0.206500  -0.070996
    24  C   -0.295506   0.081183
    25  N   -0.412554   0.180623
    26  C    0.204099   0.049548
    27  C   -0.042293  -0.236965
    28  C   -0.067252   0.185174
    29  C    0.293075  -0.343387
    30  C   -0.420787   0.023090
    31  C   -0.299148  -0.013661
    32  C   -0.351907   0.006383
    33  N   -0.405781   0.024914
    34  C    0.214274  -0.279203
    35  C   -0.137768   0.391956
    36  C   -0.146622  -0.064690
    37  C    0.194010   0.050882
    38  C   -0.449472  -0.030702
    39  C    0.198328   0.005218
    40  O   -0.459753   0.035782
    41  C    0.127080   0.005839
    42  C    0.367561   0.000330
    43  O   -0.436917   0.000903
    44  O   -0.329183  -0.000052
    45  C   -0.184753   0.000073
    46  C   -0.055337   0.000007
    47  C   -0.152800  -0.000003
    48  C    0.030350   0.000004
    49  C   -0.401736  -0.000000
    50  C   -0.213469  -0.000000
    51  C   -0.260316  -0.000000
    52  C   -0.254440   0.000000
    53  C    0.073619  -0.000000
    54  C   -0.446520   0.000000
    55  C   -0.252030   0.000000
    56  C   -0.235591  -0.000000
    57  C   -0.253641   0.000000
    58  C    0.078345  -0.000000
    59  C   -0.446222   0.000000
    60  C   -0.251236   0.000000
    61  C   -0.239946  -0.000000
    62  C   -0.242969   0.000000
    63  C    0.032566  -0.000000
    64  C   -0.408047   0.000000
    65  C   -0.373304  -0.000000
    66  H    0.120598   0.002033
    67  H    0.126400   0.003456
    68  H    0.137348  -0.017829
    69  H    0.130356   0.001410
    70  H    0.099129   0.003525
    71  H    0.108645   0.002295
    72  H    0.120953   0.000641
    73  H    0.149358  -0.000213
    74  H    0.136421  -0.000371
    75  H    0.152309   0.000081
    76  H    0.144497   0.000324
    77  H    0.144307   0.000009
    78  H    0.138179   0.005751
    79  H    0.143979   0.000228
    80  H    0.123335   0.001242
    81  H    0.126822   0.003531
    82  H    0.118921  -0.003457
    83  H    0.142466  -0.002623
    84  H    0.139511  -0.010358
    85  H    0.114875  -0.000626
    86  H    0.132761  -0.009484
    87  H    0.119370   0.004538
    88  H    0.109273   0.001763
    89  H    0.100040   0.000568
    90  H    0.109853   0.000267
    91  H    0.131626  -0.000595
    92  H    0.115816   0.013473
    93  H    0.153463   0.001291
    94  H    0.123352   0.017187
    95  H    0.116355   0.001759
    96  H    0.123892  -0.000012
    97  H    0.140499   0.000011
    98  H    0.125092  -0.000004
    99  H    0.136279  -0.000001
   100  H    0.113118  -0.000001
   101  H    0.137372   0.000000
   102  H    0.136789   0.000000
   103  H    0.128408   0.000000
   104  H    0.141101   0.000000
   105  H    0.124859   0.000000
   106  H    0.121257   0.000000
   107  H    0.123365   0.000000
   108  H    0.110570  -0.000000
   109  H    0.110135   0.000000
   110  H    0.113760  -0.000000
   111  H    0.082212   0.000000
   112  H    0.136129  -0.000000
   113  H    0.127860  -0.000000
   114  H    0.115146   0.000000
   115  H    0.108887   0.000000
   116  H    0.110539  -0.000000
   117  H    0.102165   0.000000
   118  H    0.107530  -0.000000
   119  H    0.108883   0.000000
   120  H    0.109934  -0.000000
   121  H    0.082109   0.000000
   122  H    0.113848   0.000000
   123  H    0.132120  -0.000000
   124  H    0.130675  -0.000000
   125  H    0.110371   0.000000
   126  H    0.109621  -0.000000
   127  H    0.105497   0.000000
   128  H    0.108980   0.000000
   129  H    0.107510   0.000000
   130  H    0.106829  -0.000000
   131  H    0.076609   0.000000
   132  H    0.111918   0.000000
   133  H    0.123059  -0.000000
   134  H    0.126592  -0.000000
   135  H    0.118709   0.000000
   136  H    0.120933  -0.000000
   137  H    0.110878   0.000000
 Sum of Mulliken charges =  -1.00000   1.00000

 Dipole moment (field-independent basis, Debye):
    X=             34.6435    Y=              5.9704    Z=             -0.3488  Tot=             35.1559
 Quadrupole moment (field-independent basis, Debye-Ang):
   XX=           -639.1585   YY=           -465.4761   ZZ=           -414.6646
   XY=            -20.7425   XZ=              3.5110   YZ=             -0.6753

 Normal termination of Gaussian 16 at Wed Dec  4 04:10:03 2019.
