 Gaussian 16, Revision A.03,

 ----------------------------------------------------------------------
 # wB97XD/Def2TZVP Geom=Checkpoint Guess=Read iop(3/107=0204300000,3/10
 8=0204300000)
 ----------------------------------------------------------------------

 ------
 cla-s0
 ------
 Structure from the checkpoint file:  "cla-s0-02043.chk"
 Charge =  0 Multiplicity = 1

 SCF Done:  E(RwB97XD) =  -2934.75930440     A.U. after   11 cycles
 Normal termination of Gaussian 16 at Thu Dec  5 14:22:38 2019.

 ----------------------------------------------------------------------
 # wB97XD/Def2TZVP Geom=Checkpoint iop(3/107=0204300000,3/108=020430000
 0)
 ----------------------------------------------------------------------

 -------------
 cla-s0-Cation
 -------------
 Structure from the checkpoint file:  "/home/padawan/israel-mol/w-tuning/chla/tuning/logs/Gau-7143.chk"
 Charge =  1 Multiplicity = 2

 SCF Done:  E(UwB97XD) =  -2934.53268026     A.U. after   28 cycles
 Normal termination of Gaussian 16 at Thu Dec  5 20:04:34 2019.
 Gaussian 16:  ES64L-G16RevA.03 25-Dec-2016

 ----------------------------------------------------------------------
 # wB97XD/Def2TZVP Geom=Checkpoint iop(3/107=0204300000,3/108=020430000
 0)
 ----------------------------------------------------------------------

 ------------
 cla-s0-Anion
 ------------
 Structure from the checkpoint file:  "/home/padawan/israel-mol/w-tuning/chla/tuning/logs/Gau-9457.chk"
 Charge = -1 Multiplicity = 2

                         Standard orientation:
 ---------------------------------------------------------------------
 Center     Atomic      Atomic             Coordinates (Angstroms)
 Number     Number       Type             X           Y           Z
 ---------------------------------------------------------------------
      1         12           0       -7.193104    0.486516    0.135702
      2          6           0       -4.716348   -1.858831    0.463745
      3          6           0       -4.969493    2.898781    0.986155
      4          6           0       -9.627604    2.797493   -0.248956
      5          6           0       -9.457064   -2.032666   -0.560352
      6          7           0       -5.122786    0.498237    0.627746
      7          6           0       -4.283284   -0.591024    0.687856
      8          6           0       -2.872164   -0.175589    1.028414
      9          6           0       -3.043775    1.303947    1.418311
     10          6           0       -4.462324    1.609066    0.976979
     11          6           0       -2.854015    1.553887    2.913567
     12          6           0       -1.903256   -0.391464   -0.136947
     13          6           0       -0.460054   -0.157612    0.276464
     14          6           0        0.515484   -0.311026   -0.863860
     15          8           0        0.217235   -0.487700   -2.014196
     16          8           0        1.776343   -0.214780   -0.430042
     17          7           0       -7.276259    2.490737    0.320186
     18          6           0       -6.268346    3.310217    0.670798
     19          6           0       -6.728797    4.691853    0.686308
     20          6           0       -8.040353    4.666052    0.325141
     21          6           0       -8.392621    3.267025    0.108157
     22          6           0       -5.890792    5.860922    1.074989
     23          6           0       -8.977743    5.776257    0.194306
     24          6           0       -8.684023    6.987132   -0.267931
     25          7           0       -9.197334    0.393884   -0.328301
     26          6           0      -10.021301    1.450331   -0.450300
     27          6           0      -11.345961    1.020509   -0.800882
     28          6           0      -11.300926   -0.345755   -0.878067
     29          6           0       -9.946033   -0.729492   -0.584260
     30          6           0      -12.512322    1.923157   -1.034401
     31          6           0      -12.409244   -1.276964   -1.253077
     32          6           0      -12.444130   -1.574015   -2.753690
     33          7           0       -7.148882   -1.504918   -0.040421
     34          6           0       -8.149793   -2.427995   -0.301267
     35          6           0       -7.619437   -3.760747   -0.252055
     36          6           0       -6.276772   -3.595123    0.042959
     37          6           0       -6.051131   -2.210009    0.159149
     38          6           0       -8.371392   -5.029777   -0.458960
     39          6           0       -5.023288   -4.293058    0.289751
     40          8           0       -4.772996   -5.468711    0.327345
     41          6           0       -3.938500   -3.159782    0.506686
     42          6           0       -3.194578   -3.409439    1.797369
     43          8           0       -3.590489   -3.111286    2.891369
     44          8           0       -2.028992   -4.021873    1.571829
     45          6           0       -1.288777   -4.390095    2.731898
     46          6           0        2.802584   -0.338971   -1.431817
     47          6           0        4.119937   -0.273763   -0.742357
     48          6           0        5.123675    0.561115   -1.002210
     49          6           0        5.090020    1.636110   -2.051782
     50          6           0        6.417251    0.450422   -0.239016
     51          6           0        7.616484    0.075369   -1.112788
     52          6           0        8.891131   -0.098258   -0.295812
     53          6           0       10.165117   -0.324962   -1.114441
     54          6           0       10.082993   -1.601186   -1.948671
     55          6           0       11.383200   -0.326405   -0.186384
     56          6           0       12.736691   -0.355785   -0.887176
     57          6           0       13.900686   -0.242327    0.090760
     58          6           0       15.287628   -0.142178   -0.550412
     59          6           0       15.634804   -1.392203   -1.355562
     60          6           0       16.336862    0.150063    0.525722
     61          6           0       17.743179    0.428893    0.007172
     62          6           0       18.691779    0.877592    1.112977
     63          6           0       20.155359    1.027443    0.692552
     64          6           0       20.339207    2.078804   -0.398834
     65          6           0       21.025748    1.354876    1.902464
     66          1           0       -4.273362    3.676466    1.271534
     67          1           0      -10.403142    3.539046   -0.393287
     68          1           0      -10.170727   -2.821889   -0.767135
     69          1           0       -2.523417   -0.755279    1.888176
     70          1           0       -2.348567    1.938891    0.862897
     71          1           0       -1.832905    1.308310    3.211850
     72          1           0       -3.044372    2.596734    3.170023
     73          1           0       -3.536342    0.930056    3.494398
     74          1           0       -1.998555   -1.407715   -0.520245
     75          1           0       -2.169757    0.270488   -0.964072
     76          1           0       -0.316810    0.844225    0.692136
     77          1           0       -0.165493   -0.851419    1.068312
     78          1           0       -5.260453    6.195956    0.246772
     79          1           0       -6.515631    6.701338    1.377083
     80          1           0       -5.230638    5.611541    1.907206
     81          1           0      -10.001331    5.574081    0.495858
     82          1           0       -9.440068    7.759490   -0.325244
     83          1           0       -7.693379    7.239642   -0.624774
     84          1           0      -12.329614    2.601121   -1.871719
     85          1           0      -13.412736    1.354385   -1.264779
     86          1           0      -12.725186    2.538498   -0.156891
     87          1           0      -12.312153   -2.213189   -0.698279
     88          1           0      -13.365230   -0.847060   -0.946443
     89          1           0      -13.259345   -2.256583   -3.000054
     90          1           0      -12.583045   -0.654354   -3.324672
     91          1           0      -11.506672   -2.027160   -3.080875
     92          1           0       -8.921217   -5.015744   -1.402345
     93          1           0       -7.689935   -5.878419   -0.468039
     94          1           0       -9.098089   -5.186844    0.341693
     95          1           0       -3.233998   -3.259248   -0.321378
     96          1           0       -1.031704   -3.508537    3.319896
     97          1           0       -1.868718   -5.072899    3.352095
     98          1           0       -0.390250   -4.879511    2.366195
     99          1           0        2.669859   -1.298539   -1.937988
    100          1           0        2.665171    0.441745   -2.178391
    101          1           0        4.255195   -1.014896    0.040315
    102          1           0        4.082771    1.878552   -2.384217
    103          1           0        5.549152    2.549930   -1.667022
    104          1           0        5.666614    1.337746   -2.930976
    105          1           0        6.624803    1.410235    0.248761
    106          1           0        6.309894   -0.290747    0.556810
    107          1           0        7.378566   -0.845958   -1.650780
    108          1           0        7.780329    0.847148   -1.871550
    109          1           0        9.031336    0.793779    0.324390
    110          1           0        8.763025   -0.935286    0.401282
    111          1           0       10.272782    0.523949   -1.802070
    112          1           0        9.235200   -1.581126   -2.634184
    113          1           0       10.979998   -1.746602   -2.551102
    114          1           0        9.969311   -2.474740   -1.299546
    115          1           0       11.338069    0.566440    0.446574
    116          1           0       11.309549   -1.183787    0.493933
    117          1           0       12.831272   -1.277419   -1.464769
    118          1           0       12.788421    0.468572   -1.608150
    119          1           0       13.744539    0.642120    0.717835
    120          1           0       13.885873   -1.102468    0.771440
    121          1           0       15.273423    0.712069   -1.239748
    122          1           0       15.660048   -2.271035   -0.703979
    123          1           0       14.904779   -1.580422   -2.143380
    124          1           0       16.610072   -1.303122   -1.835077
    125          1           0       16.003837    1.016099    1.108122
    126          1           0       16.369759   -0.692102    1.227799
    127          1           0       18.155005   -0.466547   -0.468130
    128          1           0       17.687159    1.194678   -0.772729
    129          1           0       18.342558    1.832153    1.525780
    130          1           0       18.638144    0.154950    1.934678
    131          1           0       20.485248    0.061945    0.290679
    132          1           0       19.970446    3.051519   -0.059556
    133          1           0       21.394388    2.194088   -0.654858
    134          1           0       19.804175    1.817846   -1.312794
    135          1           0       20.926994    0.594662    2.680192
    136          1           0       22.080168    1.420274    1.626443
    137          1           0       20.735088    2.315988    2.336442
 ---------------------------------------------------------------------

 SCF Done:  E(UwB97XD) =  -2934.82126859     A.U. after   25 cycles

 Alpha virt. eigenvalues --    2.09558   2.09671   2.10141   2.10506   2.10692
 Alpha virt. eigenvalues --    2.10942   2.11113   2.11495   2.11565   2.11723
 Alpha virt. eigenvalues --    2.11915   2.12214   2.12466   2.12774   2.13131

  Beta  occ. eigenvalues --  -46.78463 -19.23708 -19.21636 -19.17168 -19.14471
  Beta  occ. eigenvalues --  -19.11705 -14.31759 -14.31018 -14.30457 -14.29781
  Beta  occ. eigenvalues --  -10.34899 -10.32368 -10.29085 -10.26436 -10.26333
  Beta  occ. eigenvalues --  -10.26330 -10.25837 -10.25635 -10.25421 -10.25164
  Beta  occ. eigenvalues --  -10.25127 -10.24962 -10.24767 -10.24757 -10.24735
  Beta  occ. eigenvalues --  -10.24705 -10.24579 -10.24538 -10.24506 -10.24384
  Beta  occ. eigenvalues --  -10.24335 -10.24179 -10.23827 -10.23654 -10.22807
  Beta  occ. eigenvalues --  -10.22238 -10.21841 -10.20751 -10.20747 -10.20684
  Beta  occ. eigenvalues --  -10.20672 -10.20634 -10.20629 -10.20243 -10.20027
  Beta  occ. eigenvalues --  -10.20009 -10.19987 -10.19572 -10.19557 -10.19457
  Beta  occ. eigenvalues --  -10.19316 -10.19295 -10.19165 -10.19047 -10.18407
  Beta  occ. eigenvalues --  -10.18146 -10.17981 -10.17979 -10.17964 -10.17676
  Beta  occ. eigenvalues --  -10.17657 -10.17602 -10.17097 -10.16232 -10.15342
  Beta  occ. eigenvalues --   -3.04760  -1.78246  -1.77659  -1.77611  -1.15441
  Beta  occ. eigenvalues --   -1.13223  -1.06123  -1.03637  -1.03120  -0.95744
  Beta  occ. eigenvalues --   -0.94766  -0.94701  -0.93744  -0.90717  -0.90018
  Beta  occ. eigenvalues --   -0.89104  -0.88110  -0.84846  -0.84196  -0.83681
  Beta  occ. eigenvalues --   -0.82687  -0.81512  -0.81286  -0.80908  -0.79931
  Beta  occ. eigenvalues --   -0.79581  -0.78895  -0.78003  -0.77824  -0.76876
  Beta  occ. eigenvalues --   -0.76404  -0.76094  -0.75604  -0.75268  -0.75065
  Beta  occ. eigenvalues --   -0.74443  -0.73911  -0.72927  -0.71850  -0.70684
  Beta  occ. eigenvalues --   -0.70202  -0.69653  -0.68958  -0.68829  -0.67111
  Beta  occ. eigenvalues --   -0.66335  -0.64975  -0.64136  -0.63969  -0.63299
  Beta  occ. eigenvalues --   -0.63283  -0.62792  -0.62575  -0.61945  -0.60591
  Beta  occ. eigenvalues --   -0.59979  -0.59314  -0.57861  -0.57477  -0.57402
  Beta  occ. eigenvalues --   -0.56250  -0.54901  -0.54324  -0.54281  -0.54101
  Beta  occ. eigenvalues --   -0.53776  -0.53309  -0.52699  -0.52523  -0.52043
  Beta  occ. eigenvalues --   -0.51424  -0.51180  -0.50923  -0.50819  -0.50586
  Beta  occ. eigenvalues --   -0.50475  -0.50288  -0.50058  -0.49800  -0.49565
  Beta  occ. eigenvalues --   -0.49212  -0.48733  -0.48639  -0.48454  -0.47782
  Beta  occ. eigenvalues --   -0.47687  -0.47312  -0.46962  -0.46795  -0.46489
  Beta  occ. eigenvalues --   -0.45818  -0.45567  -0.45110  -0.44908  -0.44839
  Beta  occ. eigenvalues --   -0.44698  -0.44343  -0.43771  -0.43749  -0.43484
  Beta  occ. eigenvalues --   -0.43351  -0.43180  -0.42728  -0.42416  -0.42339
  Beta  occ. eigenvalues --   -0.42254  -0.42139  -0.42071  -0.41887  -0.41702
  Beta  occ. eigenvalues --   -0.41412  -0.41293  -0.41202  -0.41150  -0.40601
  Beta  occ. eigenvalues --   -0.40543  -0.40316  -0.40085  -0.40011  -0.39836
  Beta  occ. eigenvalues --   -0.39768  -0.39658  -0.39331  -0.39143  -0.38676
  Beta  occ. eigenvalues --   -0.38585  -0.38304  -0.38210  -0.38034  -0.37888
  Beta  occ. eigenvalues --   -0.37803  -0.37727  -0.37499  -0.37379  -0.37261
  Beta  occ. eigenvalues --   -0.37075  -0.37063  -0.36967  -0.36964  -0.36607
  Beta  occ. eigenvalues --   -0.36329  -0.36271  -0.36107  -0.35989  -0.35898
  Beta  occ. eigenvalues --   -0.35297  -0.35130  -0.34927  -0.34610  -0.34103
  Beta  occ. eigenvalues --   -0.34048  -0.33523  -0.33445  -0.33266  -0.32982
  Beta  occ. eigenvalues --   -0.32718  -0.32294  -0.31981  -0.31520  -0.30908
  Beta  occ. eigenvalues --   -0.30441  -0.29300  -0.28417  -0.28197  -0.27612
  Beta  occ. eigenvalues --   -0.27404  -0.27362  -0.24779  -0.23556  -0.22829
  Beta  occ. eigenvalues --   -0.21869  -0.20766  -0.20226  -0.19922  -0.14092
  Beta  occ. eigenvalues --   -0.12881
  Beta virt. eigenvalues --    0.07684   0.09768   0.12200   0.12745   0.13437
  Beta virt. eigenvalues --    0.14314   0.14568   0.14797   0.14925   0.14963
  Beta virt. eigenvalues --    0.15507   0.15908   0.15944   0.16106   0.16289

 Mulliken charges and spin densities:
               1          2
     1  Mg   0.727531  -0.002960
     2  C   -0.196172   0.036846
     3  C   -0.571537   0.028716
     4  C   -0.396048   0.037350
     5  C   -0.400348   0.310329
     6  N   -0.425759   0.091935
     7  C    0.256877  -0.000809
     8  C    0.015967  -0.001723
     9  C    0.078271   0.000653
    10  C    0.218679   0.043490
    11  C   -0.396281   0.001036
    12  C   -0.313097   0.001371
    13  C   -0.218278   0.000048
    14  C    0.345155   0.000036
    15  O   -0.367373   0.000015
    16  O   -0.270283  -0.000007
    17  N   -0.370019  -0.062777
    18  C    0.296644   0.107684
    19  C   -0.032524   0.076410
    20  C   -0.002870   0.056271
    21  C    0.246639   0.072782
    22  C   -0.426712  -0.004534
    23  C   -0.173712  -0.020947
    24  C   -0.302612   0.038617
    25  N   -0.389450   0.120728
    26  C    0.214038   0.006614
    27  C   -0.022911  -0.078461
    28  C   -0.053859   0.046026
    29  C    0.329156  -0.139878
    30  C   -0.394268   0.006453
    31  C   -0.281722  -0.002764
    32  C   -0.324603   0.001945
    33  N   -0.385211   0.001596
    34  C    0.235150  -0.084784
    35  C   -0.123798   0.215370
    36  C   -0.079408  -0.001383
    37  C    0.155378   0.030042
    38  C   -0.428709  -0.011848
    39  C    0.108161   0.015957
    40  O   -0.369904   0.043483
    41  C    0.069985   0.002543
    42  C    0.295757   0.000933
    43  O   -0.363812   0.001108
    44  O   -0.266824  -0.000120
    45  C   -0.202097   0.000054
    46  C   -0.045966   0.000006
    47  C   -0.157490  -0.000001
    48  C    0.056208   0.000003
    49  C   -0.378632  -0.000000
    50  C   -0.190925   0.000000
    51  C   -0.253312  -0.000000
    52  C   -0.200548   0.000000
    53  C    0.053344  -0.000000
    54  C   -0.410273   0.000000
    55  C   -0.204168   0.000000
    56  C   -0.225567  -0.000000
    57  C   -0.205125   0.000000
    58  C    0.058592  -0.000000
    59  C   -0.410282   0.000000
    60  C   -0.203150   0.000000
    61  C   -0.230260  -0.000000
    62  C   -0.204033   0.000000
    63  C    0.015168  -0.000000
    64  C   -0.378942  -0.000000
    65  C   -0.342353  -0.000000
    66  H    0.092215  -0.001066
    67  H    0.103088  -0.000776
    68  H    0.109501  -0.009715
    69  H    0.103389   0.000196
    70  H    0.064598   0.001274
    71  H    0.097573   0.001779
    72  H    0.111729   0.000612
    73  H    0.140810  -0.000116
    74  H    0.127734  -0.000283
    75  H    0.133247   0.000113
    76  H    0.127669   0.000318
    77  H    0.126961  -0.000017
    78  H    0.124399   0.005744
    79  H    0.135418   0.000265
    80  H    0.113388   0.001442
    81  H    0.105789   0.002024
    82  H    0.102016  -0.001411
    83  H    0.130044  -0.001098
    84  H    0.128848  -0.003572
    85  H    0.103272  -0.000072
    86  H    0.123805  -0.003052
    87  H    0.104500   0.002660
    88  H    0.092806   0.000300
    89  H    0.090835  -0.000130
    90  H    0.106102   0.000212
    91  H    0.126800  -0.000116
    92  H    0.109159   0.008713
    93  H    0.145186   0.000374
    94  H    0.114811   0.011115
    95  H    0.090624   0.000819
    96  H    0.120287  -0.000017
    97  H    0.135174   0.000016
    98  H    0.118876   0.000007
    99  H    0.122512  -0.000001
   100  H    0.097056  -0.000000
   101  H    0.112985   0.000000
   102  H    0.128484   0.000000
   103  H    0.120542   0.000000
   104  H    0.136374   0.000000
   105  H    0.110562   0.000000
   106  H    0.105594  -0.000000
   107  H    0.114745   0.000000
   108  H    0.100968  -0.000000
   109  H    0.093408   0.000000
   110  H    0.098809  -0.000000
   111  H    0.060476   0.000000
   112  H    0.128809  -0.000000
   113  H    0.120268  -0.000000
   114  H    0.108157  -0.000000
   115  H    0.093624   0.000000
   116  H    0.094924  -0.000000
   117  H    0.098345   0.000000
   118  H    0.091290  -0.000000
   119  H    0.093597  -0.000000
   120  H    0.094368  -0.000000
   121  H    0.060588   0.000000
   122  H    0.106695   0.000000
   123  H    0.125166  -0.000000
   124  H    0.123054  -0.000000
   125  H    0.094670   0.000000
   126  H    0.095100  -0.000000
   127  H    0.096087   0.000000
   128  H    0.099630   0.000000
   129  H    0.094919   0.000000
   130  H    0.093343  -0.000000
   131  H    0.062841  -0.000000
   132  H    0.105985   0.000000
   133  H    0.114343   0.000000
   134  H    0.123898   0.000000
   135  H    0.112587   0.000000
   136  H    0.114282  -0.000000
   137  H    0.104793   0.000000
 Sum of Mulliken charges =  -1.00000   1.00000

 Dipole moment (field-independent basis, Debye):
    X=             34.5010    Y=              3.8498    Z=             -0.5416  Tot=             34.7194
 Quadrupole moment (field-independent basis, Debye-Ang):
   XX=           -649.7021   YY=           -473.2249   ZZ=           -418.3078
   XY=             -6.5099   XZ=              2.4429   YZ=             -1.2584

 Normal termination of Gaussian 16 at Fri Dec  6 01:14:26 2019.
