 Gaussian 16, Revision A.03,

 ----------------------------------------------------------------------
 # wB97XD/Def2TZVP Geom=Checkpoint Guess=Read iop(3/107=0795600000,3/10
 8=0795600000)
 ----------------------------------------------------------------------

 ------
 cla-s0
 ------
 Structure from the checkpoint file:  "cla-s0-07956.chk"
 Charge =  0 Multiplicity = 1

 SCF Done:  E(RwB97XD) =  -2935.17152340     A.U. after   17 cycles
 Normal termination of Gaussian 16 at Wed Dec  4 22:06:56 2019.

 ----------------------------------------------------------------------
 # wB97XD/Def2TZVP Geom=Checkpoint iop(3/107=0795600000,3/108=079560000
 0)
 ----------------------------------------------------------------------

 -------------
 cla-s0-Cation
 -------------
 Structure from the checkpoint file:  "/home/padawan/israel-mol/w-tuning/chla/tuning/logs/Gau-635.chk"
 Charge =  1 Multiplicity = 2

 SCF Done:  E(UwB97XD) =  -2934.95553208     A.U. after   36 cycles
 Normal termination of Gaussian 16 at Thu Dec  5 05:23:10 2019.
 Gaussian 16:  ES64L-G16RevA.03 25-Dec-2016

 ----------------------------------------------------------------------
 # wB97XD/Def2TZVP Geom=Checkpoint iop(3/107=0795600000,3/108=079560000
 0)
 ----------------------------------------------------------------------

 ------------
 cla-s0-Anion
 ------------
 Structure from the checkpoint file:  "/home/padawan/israel-mol/w-tuning/chla/tuning/logs/Gau-3199.chk"
 Charge = -1 Multiplicity = 2

                         Standard orientation:
 ---------------------------------------------------------------------
 Center     Atomic      Atomic             Coordinates (Angstroms)
 Number     Number       Type             X           Y           Z
 ---------------------------------------------------------------------
      1         12           0       -7.193104    0.486516    0.135702
      2          6           0       -4.716348   -1.858831    0.463745
      3          6           0       -4.969493    2.898781    0.986155
      4          6           0       -9.627604    2.797493   -0.248956
      5          6           0       -9.457064   -2.032666   -0.560352
      6          7           0       -5.122786    0.498237    0.627746
      7          6           0       -4.283284   -0.591024    0.687856
      8          6           0       -2.872164   -0.175589    1.028414
      9          6           0       -3.043775    1.303947    1.418311
     10          6           0       -4.462324    1.609066    0.976979
     11          6           0       -2.854015    1.553887    2.913567
     12          6           0       -1.903256   -0.391464   -0.136947
     13          6           0       -0.460054   -0.157612    0.276464
     14          6           0        0.515484   -0.311026   -0.863860
     15          8           0        0.217235   -0.487700   -2.014196
     16          8           0        1.776343   -0.214780   -0.430042
     17          7           0       -7.276259    2.490737    0.320186
     18          6           0       -6.268346    3.310217    0.670798
     19          6           0       -6.728797    4.691853    0.686308
     20          6           0       -8.040353    4.666052    0.325141
     21          6           0       -8.392621    3.267025    0.108157
     22          6           0       -5.890792    5.860922    1.074989
     23          6           0       -8.977743    5.776257    0.194306
     24          6           0       -8.684023    6.987132   -0.267931
     25          7           0       -9.197334    0.393884   -0.328301
     26          6           0      -10.021301    1.450331   -0.450300
     27          6           0      -11.345961    1.020509   -0.800882
     28          6           0      -11.300926   -0.345755   -0.878067
     29          6           0       -9.946033   -0.729492   -0.584260
     30          6           0      -12.512322    1.923157   -1.034401
     31          6           0      -12.409244   -1.276964   -1.253077
     32          6           0      -12.444130   -1.574015   -2.753690
     33          7           0       -7.148882   -1.504918   -0.040421
     34          6           0       -8.149793   -2.427995   -0.301267
     35          6           0       -7.619437   -3.760747   -0.252055
     36          6           0       -6.276772   -3.595123    0.042959
     37          6           0       -6.051131   -2.210009    0.159149
     38          6           0       -8.371392   -5.029777   -0.458960
     39          6           0       -5.023288   -4.293058    0.289751
     40          8           0       -4.772996   -5.468711    0.327345
     41          6           0       -3.938500   -3.159782    0.506686
     42          6           0       -3.194578   -3.409439    1.797369
     43          8           0       -3.590489   -3.111286    2.891369
     44          8           0       -2.028992   -4.021873    1.571829
     45          6           0       -1.288777   -4.390095    2.731898
     46          6           0        2.802584   -0.338971   -1.431817
     47          6           0        4.119937   -0.273763   -0.742357
     48          6           0        5.123675    0.561115   -1.002210
     49          6           0        5.090020    1.636110   -2.051782
     50          6           0        6.417251    0.450422   -0.239016
     51          6           0        7.616484    0.075369   -1.112788
     52          6           0        8.891131   -0.098258   -0.295812
     53          6           0       10.165117   -0.324962   -1.114441
     54          6           0       10.082993   -1.601186   -1.948671
     55          6           0       11.383200   -0.326405   -0.186384
     56          6           0       12.736691   -0.355785   -0.887176
     57          6           0       13.900686   -0.242327    0.090760
     58          6           0       15.287628   -0.142178   -0.550412
     59          6           0       15.634804   -1.392203   -1.355562
     60          6           0       16.336862    0.150063    0.525722
     61          6           0       17.743179    0.428893    0.007172
     62          6           0       18.691779    0.877592    1.112977
     63          6           0       20.155359    1.027443    0.692552
     64          6           0       20.339207    2.078804   -0.398834
     65          6           0       21.025748    1.354876    1.902464
     66          1           0       -4.273362    3.676466    1.271534
     67          1           0      -10.403142    3.539046   -0.393287
     68          1           0      -10.170727   -2.821889   -0.767135
     69          1           0       -2.523417   -0.755279    1.888176
     70          1           0       -2.348567    1.938891    0.862897
     71          1           0       -1.832905    1.308310    3.211850
     72          1           0       -3.044372    2.596734    3.170023
     73          1           0       -3.536342    0.930056    3.494398
     74          1           0       -1.998555   -1.407715   -0.520245
     75          1           0       -2.169757    0.270488   -0.964072
     76          1           0       -0.316810    0.844225    0.692136
     77          1           0       -0.165493   -0.851419    1.068312
     78          1           0       -5.260453    6.195956    0.246772
     79          1           0       -6.515631    6.701338    1.377083
     80          1           0       -5.230638    5.611541    1.907206
     81          1           0      -10.001331    5.574081    0.495858
     82          1           0       -9.440068    7.759490   -0.325244
     83          1           0       -7.693379    7.239642   -0.624774
     84          1           0      -12.329614    2.601121   -1.871719
     85          1           0      -13.412736    1.354385   -1.264779
     86          1           0      -12.725186    2.538498   -0.156891
     87          1           0      -12.312153   -2.213189   -0.698279
     88          1           0      -13.365230   -0.847060   -0.946443
     89          1           0      -13.259345   -2.256583   -3.000054
     90          1           0      -12.583045   -0.654354   -3.324672
     91          1           0      -11.506672   -2.027160   -3.080875
     92          1           0       -8.921217   -5.015744   -1.402345
     93          1           0       -7.689935   -5.878419   -0.468039
     94          1           0       -9.098089   -5.186844    0.341693
     95          1           0       -3.233998   -3.259248   -0.321378
     96          1           0       -1.031704   -3.508537    3.319896
     97          1           0       -1.868718   -5.072899    3.352095
     98          1           0       -0.390250   -4.879511    2.366195
     99          1           0        2.669859   -1.298539   -1.937988
    100          1           0        2.665171    0.441745   -2.178391
    101          1           0        4.255195   -1.014896    0.040315
    102          1           0        4.082771    1.878552   -2.384217
    103          1           0        5.549152    2.549930   -1.667022
    104          1           0        5.666614    1.337746   -2.930976
    105          1           0        6.624803    1.410235    0.248761
    106          1           0        6.309894   -0.290747    0.556810
    107          1           0        7.378566   -0.845958   -1.650780
    108          1           0        7.780329    0.847148   -1.871550
    109          1           0        9.031336    0.793779    0.324390
    110          1           0        8.763025   -0.935286    0.401282
    111          1           0       10.272782    0.523949   -1.802070
    112          1           0        9.235200   -1.581126   -2.634184
    113          1           0       10.979998   -1.746602   -2.551102
    114          1           0        9.969311   -2.474740   -1.299546
    115          1           0       11.338069    0.566440    0.446574
    116          1           0       11.309549   -1.183787    0.493933
    117          1           0       12.831272   -1.277419   -1.464769
    118          1           0       12.788421    0.468572   -1.608150
    119          1           0       13.744539    0.642120    0.717835
    120          1           0       13.885873   -1.102468    0.771440
    121          1           0       15.273423    0.712069   -1.239748
    122          1           0       15.660048   -2.271035   -0.703979
    123          1           0       14.904779   -1.580422   -2.143380
    124          1           0       16.610072   -1.303122   -1.835077
    125          1           0       16.003837    1.016099    1.108122
    126          1           0       16.369759   -0.692102    1.227799
    127          1           0       18.155005   -0.466547   -0.468130
    128          1           0       17.687159    1.194678   -0.772729
    129          1           0       18.342558    1.832153    1.525780
    130          1           0       18.638144    0.154950    1.934678
    131          1           0       20.485248    0.061945    0.290679
    132          1           0       19.970446    3.051519   -0.059556
    133          1           0       21.394388    2.194088   -0.654858
    134          1           0       19.804175    1.817846   -1.312794
    135          1           0       20.926994    0.594662    2.680192
    136          1           0       22.080168    1.420274    1.626443
    137          1           0       20.735088    2.315988    2.336442
 ---------------------------------------------------------------------

 SCF Done:  E(UwB97XD) =  -2935.25036917     A.U. after   37 cycles

 Alpha virt. eigenvalues --    2.21863   2.22173   2.22512   2.22816   2.23106
 Alpha virt. eigenvalues --    2.23321   2.23761   2.23833   2.24158   2.24451
 Alpha virt. eigenvalues --    2.24604   2.24796   2.24841   2.25156   2.25375

  Beta  occ. eigenvalues --  -47.02953 -19.46091 -19.43875 -19.39418 -19.36552
  Beta  occ. eigenvalues --  -19.33121 -14.54335 -14.54326 -14.52700 -14.52372
  Beta  occ. eigenvalues --  -10.61439 -10.58779 -10.54015 -10.52101 -10.51085
  Beta  occ. eigenvalues --  -10.50530 -10.50229 -10.50038 -10.49641 -10.49370
  Beta  occ. eigenvalues --  -10.49307 -10.49151 -10.48966 -10.48962 -10.48925
  Beta  occ. eigenvalues --  -10.48913 -10.48888 -10.48755 -10.48737 -10.48611
  Beta  occ. eigenvalues --  -10.48509 -10.48508 -10.48095 -10.48065 -10.48011
  Beta  occ. eigenvalues --  -10.47557 -10.47118 -10.46463 -10.45864 -10.45530
  Beta  occ. eigenvalues --  -10.45408 -10.45313 -10.45308 -10.45230 -10.44851
  Beta  occ. eigenvalues --  -10.44837 -10.44283 -10.44260 -10.44163 -10.44040
  Beta  occ. eigenvalues --  -10.43937 -10.43786 -10.43549 -10.43495 -10.43434
  Beta  occ. eigenvalues --  -10.43049 -10.43035 -10.42230 -10.42184 -10.41824
  Beta  occ. eigenvalues --  -10.41552 -10.41352 -10.40938 -10.40271 -10.38745
  Beta  occ. eigenvalues --   -3.29784  -1.98869  -1.98370  -1.98330  -1.35744
  Beta  occ. eigenvalues --   -1.33360  -1.25121  -1.22491  -1.21987  -1.14818
  Beta  occ. eigenvalues --   -1.13766  -1.13435  -1.12327  -1.08440  -1.07704
  Beta  occ. eigenvalues --   -1.06597  -1.05412  -1.01914  -1.01224  -1.00931
  Beta  occ. eigenvalues --   -0.99398  -0.99064  -0.98312  -0.97162  -0.96753
  Beta  occ. eigenvalues --   -0.96134  -0.95225  -0.94394  -0.93850  -0.92938
  Beta  occ. eigenvalues --   -0.92305  -0.91905  -0.91097  -0.90157  -0.90105
  Beta  occ. eigenvalues --   -0.89459  -0.89095  -0.88399  -0.86864  -0.85491
  Beta  occ. eigenvalues --   -0.85198  -0.84896  -0.83585  -0.82699  -0.81656
  Beta  occ. eigenvalues --   -0.79836  -0.78729  -0.77826  -0.77080  -0.76854
  Beta  occ. eigenvalues --   -0.76125  -0.75600  -0.75068  -0.74170  -0.73845
  Beta  occ. eigenvalues --   -0.72485  -0.71966  -0.70081  -0.69583  -0.69386
  Beta  occ. eigenvalues --   -0.68444  -0.65911  -0.65439  -0.65183  -0.65103
  Beta  occ. eigenvalues --   -0.64339  -0.64312  -0.63738  -0.63464  -0.62888
  Beta  occ. eigenvalues --   -0.62541  -0.62176  -0.61796  -0.61578  -0.61240
  Beta  occ. eigenvalues --   -0.60954  -0.60701  -0.60467  -0.60153  -0.59655
  Beta  occ. eigenvalues --   -0.59580  -0.59349  -0.58867  -0.58294  -0.57978
  Beta  occ. eigenvalues --   -0.57690  -0.57162  -0.56682  -0.56301  -0.56178
  Beta  occ. eigenvalues --   -0.55431  -0.55285  -0.55027  -0.54828  -0.54488
  Beta  occ. eigenvalues --   -0.53929  -0.53797  -0.53624  -0.53360  -0.52969
  Beta  occ. eigenvalues --   -0.52517  -0.52447  -0.52077  -0.51820  -0.51642
  Beta  occ. eigenvalues --   -0.51549  -0.51303  -0.51227  -0.51051  -0.50898
  Beta  occ. eigenvalues --   -0.50703  -0.50533  -0.50028  -0.49875  -0.49747
  Beta  occ. eigenvalues --   -0.49647  -0.49561  -0.49340  -0.49061  -0.48892
  Beta  occ. eigenvalues --   -0.48600  -0.48406  -0.48357  -0.47949  -0.47616
  Beta  occ. eigenvalues --   -0.47469  -0.47071  -0.46894  -0.46802  -0.46387
  Beta  occ. eigenvalues --   -0.46225  -0.46110  -0.45897  -0.45841  -0.45776
  Beta  occ. eigenvalues --   -0.45479  -0.45371  -0.45308  -0.45261  -0.44977
  Beta  occ. eigenvalues --   -0.44915  -0.44796  -0.44484  -0.44307  -0.44020
  Beta  occ. eigenvalues --   -0.43992  -0.43651  -0.43614  -0.42991  -0.42777
  Beta  occ. eigenvalues --   -0.42510  -0.42040  -0.41671  -0.41439  -0.41306
  Beta  occ. eigenvalues --   -0.41099  -0.40953  -0.40710  -0.40097  -0.39882
  Beta  occ. eigenvalues --   -0.39615  -0.37315  -0.36880  -0.35867  -0.35337
  Beta  occ. eigenvalues --   -0.34111  -0.34015  -0.32941  -0.30325  -0.28485
  Beta  occ. eigenvalues --   -0.27819  -0.25989  -0.25244  -0.24770  -0.18523
  Beta  occ. eigenvalues --   -0.16290
  Beta virt. eigenvalues --    0.10066   0.12685   0.13511   0.14223   0.15097
  Beta virt. eigenvalues --    0.15502   0.15745   0.15876   0.16431   0.16640
  Beta virt. eigenvalues --    0.16852   0.17027   0.17280   0.17945   0.18093

 Mulliken charges and spin densities:
               1          2
     1  Mg   0.870464  -0.001997
     2  C   -0.254223  -0.003305
     3  C   -0.601052  -0.046311
     4  C   -0.370284  -0.070081
     5  C   -0.335468   0.524498
     6  N   -0.470367   0.077607
     7  C    0.232793   0.035451
     8  C    0.010075  -0.003499
     9  C    0.071655  -0.002748
    10  C    0.224551   0.119838
    11  C   -0.431442   0.003571
    12  C   -0.329936   0.002613
    13  C   -0.246962   0.000229
    14  C    0.407150   0.000021
    15  O   -0.430342   0.000022
    16  O   -0.323000  -0.000012
    17  N   -0.391157  -0.159270
    18  C    0.293123   0.209741
    19  C   -0.055030   0.073137
    20  C   -0.005520   0.070855
    21  C    0.215755   0.144874
    22  C   -0.452287  -0.006605
    23  C   -0.196903  -0.065593
    24  C   -0.299699   0.076305
    25  N   -0.412505   0.177745
    26  C    0.190137   0.041594
    27  C   -0.033626  -0.222281
    28  C   -0.068099   0.170045
    29  C    0.282052  -0.328493
    30  C   -0.425919   0.021323
    31  C   -0.301762  -0.012159
    32  C   -0.353095   0.005811
    33  N   -0.405354   0.023074
    34  C    0.198580  -0.261804
    35  C   -0.125632   0.375511
    36  C   -0.149382  -0.058176
    37  C    0.184849   0.049540
    38  C   -0.452726  -0.028619
    39  C    0.190415   0.005214
    40  O   -0.446484   0.035666
    41  C    0.113104   0.005465
    42  C    0.358952   0.000520
    43  O   -0.425996   0.000881
    44  O   -0.322441  -0.000053
    45  C   -0.189451   0.000071
    46  C   -0.060464   0.000006
    47  C   -0.150313  -0.000002
    48  C    0.033758   0.000003
    49  C   -0.406756  -0.000000
    50  C   -0.218955  -0.000000
    51  C   -0.260512  -0.000000
    52  C   -0.255356   0.000000
    53  C    0.068437  -0.000000
    54  C   -0.447531   0.000000
    55  C   -0.252726  -0.000000
    56  C   -0.237444   0.000000
    57  C   -0.254152  -0.000000
    58  C    0.072903   0.000000
    59  C   -0.447244  -0.000000
    60  C   -0.251847  -0.000000
    61  C   -0.241830   0.000000
    62  C   -0.242453  -0.000000
    63  C    0.028096   0.000000
    64  C   -0.409262  -0.000000
    65  C   -0.375908   0.000000
    66  H    0.120329   0.001828
    67  H    0.127058   0.002950
    68  H    0.137915  -0.016838
    69  H    0.131026   0.001289
    70  H    0.099377   0.003415
    71  H    0.109119   0.002250
    72  H    0.121454   0.000640
    73  H    0.149987  -0.000207
    74  H    0.137389  -0.000355
    75  H    0.153157   0.000082
    76  H    0.145468   0.000323
    77  H    0.144975   0.000009
    78  H    0.138959   0.005693
    79  H    0.144368   0.000238
    80  H    0.123540   0.001218
    81  H    0.126675   0.003372
    82  H    0.118186  -0.003185
    83  H    0.142217  -0.002409
    84  H    0.140515  -0.009805
    85  H    0.114737  -0.000548
    86  H    0.133711  -0.008962
    87  H    0.119938   0.004323
    88  H    0.109664   0.001593
    89  H    0.100504   0.000486
    90  H    0.110764   0.000288
    91  H    0.132329  -0.000548
    92  H    0.116683   0.013057
    93  H    0.153354   0.001188
    94  H    0.124313   0.016652
    95  H    0.117384   0.001749
    96  H    0.124580  -0.000012
    97  H    0.140976   0.000011
    98  H    0.125418  -0.000003
    99  H    0.136781  -0.000001
   100  H    0.113149  -0.000001
   101  H    0.137409   0.000000
   102  H    0.137141   0.000000
   103  H    0.129303   0.000000
   104  H    0.142086   0.000000
   105  H    0.125816   0.000000
   106  H    0.121919   0.000000
   107  H    0.124478   0.000000
   108  H    0.111681  -0.000000
   109  H    0.111055   0.000000
   110  H    0.114807  -0.000000
   111  H    0.083523   0.000000
   112  H    0.136710  -0.000000
   113  H    0.128364  -0.000000
   114  H    0.116252   0.000000
   115  H    0.109854   0.000000
   116  H    0.111514  -0.000000
   117  H    0.103568   0.000000
   118  H    0.108445  -0.000000
   119  H    0.109846  -0.000000
   120  H    0.110903  -0.000000
   121  H    0.083437  -0.000000
   122  H    0.114960   0.000000
   123  H    0.132653   0.000000
   124  H    0.131225   0.000000
   125  H    0.111269  -0.000000
   126  H    0.110639   0.000000
   127  H    0.106615  -0.000000
   128  H    0.110082  -0.000000
   129  H    0.108592  -0.000000
   130  H    0.107552   0.000000
   131  H    0.077891  -0.000000
   132  H    0.112930  -0.000000
   133  H    0.123570   0.000000
   134  H    0.127226   0.000000
   135  H    0.119384  -0.000000
   136  H    0.121473   0.000000
   137  H    0.111881  -0.000000
 Sum of Mulliken charges =  -1.00000   1.00000

 Dipole moment (field-independent basis, Debye):
    X=             34.6281    Y=              5.7783    Z=             -0.3667  Tot=             35.1089
 Quadrupole moment (field-independent basis, Debye-Ang):
   XX=           -639.9493   YY=           -466.2317   ZZ=           -415.0809
   XY=            -19.5126   XZ=              3.4769   YZ=             -0.7560

 Normal termination of Gaussian 16 at Thu Dec  5 12:55:12 2019.
