 Gaussian 16, Revision A.03,

 ----------------------------------------------------------------------
 # wB97XD/Def2TZVP Geom=Checkpoint Guess=Read iop(3/107=0691300000,3/10
 8=0691300000)
 ----------------------------------------------------------------------

 ------
 cla-s0
 ------
 Structure from the checkpoint file:  "cla-s0-06913.chk"
 Charge =  0 Multiplicity = 1

 SCF Done:  E(RwB97XD) =  -2935.17087349     A.U. after   17 cycles
 Normal termination of Gaussian 16 at Fri Dec  6 03:42:36 2019.

 ----------------------------------------------------------------------
 # wB97XD/Def2TZVP Geom=Checkpoint iop(3/107=0691300000,3/108=069130000
 0)
 ----------------------------------------------------------------------

 -------------
 cla-s0-Cation
 -------------
 Structure from the checkpoint file:  "/home/padawan/israel-mol/w-tuning/chla/tuning/logs/Gau-11852.chk"
 Charge =  1 Multiplicity = 2

 SCF Done:  E(UwB97XD) =  -2934.95243206     A.U. after   36 cycles

 Alpha virt. eigenvalues --    2.04755   2.04761   2.04964   2.05202   2.05509
 Alpha virt. eigenvalues --    2.06081   2.06198   2.06660   2.06697   2.06989
 Alpha virt. eigenvalues --    2.07196   2.07439   2.07940   2.08057   2.08163

  Beta  occ. eigenvalues --  -47.22616 -19.56622 -19.54210 -19.52509 -19.50715
  Beta  occ. eigenvalues --  -19.48667 -14.74316 -14.74146 -14.73596 -14.72446
  Beta  occ. eigenvalues --  -10.72571 -10.70383 -10.70314 -10.67531 -10.67091
  Beta  occ. eigenvalues --  -10.66822 -10.66431 -10.66186 -10.66012 -10.65763
  Beta  occ. eigenvalues --  -10.65490 -10.64995 -10.63394 -10.62055 -10.61607
  Beta  occ. eigenvalues --  -10.61596 -10.61363 -10.61362 -10.61305 -10.61243
  Beta  occ. eigenvalues --  -10.61015 -10.60846 -10.60656 -10.60631 -10.60266
  Beta  occ. eigenvalues --  -10.59431 -10.59118 -10.59050 -10.58720 -10.58643
  Beta  occ. eigenvalues --  -10.58586 -10.58550 -10.58535 -10.58233 -10.57853
  Beta  occ. eigenvalues --  -10.56816 -10.55193 -10.53029 -10.52993 -10.52862
  Beta  occ. eigenvalues --  -10.52089 -10.51833 -10.51339 -10.50758 -10.50527
  Beta  occ. eigenvalues --  -10.50387 -10.50273 -10.50144 -10.49993 -10.49655
  Beta  occ. eigenvalues --  -10.49560 -10.49410 -10.49159 -10.48740 -10.48702
  Beta  occ. eigenvalues --   -3.49537  -2.19772  -2.19297  -2.19249  -1.48293
  Beta  occ. eigenvalues --   -1.45969  -1.42284  -1.37921  -1.37488  -1.36159
  Beta  occ. eigenvalues --   -1.35770  -1.35613  -1.34459  -1.22896  -1.19241
  Beta  occ. eigenvalues --   -1.18805  -1.18361  -1.17945  -1.17835  -1.17038
  Beta  occ. eigenvalues --   -1.14700  -1.13867  -1.12417  -1.12202  -1.11625
  Beta  occ. eigenvalues --   -1.11002  -1.10758  -1.09251  -1.09037  -1.08458
  Beta  occ. eigenvalues --   -1.07259  -1.05860  -1.05261  -1.04409  -1.03926
  Beta  occ. eigenvalues --   -1.02655  -1.02185  -1.01842  -1.00142  -0.99715
  Beta  occ. eigenvalues --   -0.98309  -0.97289  -0.95825  -0.95304  -0.94472
  Beta  occ. eigenvalues --   -0.94263  -0.93941  -0.93344  -0.92553  -0.91977
  Beta  occ. eigenvalues --   -0.91011  -0.89845  -0.89086  -0.87738  -0.86058
  Beta  occ. eigenvalues --   -0.84966  -0.84714  -0.84418  -0.83899  -0.83617
  Beta  occ. eigenvalues --   -0.83247  -0.82430  -0.82393  -0.81843  -0.80659
  Beta  occ. eigenvalues --   -0.80363  -0.79730  -0.79133  -0.79108  -0.78538
  Beta  occ. eigenvalues --   -0.78419  -0.78252  -0.77118  -0.76770  -0.76444
  Beta  occ. eigenvalues --   -0.75939  -0.74932  -0.74574  -0.74223  -0.73900
  Beta  occ. eigenvalues --   -0.73813  -0.73282  -0.73248  -0.72540  -0.72374
  Beta  occ. eigenvalues --   -0.72300  -0.71697  -0.71166  -0.70978  -0.70748
  Beta  occ. eigenvalues --   -0.70268  -0.69974  -0.69619  -0.69522  -0.68720
  Beta  occ. eigenvalues --   -0.68577  -0.68405  -0.68252  -0.67951  -0.67907
  Beta  occ. eigenvalues --   -0.67620  -0.67416  -0.67321  -0.67024  -0.66886
  Beta  occ. eigenvalues --   -0.66556  -0.66326  -0.66184  -0.66092  -0.65649
  Beta  occ. eigenvalues --   -0.65366  -0.65032  -0.64975  -0.64631  -0.64462
  Beta  occ. eigenvalues --   -0.64220  -0.64199  -0.63993  -0.63832  -0.63544
  Beta  occ. eigenvalues --   -0.63304  -0.63114  -0.62355  -0.61967  -0.61752
  Beta  occ. eigenvalues --   -0.61589  -0.61420  -0.61310  -0.60891  -0.60815
  Beta  occ. eigenvalues --   -0.60648  -0.60533  -0.60181  -0.59887  -0.59354
  Beta  occ. eigenvalues --   -0.59285  -0.58923  -0.58698  -0.58218  -0.57730
  Beta  occ. eigenvalues --   -0.57626  -0.57421  -0.57236  -0.57143  -0.56079
  Beta  occ. eigenvalues --   -0.56051  -0.55846  -0.55375  -0.54921  -0.54874
  Beta  occ. eigenvalues --   -0.54746  -0.54577  -0.53845  -0.53761  -0.53063
  Beta  occ. eigenvalues --   -0.52854  -0.52577  -0.52360  -0.52073  -0.51385
  Beta  occ. eigenvalues --   -0.51296  -0.50773  -0.50325  -0.50258  -0.50069
  Beta  occ. eigenvalues --   -0.49845  -0.49396  -0.49252  -0.48959  -0.48714
  Beta  occ. eigenvalues --   -0.48588  -0.46373  -0.46341  -0.43188  -0.43123
  Beta virt. eigenvalues --   -0.18492  -0.12448  -0.09530  -0.03164  -0.03026
  Beta virt. eigenvalues --   -0.00828  -0.00167   0.01171   0.01908   0.02181
  Beta virt. eigenvalues --    0.02370   0.02625   0.02878   0.03428   0.04312

 Mulliken charges and spin densities:
               1          2
     1  Mg   0.898063   0.014027
     2  C   -0.240666  -0.030218
     3  C   -0.517285   0.054774
     4  C   -0.293734  -0.337871
     5  C   -0.238501  -0.460608
     6  N   -0.458708   0.013448
     7  C    0.290957   0.163957
     8  C   -0.016213  -0.004306
     9  C    0.029013  -0.002690
    10  C    0.250265   0.100367
    11  C   -0.433911   0.005850
    12  C   -0.323074   0.011194
    13  C   -0.262802   0.001471
    14  C    0.392842   0.000119
    15  O   -0.412355   0.000007
    16  O   -0.310623   0.000002
    17  N   -0.423988  -0.073620
    18  C    0.327786   0.063838
    19  C   -0.025844   0.227192
    20  C    0.010065  -0.194338
    21  C    0.234813   0.336156
    22  C   -0.449137  -0.016377
    23  C   -0.196050   0.093843
    24  C   -0.274448  -0.101396
    25  N   -0.391400  -0.246445
    26  C    0.251607   0.307375
    27  C   -0.016574   0.132715
    28  C   -0.064668  -0.073405
    29  C    0.313716   0.427928
    30  C   -0.413394  -0.008521
    31  C   -0.290570   0.004027
    32  C   -0.361447  -0.000457
    33  N   -0.414054  -0.143223
    34  C    0.247623   0.427519
    35  C   -0.031939  -0.067342
    36  C   -0.110362   0.138859
    37  C    0.251902   0.157031
    38  C   -0.424777   0.007205
    39  C    0.193947  -0.052098
    40  O   -0.325067   0.073633
    41  C    0.080950   0.004982
    42  C    0.335321  -0.001120
    43  O   -0.389958   0.000646
    44  O   -0.302872  -0.000215
    45  C   -0.194360  -0.000052
    46  C   -0.071534   0.000024
    47  C   -0.160807  -0.000006
    48  C    0.040127   0.000010
    49  C   -0.408542  -0.000000
    50  C   -0.219696  -0.000000
    51  C   -0.261447  -0.000000
    52  C   -0.259695   0.000000
    53  C    0.062124  -0.000000
    54  C   -0.448272  -0.000000
    55  C   -0.252565   0.000000
    56  C   -0.241403   0.000000
    57  C   -0.255004  -0.000000
    58  C    0.066102   0.000000
    59  C   -0.447979  -0.000000
    60  C   -0.250474  -0.000000
    61  C   -0.245525   0.000000
    62  C   -0.241884  -0.000000
    63  C    0.021861   0.000000
    64  C   -0.409948  -0.000000
    65  C   -0.378602   0.000000
    66  H    0.175760  -0.002028
    67  H    0.187161   0.007312
    68  H    0.199408   0.009582
    69  H    0.175456   0.006743
    70  H    0.148998   0.003741
    71  H    0.154663   0.000891
    72  H    0.142655   0.000100
    73  H    0.153878  -0.000106
    74  H    0.145404  -0.000162
    75  H    0.160424  -0.000368
    76  H    0.155718   0.000030
    77  H    0.157843  -0.000018
    78  H    0.181313   0.012925
    79  H    0.178349   0.002521
    80  H    0.146523   0.005542
    81  H    0.150104  -0.005604
    82  H    0.164672   0.003200
    83  H    0.170789   0.002712
    84  H    0.170858   0.006764
    85  H    0.150056  -0.000173
    86  H    0.162790   0.006085
    87  H    0.130729  -0.001338
    88  H    0.148752  -0.000670
    89  H    0.150777   0.000166
    90  H    0.132851  -0.000198
    91  H    0.121876   0.000154
    92  H    0.157235  -0.002480
    93  H    0.189591  -0.000734
    94  H    0.173456  -0.002197
    95  H    0.163821  -0.006283
    96  H    0.133601   0.000004
    97  H    0.154533  -0.000001
    98  H    0.153746  -0.000002
    99  H    0.144307  -0.000001
   100  H    0.120229  -0.000002
   101  H    0.138676   0.000000
   102  H    0.123822   0.000000
   103  H    0.139680   0.000000
   104  H    0.155728   0.000000
   105  H    0.131109   0.000001
   106  H    0.121917   0.000000
   107  H    0.125472   0.000000
   108  H    0.117052  -0.000000
   109  H    0.114580  -0.000000
   110  H    0.116072  -0.000000
   111  H    0.087187   0.000000
   112  H    0.130348  -0.000000
   113  H    0.137435  -0.000000
   114  H    0.117507   0.000000
   115  H    0.110838   0.000000
   116  H    0.113025  -0.000000
   117  H    0.106055   0.000000
   118  H    0.110756  -0.000000
   119  H    0.110451  -0.000000
   120  H    0.112291   0.000000
   121  H    0.085143  -0.000000
   122  H    0.116869   0.000000
   123  H    0.129313   0.000000
   124  H    0.136870   0.000000
   125  H    0.110845  -0.000000
   126  H    0.112130   0.000000
   127  H    0.109316  -0.000000
   128  H    0.111454  -0.000000
   129  H    0.108676  -0.000000
   130  H    0.108223   0.000000
   131  H    0.080516  -0.000000
   132  H    0.113288  -0.000000
   133  H    0.127817  -0.000000
   134  H    0.125939   0.000000
   135  H    0.120131  -0.000000
   136  H    0.125545   0.000000
   137  H    0.112670  -0.000000
 Sum of Mulliken charges =   1.00000   1.00000

 Dipole moment (field-independent basis, Debye):
    X=            -32.3158    Y=              5.9324    Z=              0.3589  Tot=             32.8578
 Quadrupole moment (field-independent basis, Debye-Ang):
   XX=             -2.3649   YY=           -325.7444   ZZ=           -392.1568
   XY=            -32.9695   XZ=             20.4790   YZ=              3.3725

 Normal termination of Gaussian 16 at Fri Dec  6 10:55:32 2019.
 Gaussian 16:  ES64L-G16RevA.03 25-Dec-2016

 ----------------------------------------------------------------------
 # wB97XD/Def2TZVP Geom=Checkpoint iop(3/107=0691300000,3/108=069130000
 0)
 ----------------------------------------------------------------------

 ------------
 cla-s0-Anion
 ------------
 Structure from the checkpoint file:  "/home/padawan/israel-mol/w-tuning/chla/tuning/logs/Gau-13578.chk"
 Charge = -1 Multiplicity = 2

                         Standard orientation:
 ---------------------------------------------------------------------
 Center     Atomic      Atomic             Coordinates (Angstroms)
 Number     Number       Type             X           Y           Z
 ---------------------------------------------------------------------
      1         12           0       -7.193104    0.486516    0.135702
      2          6           0       -4.716348   -1.858831    0.463745
      3          6           0       -4.969493    2.898781    0.986155
      4          6           0       -9.627604    2.797493   -0.248956
      5          6           0       -9.457064   -2.032666   -0.560352
      6          7           0       -5.122786    0.498237    0.627746
      7          6           0       -4.283284   -0.591024    0.687856
      8          6           0       -2.872164   -0.175589    1.028414
      9          6           0       -3.043775    1.303947    1.418311
     10          6           0       -4.462324    1.609066    0.976979
     11          6           0       -2.854015    1.553887    2.913567
     12          6           0       -1.903256   -0.391464   -0.136947
     13          6           0       -0.460054   -0.157612    0.276464
     14          6           0        0.515484   -0.311026   -0.863860
     15          8           0        0.217235   -0.487700   -2.014196
     16          8           0        1.776343   -0.214780   -0.430042
     17          7           0       -7.276259    2.490737    0.320186
     18          6           0       -6.268346    3.310217    0.670798
     19          6           0       -6.728797    4.691853    0.686308
     20          6           0       -8.040353    4.666052    0.325141
     21          6           0       -8.392621    3.267025    0.108157
     22          6           0       -5.890792    5.860922    1.074989
     23          6           0       -8.977743    5.776257    0.194306
     24          6           0       -8.684023    6.987132   -0.267931
     25          7           0       -9.197334    0.393884   -0.328301
     26          6           0      -10.021301    1.450331   -0.450300
     27          6           0      -11.345961    1.020509   -0.800882
     28          6           0      -11.300926   -0.345755   -0.878067
     29          6           0       -9.946033   -0.729492   -0.584260
     30          6           0      -12.512322    1.923157   -1.034401
     31          6           0      -12.409244   -1.276964   -1.253077
     32          6           0      -12.444130   -1.574015   -2.753690
     33          7           0       -7.148882   -1.504918   -0.040421
     34          6           0       -8.149793   -2.427995   -0.301267
     35          6           0       -7.619437   -3.760747   -0.252055
     36          6           0       -6.276772   -3.595123    0.042959
     37          6           0       -6.051131   -2.210009    0.159149
     38          6           0       -8.371392   -5.029777   -0.458960
     39          6           0       -5.023288   -4.293058    0.289751
     40          8           0       -4.772996   -5.468711    0.327345
     41          6           0       -3.938500   -3.159782    0.506686
     42          6           0       -3.194578   -3.409439    1.797369
     43          8           0       -3.590489   -3.111286    2.891369
     44          8           0       -2.028992   -4.021873    1.571829
     45          6           0       -1.288777   -4.390095    2.731898
     46          6           0        2.802584   -0.338971   -1.431817
     47          6           0        4.119937   -0.273763   -0.742357
     48          6           0        5.123675    0.561115   -1.002210
     49          6           0        5.090020    1.636110   -2.051782
     50          6           0        6.417251    0.450422   -0.239016
     51          6           0        7.616484    0.075369   -1.112788
     52          6           0        8.891131   -0.098258   -0.295812
     53          6           0       10.165117   -0.324962   -1.114441
     54          6           0       10.082993   -1.601186   -1.948671
     55          6           0       11.383200   -0.326405   -0.186384
     56          6           0       12.736691   -0.355785   -0.887176
     57          6           0       13.900686   -0.242327    0.090760
     58          6           0       15.287628   -0.142178   -0.550412
     59          6           0       15.634804   -1.392203   -1.355562
     60          6           0       16.336862    0.150063    0.525722
     61          6           0       17.743179    0.428893    0.007172
     62          6           0       18.691779    0.877592    1.112977
     63          6           0       20.155359    1.027443    0.692552
     64          6           0       20.339207    2.078804   -0.398834
     65          6           0       21.025748    1.354876    1.902464
     66          1           0       -4.273362    3.676466    1.271534
     67          1           0      -10.403142    3.539046   -0.393287
     68          1           0      -10.170727   -2.821889   -0.767135
     69          1           0       -2.523417   -0.755279    1.888176
     70          1           0       -2.348567    1.938891    0.862897
     71          1           0       -1.832905    1.308310    3.211850
     72          1           0       -3.044372    2.596734    3.170023
     73          1           0       -3.536342    0.930056    3.494398
     74          1           0       -1.998555   -1.407715   -0.520245
     75          1           0       -2.169757    0.270488   -0.964072
     76          1           0       -0.316810    0.844225    0.692136
     77          1           0       -0.165493   -0.851419    1.068312
     78          1           0       -5.260453    6.195956    0.246772
     79          1           0       -6.515631    6.701338    1.377083
     80          1           0       -5.230638    5.611541    1.907206
     81          1           0      -10.001331    5.574081    0.495858
     82          1           0       -9.440068    7.759490   -0.325244
     83          1           0       -7.693379    7.239642   -0.624774
     84          1           0      -12.329614    2.601121   -1.871719
     85          1           0      -13.412736    1.354385   -1.264779
     86          1           0      -12.725186    2.538498   -0.156891
     87          1           0      -12.312153   -2.213189   -0.698279
     88          1           0      -13.365230   -0.847060   -0.946443
     89          1           0      -13.259345   -2.256583   -3.000054
     90          1           0      -12.583045   -0.654354   -3.324672
     91          1           0      -11.506672   -2.027160   -3.080875
     92          1           0       -8.921217   -5.015744   -1.402345
     93          1           0       -7.689935   -5.878419   -0.468039
     94          1           0       -9.098089   -5.186844    0.341693
     95          1           0       -3.233998   -3.259248   -0.321378
     96          1           0       -1.031704   -3.508537    3.319896
     97          1           0       -1.868718   -5.072899    3.352095
     98          1           0       -0.390250   -4.879511    2.366195
     99          1           0        2.669859   -1.298539   -1.937988
    100          1           0        2.665171    0.441745   -2.178391
    101          1           0        4.255195   -1.014896    0.040315
    102          1           0        4.082771    1.878552   -2.384217
    103          1           0        5.549152    2.549930   -1.667022
    104          1           0        5.666614    1.337746   -2.930976
    105          1           0        6.624803    1.410235    0.248761
    106          1           0        6.309894   -0.290747    0.556810
    107          1           0        7.378566   -0.845958   -1.650780
    108          1           0        7.780329    0.847148   -1.871550
    109          1           0        9.031336    0.793779    0.324390
    110          1           0        8.763025   -0.935286    0.401282
    111          1           0       10.272782    0.523949   -1.802070
    112          1           0        9.235200   -1.581126   -2.634184
    113          1           0       10.979998   -1.746602   -2.551102
    114          1           0        9.969311   -2.474740   -1.299546
    115          1           0       11.338069    0.566440    0.446574
    116          1           0       11.309549   -1.183787    0.493933
    117          1           0       12.831272   -1.277419   -1.464769
    118          1           0       12.788421    0.468572   -1.608150
    119          1           0       13.744539    0.642120    0.717835
    120          1           0       13.885873   -1.102468    0.771440
    121          1           0       15.273423    0.712069   -1.239748
    122          1           0       15.660048   -2.271035   -0.703979
    123          1           0       14.904779   -1.580422   -2.143380
    124          1           0       16.610072   -1.303122   -1.835077
    125          1           0       16.003837    1.016099    1.108122
    126          1           0       16.369759   -0.692102    1.227799
    127          1           0       18.155005   -0.466547   -0.468130
    128          1           0       17.687159    1.194678   -0.772729
    129          1           0       18.342558    1.832153    1.525780
    130          1           0       18.638144    0.154950    1.934678
    131          1           0       20.485248    0.061945    0.290679
    132          1           0       19.970446    3.051519   -0.059556
    133          1           0       21.394388    2.194088   -0.654858
    134          1           0       19.804175    1.817846   -1.312794
    135          1           0       20.926994    0.594662    2.680192
    136          1           0       22.080168    1.420274    1.626443
    137          1           0       20.735088    2.315988    2.336442
 ---------------------------------------------------------------------
