 Gaussian 16, Revision A.03,

 ----------------------------------------------------------------------
 # wB97XD/Def2TZVP Geom=Checkpoint Guess=Read iop(3/107=0517300000,3/10
 8=0517300000)
 ----------------------------------------------------------------------

 ------
 cla-s0
 ------
 Structure from the checkpoint file:  "cla-s0-05173.chk"
 Charge =  0 Multiplicity = 1

 SCF Done:  E(RwB97XD) =  -2935.11906743     A.U. after   17 cycles

 The electronic state is 1-A.
 Alpha  occ. eigenvalues --  -47.03633 -19.41931 -19.41776 -19.35748 -19.35409
 Alpha  occ. eigenvalues --  -19.34901 -14.56453 -14.54621 -14.54435 -14.54174
 Alpha  occ. eigenvalues --  -10.55922 -10.55792 -10.51692 -10.48258 -10.47739
 Alpha  occ. eigenvalues --  -10.47720 -10.46883 -10.46743 -10.46162 -10.45187
 Alpha  occ. eigenvalues --  -10.44671 -10.44559 -10.44460 -10.44309 -10.43991
 Alpha  occ. eigenvalues --  -10.43987 -10.43892 -10.43753 -10.43733 -10.43630
 Alpha  occ. eigenvalues --  -10.43598 -10.43490 -10.43383 -10.42843 -10.42612
 Alpha  occ. eigenvalues --  -10.42444 -10.42171 -10.42011 -10.41915 -10.41894
 Alpha  occ. eigenvalues --  -10.41749 -10.41651 -10.41547 -10.41539 -10.41344
 Alpha  occ. eigenvalues --  -10.41273 -10.41271 -10.41269 -10.41224 -10.41222
 Alpha  occ. eigenvalues --  -10.41208 -10.40784 -10.40732 -10.40623 -10.40455
 Alpha  occ. eigenvalues --  -10.40401 -10.40289 -10.40271 -10.40219 -10.40200
 Alpha  occ. eigenvalues --  -10.40099 -10.39907 -10.39668 -10.39667 -10.39665
 Alpha  occ. eigenvalues --   -3.30414  -2.02355  -2.01829  -2.01779  -1.34813
 Alpha  occ. eigenvalues --   -1.34790  -1.26741  -1.24786  -1.24566  -1.20598
 Alpha  occ. eigenvalues --   -1.19694  -1.19200  -1.18064  -1.07294  -1.06617
 Alpha  occ. eigenvalues --   -1.05641  -1.05323  -1.04732  -1.04511  -1.03797
 Alpha  occ. eigenvalues --   -1.03118  -1.02719  -1.02121  -1.01595  -1.00701
 Alpha  occ. eigenvalues --   -0.99657  -0.98786  -0.97756  -0.97490  -0.97043
 Alpha  occ. eigenvalues --   -0.95642  -0.95082  -0.94541  -0.93836  -0.91926
 Alpha  occ. eigenvalues --   -0.91826  -0.90620  -0.89762  -0.89471  -0.88895
 Alpha  occ. eigenvalues --   -0.88546  -0.88377  -0.87803  -0.86475  -0.85298
 Alpha  occ. eigenvalues --   -0.84551  -0.83296  -0.82324  -0.81620  -0.80650
 Alpha  occ. eigenvalues --   -0.79500  -0.78806  -0.77402  -0.76813  -0.76501
 Alpha  occ. eigenvalues --   -0.75661  -0.75030  -0.74969  -0.74449  -0.73801
 Alpha  occ. eigenvalues --   -0.73667  -0.72196  -0.71869  -0.71265  -0.70506
 Alpha  occ. eigenvalues --   -0.69904  -0.69673  -0.68900  -0.68579  -0.68343
 Alpha  occ. eigenvalues --   -0.67377  -0.66729  -0.66274  -0.65847  -0.65766
 Alpha  occ. eigenvalues --   -0.65344  -0.65298  -0.65002  -0.64576  -0.63881
 Alpha  occ. eigenvalues --   -0.63641  -0.63080  -0.62811  -0.62400  -0.62127
 Alpha  occ. eigenvalues --   -0.61571  -0.61476  -0.61312  -0.60920  -0.60811
 Alpha  occ. eigenvalues --   -0.60610  -0.60446  -0.60183  -0.60055  -0.59828
 Alpha  occ. eigenvalues --   -0.59702  -0.59231  -0.59025  -0.58741  -0.58498
 Alpha  occ. eigenvalues --   -0.58298  -0.58072  -0.57978  -0.57630  -0.57149
 Alpha  occ. eigenvalues --   -0.56983  -0.56818  -0.56331  -0.55917  -0.55743
 Alpha  occ. eigenvalues --   -0.55634  -0.55427  -0.55182  -0.55046  -0.54991
 Alpha  occ. eigenvalues --   -0.54857  -0.54756  -0.54546  -0.54161  -0.53846
 Alpha  occ. eigenvalues --   -0.53634  -0.53576  -0.53472  -0.52981  -0.52872
 Alpha  occ. eigenvalues --   -0.52834  -0.52545  -0.52455  -0.52378  -0.52113
 Alpha  occ. eigenvalues --   -0.52004  -0.51861  -0.51665  -0.51380  -0.51191
 Alpha  occ. eigenvalues --   -0.50875  -0.50663  -0.50559  -0.50329  -0.50165
 Alpha  occ. eigenvalues --   -0.50019  -0.49417  -0.49116  -0.49035  -0.48922
 Alpha  occ. eigenvalues --   -0.48790  -0.48099  -0.47958  -0.47861  -0.47054
 Alpha  occ. eigenvalues --   -0.46514  -0.46408  -0.46288  -0.46171  -0.46121
 Alpha  occ. eigenvalues --   -0.45936  -0.45917  -0.45786  -0.45641  -0.45462
 Alpha  occ. eigenvalues --   -0.45252  -0.44827  -0.44267  -0.44031  -0.43699
 Alpha  occ. eigenvalues --   -0.42605  -0.42542  -0.39719  -0.39390  -0.38348
 Alpha  occ. eigenvalues --   -0.37798  -0.36904  -0.36014  -0.35220  -0.29169
 Alpha  occ. eigenvalues --   -0.26236
 Alpha virt. eigenvalues --   -0.04209  -0.00599   0.05927   0.06926   0.07899
 Alpha virt. eigenvalues --    0.09550   0.09949   0.10285   0.10533   0.10765
 Alpha virt. eigenvalues --    0.10813   0.10902   0.11284   0.11544   0.11584

 Mulliken charges:
               1
     1  Mg   0.825878
     2  C   -0.199059
     3  C   -0.506110
     4  C   -0.282307
     5  C   -0.187728
     6  N   -0.419454
     7  C    0.241356
     8  C   -0.013890
     9  C    0.033161
    10  C    0.217723
    11  C   -0.431265
    12  C   -0.321152
    13  C   -0.261820
    14  C    0.372492
    15  O   -0.390557
    16  O   -0.293927
    17  N   -0.392991
    18  C    0.286145
    19  C   -0.021119
    20  C    0.006372
    21  C    0.199353
    22  C   -0.457952
    23  C   -0.179609
    24  C   -0.288999
    25  N   -0.371349
    26  C    0.179202
    27  C   -0.024034
    28  C   -0.044610
    29  C    0.221334
    30  C   -0.428494
    31  C   -0.303338
    32  C   -0.353901
    33  N   -0.385218
    34  C    0.161385
    35  C   -0.044128
    36  C   -0.129283
    37  C    0.176001
    38  C   -0.445823
    39  C    0.160757
    40  O   -0.346185
    41  C    0.069141
    42  C    0.311872
    43  O   -0.374040
    44  O   -0.287020
    45  C   -0.202770
    46  C   -0.075575
    47  C   -0.152734
    48  C    0.052508
    49  C   -0.413526
    50  C   -0.226129
    51  C   -0.258192
    52  C   -0.251366
    53  C    0.057450
    54  C   -0.444295
    55  C   -0.246893
    56  C   -0.239367
    57  C   -0.248504
    58  C    0.061304
    59  C   -0.444008
    60  C   -0.245236
    61  C   -0.243804
    62  C   -0.235327
    63  C    0.018255
    64  C   -0.407361
    65  C   -0.377387
    66  H    0.146195
    67  H    0.155573
    68  H    0.168034
    69  H    0.146018
    70  H    0.119757
    71  H    0.132595
    72  H    0.129680
    73  H    0.152180
    74  H    0.139302
    75  H    0.153425
    76  H    0.148564
    77  H    0.149248
    78  H    0.162694
    79  H    0.161785
    80  H    0.136065
    81  H    0.139924
    82  H    0.141511
    83  H    0.155742
    84  H    0.150157
    85  H    0.127659
    86  H    0.142691
    87  H    0.121650
    88  H    0.126644
    89  H    0.123757
    90  H    0.122957
    91  H    0.124755
    92  H    0.139806
    93  H    0.170249
    94  H    0.152031
    95  H    0.139866
    96  H    0.129594
    97  H    0.147687
    98  H    0.139526
    99  H    0.139166
   100  H    0.113723
   101  H    0.133856
   102  H    0.129308
   103  H    0.134399
   104  H    0.149513
   105  H    0.127338
   106  H    0.120387
   107  H    0.124777
   108  H    0.114112
   109  H    0.111511
   110  H    0.114519
   111  H    0.083890
   112  H    0.132808
   113  H    0.132164
   114  H    0.117396
   115  H    0.109294
   116  H    0.111152
   117  H    0.105486
   118  H    0.108391
   119  H    0.109091
   120  H    0.110473
   121  H    0.082875
   122  H    0.116411
   123  H    0.130264
   124  H    0.133312
   125  H    0.109854
   126  H    0.110458
   127  H    0.107818
   128  H    0.110541
   129  H    0.108032
   130  H    0.106750
   131  H    0.078919
   132  H    0.113612
   133  H    0.124929
   134  H    0.126739
   135  H    0.119679
   136  H    0.123149
   137  H    0.112730
 Sum of Mulliken charges =  -0.00000

 Dipole moment (field-independent basis, Debye):
    X=              1.7799    Y=              6.1610    Z=              0.2030  Tot=              6.4161
 Quadrupole moment (field-independent basis, Debye-Ang):
   XX=           -337.5955   YY=           -390.7411   ZZ=           -405.6531
   XY=            -28.4251   XZ=              9.2638   YZ=              1.7184

 Normal termination of Gaussian 16 at Wed Dec  4 06:37:09 2019.
 Gaussian 16:  ES64L-G16RevA.03 25-Dec-2016

 ----------------------------------------------------------------------
 # wB97XD/Def2TZVP Geom=Checkpoint iop(3/107=0517300000,3/108=051730000
 0)
 ----------------------------------------------------------------------

 -------------
 cla-s0-Cation
 -------------
 Structure from the checkpoint file:  "/home/padawan/israel-mol/w-tuning/chla/tuning/logs/Gau-125854.chk"
 Charge =  1 Multiplicity = 2

                         Standard orientation:
 ---------------------------------------------------------------------
 Center     Atomic      Atomic             Coordinates (Angstroms)
 Number     Number       Type             X           Y           Z
 ---------------------------------------------------------------------
      1         12           0       -7.193104    0.486516    0.135702
      2          6           0       -4.716348   -1.858831    0.463745
      3          6           0       -4.969493    2.898781    0.986155
      4          6           0       -9.627604    2.797493   -0.248956
      5          6           0       -9.457064   -2.032666   -0.560352
      6          7           0       -5.122786    0.498237    0.627746
      7          6           0       -4.283284   -0.591024    0.687856
      8          6           0       -2.872164   -0.175589    1.028414
      9          6           0       -3.043775    1.303947    1.418311
     10          6           0       -4.462324    1.609066    0.976979
     11          6           0       -2.854015    1.553887    2.913567
     12          6           0       -1.903256   -0.391464   -0.136947
     13          6           0       -0.460054   -0.157612    0.276464
     14          6           0        0.515484   -0.311026   -0.863860
     15          8           0        0.217235   -0.487700   -2.014196
     16          8           0        1.776343   -0.214780   -0.430042
     17          7           0       -7.276259    2.490737    0.320186
     18          6           0       -6.268346    3.310217    0.670798
     19          6           0       -6.728797    4.691853    0.686308
     20          6           0       -8.040353    4.666052    0.325141
     21          6           0       -8.392621    3.267025    0.108157
     22          6           0       -5.890792    5.860922    1.074989
     23          6           0       -8.977743    5.776257    0.194306
     24          6           0       -8.684023    6.987132   -0.267931
     25          7           0       -9.197334    0.393884   -0.328301
     26          6           0      -10.021301    1.450331   -0.450300
     27          6           0      -11.345961    1.020509   -0.800882
     28          6           0      -11.300926   -0.345755   -0.878067
     29          6           0       -9.946033   -0.729492   -0.584260
     30          6           0      -12.512322    1.923157   -1.034401
     31          6           0      -12.409244   -1.276964   -1.253077
     32          6           0      -12.444130   -1.574015   -2.753690
     33          7           0       -7.148882   -1.504918   -0.040421
     34          6           0       -8.149793   -2.427995   -0.301267
     35          6           0       -7.619437   -3.760747   -0.252055
     36          6           0       -6.276772   -3.595123    0.042959
     37          6           0       -6.051131   -2.210009    0.159149
     38          6           0       -8.371392   -5.029777   -0.458960
     39          6           0       -5.023288   -4.293058    0.289751
     40          8           0       -4.772996   -5.468711    0.327345
     41          6           0       -3.938500   -3.159782    0.506686
     42          6           0       -3.194578   -3.409439    1.797369
     43          8           0       -3.590489   -3.111286    2.891369
     44          8           0       -2.028992   -4.021873    1.571829
     45          6           0       -1.288777   -4.390095    2.731898
     46          6           0        2.802584   -0.338971   -1.431817
     47          6           0        4.119937   -0.273763   -0.742357
     48          6           0        5.123675    0.561115   -1.002210
     49          6           0        5.090020    1.636110   -2.051782
     50          6           0        6.417251    0.450422   -0.239016
     51          6           0        7.616484    0.075369   -1.112788
     52          6           0        8.891131   -0.098258   -0.295812
     53          6           0       10.165117   -0.324962   -1.114441
     54          6           0       10.082993   -1.601186   -1.948671
     55          6           0       11.383200   -0.326405   -0.186384
     56          6           0       12.736691   -0.355785   -0.887176
     57          6           0       13.900686   -0.242327    0.090760
     58          6           0       15.287628   -0.142178   -0.550412
     59          6           0       15.634804   -1.392203   -1.355562
     60          6           0       16.336862    0.150063    0.525722
     61          6           0       17.743179    0.428893    0.007172
     62          6           0       18.691779    0.877592    1.112977
     63          6           0       20.155359    1.027443    0.692552
     64          6           0       20.339207    2.078804   -0.398834
     65          6           0       21.025748    1.354876    1.902464
     66          1           0       -4.273362    3.676466    1.271534
     67          1           0      -10.403142    3.539046   -0.393287
     68          1           0      -10.170727   -2.821889   -0.767135
     69          1           0       -2.523417   -0.755279    1.888176
     70          1           0       -2.348567    1.938891    0.862897
     71          1           0       -1.832905    1.308310    3.211850
     72          1           0       -3.044372    2.596734    3.170023
     73          1           0       -3.536342    0.930056    3.494398
     74          1           0       -1.998555   -1.407715   -0.520245
     75          1           0       -2.169757    0.270488   -0.964072
     76          1           0       -0.316810    0.844225    0.692136
     77          1           0       -0.165493   -0.851419    1.068312
     78          1           0       -5.260453    6.195956    0.246772
     79          1           0       -6.515631    6.701338    1.377083
     80          1           0       -5.230638    5.611541    1.907206
     81          1           0      -10.001331    5.574081    0.495858
     82          1           0       -9.440068    7.759490   -0.325244
     83          1           0       -7.693379    7.239642   -0.624774
     84          1           0      -12.329614    2.601121   -1.871719
     85          1           0      -13.412736    1.354385   -1.264779
     86          1           0      -12.725186    2.538498   -0.156891
     87          1           0      -12.312153   -2.213189   -0.698279
     88          1           0      -13.365230   -0.847060   -0.946443
     89          1           0      -13.259345   -2.256583   -3.000054
     90          1           0      -12.583045   -0.654354   -3.324672
     91          1           0      -11.506672   -2.027160   -3.080875
     92          1           0       -8.921217   -5.015744   -1.402345
     93          1           0       -7.689935   -5.878419   -0.468039
     94          1           0       -9.098089   -5.186844    0.341693
     95          1           0       -3.233998   -3.259248   -0.321378
     96          1           0       -1.031704   -3.508537    3.319896
     97          1           0       -1.868718   -5.072899    3.352095
     98          1           0       -0.390250   -4.879511    2.366195
     99          1           0        2.669859   -1.298539   -1.937988
    100          1           0        2.665171    0.441745   -2.178391
    101          1           0        4.255195   -1.014896    0.040315
    102          1           0        4.082771    1.878552   -2.384217
    103          1           0        5.549152    2.549930   -1.667022
    104          1           0        5.666614    1.337746   -2.930976
    105          1           0        6.624803    1.410235    0.248761
    106          1           0        6.309894   -0.290747    0.556810
    107          1           0        7.378566   -0.845958   -1.650780
    108          1           0        7.780329    0.847148   -1.871550
    109          1           0        9.031336    0.793779    0.324390
    110          1           0        8.763025   -0.935286    0.401282
    111          1           0       10.272782    0.523949   -1.802070
    112          1           0        9.235200   -1.581126   -2.634184
    113          1           0       10.979998   -1.746602   -2.551102
    114          1           0        9.969311   -2.474740   -1.299546
    115          1           0       11.338069    0.566440    0.446574
    116          1           0       11.309549   -1.183787    0.493933
    117          1           0       12.831272   -1.277419   -1.464769
    118          1           0       12.788421    0.468572   -1.608150
    119          1           0       13.744539    0.642120    0.717835
    120          1           0       13.885873   -1.102468    0.771440
    121          1           0       15.273423    0.712069   -1.239748
    122          1           0       15.660048   -2.271035   -0.703979
    123          1           0       14.904779   -1.580422   -2.143380
    124          1           0       16.610072   -1.303122   -1.835077
    125          1           0       16.003837    1.016099    1.108122
    126          1           0       16.369759   -0.692102    1.227799
    127          1           0       18.155005   -0.466547   -0.468130
    128          1           0       17.687159    1.194678   -0.772729
    129          1           0       18.342558    1.832153    1.525780
    130          1           0       18.638144    0.154950    1.934678
    131          1           0       20.485248    0.061945    0.290679
    132          1           0       19.970446    3.051519   -0.059556
    133          1           0       21.394388    2.194088   -0.654858
    134          1           0       19.804175    1.817846   -1.312794
    135          1           0       20.926994    0.594662    2.680192
    136          1           0       22.080168    1.420274    1.626443
    137          1           0       20.735088    2.315988    2.336442
 ---------------------------------------------------------------------
