 Gaussian 16, Revision A.03,

 ----------------------------------------------------------------------
 # wB97XD/Def2TZVP Geom=Checkpoint Guess=Read iop(3/107=0517300000,3/10
 8=0517300000)
 ----------------------------------------------------------------------

 ------
 cla-s0
 ------
 Structure from the checkpoint file:  "cla-s0-05173.chk"
 Charge =  0 Multiplicity = 1

 SCF Done:  E(RwB97XD) =  -2935.11906743     A.U. after   17 cycles
 Normal termination of Gaussian 16 at Wed Dec  4 06:37:09 2019.

 ----------------------------------------------------------------------
 # wB97XD/Def2TZVP Geom=Checkpoint iop(3/107=0517300000,3/108=051730000
 0)
 ----------------------------------------------------------------------

 -------------
 cla-s0-Cation
 -------------
 Structure from the checkpoint file:  "/home/padawan/israel-mol/w-tuning/chla/tuning/logs/Gau-125854.chk"
 Charge =  1 Multiplicity = 2

 SCF Done:  E(UwB97XD) =  -2934.89597198     A.U. after   29 cycles
 Normal termination of Gaussian 16 at Wed Dec  4 12:40:32 2019.
 Gaussian 16:  ES64L-G16RevA.03 25-Dec-2016

 ----------------------------------------------------------------------
 # wB97XD/Def2TZVP Geom=Checkpoint iop(3/107=0517300000,3/108=051730000
 0)
 ----------------------------------------------------------------------

 ------------
 cla-s0-Anion
 ------------
 Structure from the checkpoint file:  "/home/padawan/israel-mol/w-tuning/chla/tuning/logs/Gau-128156.chk"
 Charge = -1 Multiplicity = 2

                         Standard orientation:
 ---------------------------------------------------------------------
 Center     Atomic      Atomic             Coordinates (Angstroms)
 Number     Number       Type             X           Y           Z
 ---------------------------------------------------------------------
      1         12           0       -7.193104    0.486516    0.135702
      2          6           0       -4.716348   -1.858831    0.463745
      3          6           0       -4.969493    2.898781    0.986155
      4          6           0       -9.627604    2.797493   -0.248956
      5          6           0       -9.457064   -2.032666   -0.560352
      6          7           0       -5.122786    0.498237    0.627746
      7          6           0       -4.283284   -0.591024    0.687856
      8          6           0       -2.872164   -0.175589    1.028414
      9          6           0       -3.043775    1.303947    1.418311
     10          6           0       -4.462324    1.609066    0.976979
     11          6           0       -2.854015    1.553887    2.913567
     12          6           0       -1.903256   -0.391464   -0.136947
     13          6           0       -0.460054   -0.157612    0.276464
     14          6           0        0.515484   -0.311026   -0.863860
     15          8           0        0.217235   -0.487700   -2.014196
     16          8           0        1.776343   -0.214780   -0.430042
     17          7           0       -7.276259    2.490737    0.320186
     18          6           0       -6.268346    3.310217    0.670798
     19          6           0       -6.728797    4.691853    0.686308
     20          6           0       -8.040353    4.666052    0.325141
     21          6           0       -8.392621    3.267025    0.108157
     22          6           0       -5.890792    5.860922    1.074989
     23          6           0       -8.977743    5.776257    0.194306
     24          6           0       -8.684023    6.987132   -0.267931
     25          7           0       -9.197334    0.393884   -0.328301
     26          6           0      -10.021301    1.450331   -0.450300
     27          6           0      -11.345961    1.020509   -0.800882
     28          6           0      -11.300926   -0.345755   -0.878067
     29          6           0       -9.946033   -0.729492   -0.584260
     30          6           0      -12.512322    1.923157   -1.034401
     31          6           0      -12.409244   -1.276964   -1.253077
     32          6           0      -12.444130   -1.574015   -2.753690
     33          7           0       -7.148882   -1.504918   -0.040421
     34          6           0       -8.149793   -2.427995   -0.301267
     35          6           0       -7.619437   -3.760747   -0.252055
     36          6           0       -6.276772   -3.595123    0.042959
     37          6           0       -6.051131   -2.210009    0.159149
     38          6           0       -8.371392   -5.029777   -0.458960
     39          6           0       -5.023288   -4.293058    0.289751
     40          8           0       -4.772996   -5.468711    0.327345
     41          6           0       -3.938500   -3.159782    0.506686
     42          6           0       -3.194578   -3.409439    1.797369
     43          8           0       -3.590489   -3.111286    2.891369
     44          8           0       -2.028992   -4.021873    1.571829
     45          6           0       -1.288777   -4.390095    2.731898
     46          6           0        2.802584   -0.338971   -1.431817
     47          6           0        4.119937   -0.273763   -0.742357
     48          6           0        5.123675    0.561115   -1.002210
     49          6           0        5.090020    1.636110   -2.051782
     50          6           0        6.417251    0.450422   -0.239016
     51          6           0        7.616484    0.075369   -1.112788
     52          6           0        8.891131   -0.098258   -0.295812
     53          6           0       10.165117   -0.324962   -1.114441
     54          6           0       10.082993   -1.601186   -1.948671
     55          6           0       11.383200   -0.326405   -0.186384
     56          6           0       12.736691   -0.355785   -0.887176
     57          6           0       13.900686   -0.242327    0.090760
     58          6           0       15.287628   -0.142178   -0.550412
     59          6           0       15.634804   -1.392203   -1.355562
     60          6           0       16.336862    0.150063    0.525722
     61          6           0       17.743179    0.428893    0.007172
     62          6           0       18.691779    0.877592    1.112977
     63          6           0       20.155359    1.027443    0.692552
     64          6           0       20.339207    2.078804   -0.398834
     65          6           0       21.025748    1.354876    1.902464
     66          1           0       -4.273362    3.676466    1.271534
     67          1           0      -10.403142    3.539046   -0.393287
     68          1           0      -10.170727   -2.821889   -0.767135
     69          1           0       -2.523417   -0.755279    1.888176
     70          1           0       -2.348567    1.938891    0.862897
     71          1           0       -1.832905    1.308310    3.211850
     72          1           0       -3.044372    2.596734    3.170023
     73          1           0       -3.536342    0.930056    3.494398
     74          1           0       -1.998555   -1.407715   -0.520245
     75          1           0       -2.169757    0.270488   -0.964072
     76          1           0       -0.316810    0.844225    0.692136
     77          1           0       -0.165493   -0.851419    1.068312
     78          1           0       -5.260453    6.195956    0.246772
     79          1           0       -6.515631    6.701338    1.377083
     80          1           0       -5.230638    5.611541    1.907206
     81          1           0      -10.001331    5.574081    0.495858
     82          1           0       -9.440068    7.759490   -0.325244
     83          1           0       -7.693379    7.239642   -0.624774
     84          1           0      -12.329614    2.601121   -1.871719
     85          1           0      -13.412736    1.354385   -1.264779
     86          1           0      -12.725186    2.538498   -0.156891
     87          1           0      -12.312153   -2.213189   -0.698279
     88          1           0      -13.365230   -0.847060   -0.946443
     89          1           0      -13.259345   -2.256583   -3.000054
     90          1           0      -12.583045   -0.654354   -3.324672
     91          1           0      -11.506672   -2.027160   -3.080875
     92          1           0       -8.921217   -5.015744   -1.402345
     93          1           0       -7.689935   -5.878419   -0.468039
     94          1           0       -9.098089   -5.186844    0.341693
     95          1           0       -3.233998   -3.259248   -0.321378
     96          1           0       -1.031704   -3.508537    3.319896
     97          1           0       -1.868718   -5.072899    3.352095
     98          1           0       -0.390250   -4.879511    2.366195
     99          1           0        2.669859   -1.298539   -1.937988
    100          1           0        2.665171    0.441745   -2.178391
    101          1           0        4.255195   -1.014896    0.040315
    102          1           0        4.082771    1.878552   -2.384217
    103          1           0        5.549152    2.549930   -1.667022
    104          1           0        5.666614    1.337746   -2.930976
    105          1           0        6.624803    1.410235    0.248761
    106          1           0        6.309894   -0.290747    0.556810
    107          1           0        7.378566   -0.845958   -1.650780
    108          1           0        7.780329    0.847148   -1.871550
    109          1           0        9.031336    0.793779    0.324390
    110          1           0        8.763025   -0.935286    0.401282
    111          1           0       10.272782    0.523949   -1.802070
    112          1           0        9.235200   -1.581126   -2.634184
    113          1           0       10.979998   -1.746602   -2.551102
    114          1           0        9.969311   -2.474740   -1.299546
    115          1           0       11.338069    0.566440    0.446574
    116          1           0       11.309549   -1.183787    0.493933
    117          1           0       12.831272   -1.277419   -1.464769
    118          1           0       12.788421    0.468572   -1.608150
    119          1           0       13.744539    0.642120    0.717835
    120          1           0       13.885873   -1.102468    0.771440
    121          1           0       15.273423    0.712069   -1.239748
    122          1           0       15.660048   -2.271035   -0.703979
    123          1           0       14.904779   -1.580422   -2.143380
    124          1           0       16.610072   -1.303122   -1.835077
    125          1           0       16.003837    1.016099    1.108122
    126          1           0       16.369759   -0.692102    1.227799
    127          1           0       18.155005   -0.466547   -0.468130
    128          1           0       17.687159    1.194678   -0.772729
    129          1           0       18.342558    1.832153    1.525780
    130          1           0       18.638144    0.154950    1.934678
    131          1           0       20.485248    0.061945    0.290679
    132          1           0       19.970446    3.051519   -0.059556
    133          1           0       21.394388    2.194088   -0.654858
    134          1           0       19.804175    1.817846   -1.312794
    135          1           0       20.926994    0.594662    2.680192
    136          1           0       22.080168    1.420274    1.626443
    137          1           0       20.735088    2.315988    2.336442
 ---------------------------------------------------------------------

 SCF Done:  E(UwB97XD) =  -2935.19464262     A.U. after   34 cycles

 Alpha virt. eigenvalues --    2.17818   2.18021   2.18492   2.18735   2.19001
 Alpha virt. eigenvalues --    2.19270   2.19563   2.19809   2.19969   2.20228
 Alpha virt. eigenvalues --    2.20371   2.20677   2.20733   2.21098   2.21385

  Beta  occ. eigenvalues --  -46.91828 -19.35787 -19.33661 -19.29240 -19.26480
  Beta  occ. eigenvalues --  -19.23365 -14.43516 -14.43302 -14.42191 -14.41757
  Beta  occ. eigenvalues --  -10.49303 -10.46725 -10.42444 -10.40374 -10.39634
  Beta  occ. eigenvalues --  -10.39223 -10.38765 -10.38725 -10.38318 -10.38062
  Beta  occ. eigenvalues --  -10.38014 -10.37853 -10.37680 -10.37652 -10.37640
  Beta  occ. eigenvalues --  -10.37591 -10.37545 -10.37434 -10.37431 -10.37297
  Beta  occ. eigenvalues --  -10.37226 -10.37156 -10.36723 -10.36668 -10.36126
  Beta  occ. eigenvalues --  -10.36046 -10.35363 -10.34469 -10.34146 -10.33953
  Beta  occ. eigenvalues --  -10.33925 -10.33796 -10.33762 -10.33444 -10.33404
  Beta  occ. eigenvalues --  -10.33290 -10.32971 -10.32699 -10.32603 -10.32572
  Beta  occ. eigenvalues --  -10.32468 -10.32247 -10.32222 -10.32162 -10.31595
  Beta  occ. eigenvalues --  -10.31551 -10.31304 -10.30913 -10.30682 -10.30665
  Beta  occ. eigenvalues --  -10.30280 -10.30217 -10.29867 -10.28816 -10.27628
  Beta  occ. eigenvalues --   -3.18616  -1.90573  -1.90021  -1.89978  -1.28630
  Beta  occ. eigenvalues --   -1.26339  -1.18450  -1.15924  -1.15478  -1.08594
  Beta  occ. eigenvalues --   -1.07545  -1.07376  -1.06308  -1.03233  -1.02491
  Beta  occ. eigenvalues --   -1.01446  -1.00335  -0.96826  -0.96235  -0.95752
  Beta  occ. eigenvalues --   -0.94318  -0.93899  -0.93292  -0.92361  -0.91682
  Beta  occ. eigenvalues --   -0.91289  -0.90413  -0.89567  -0.89154  -0.88115
  Beta  occ. eigenvalues --   -0.87721  -0.87050  -0.86881  -0.85969  -0.85844
  Beta  occ. eigenvalues --   -0.85120  -0.84782  -0.83838  -0.82502  -0.81190
  Beta  occ. eigenvalues --   -0.80902  -0.80441  -0.79329  -0.78861  -0.77435
  Beta  occ. eigenvalues --   -0.76061  -0.74864  -0.73996  -0.73416  -0.73077
  Beta  occ. eigenvalues --   -0.72437  -0.72324  -0.71899  -0.70981  -0.70107
  Beta  occ. eigenvalues --   -0.69072  -0.68464  -0.66718  -0.66316  -0.66252
  Beta  occ. eigenvalues --   -0.65114  -0.62834  -0.62812  -0.62652  -0.62247
  Beta  occ. eigenvalues --   -0.61953  -0.61264  -0.61159  -0.60665  -0.60127
  Beta  occ. eigenvalues --   -0.59941  -0.59263  -0.59041  -0.58795  -0.58604
  Beta  occ. eigenvalues --   -0.58300  -0.58230  -0.57894  -0.57791  -0.57139
  Beta  occ. eigenvalues --   -0.56892  -0.56686  -0.56501  -0.55903  -0.55503
  Beta  occ. eigenvalues --   -0.55256  -0.54670  -0.54431  -0.54083  -0.53913
  Beta  occ. eigenvalues --   -0.53022  -0.52757  -0.52702  -0.52611  -0.51992
  Beta  occ. eigenvalues --   -0.51772  -0.51571  -0.51418  -0.50990  -0.50671
  Beta  occ. eigenvalues --   -0.50495  -0.50110  -0.50006  -0.49568  -0.49409
  Beta  occ. eigenvalues --   -0.49256  -0.49137  -0.49050  -0.48833  -0.48692
  Beta  occ. eigenvalues --   -0.48517  -0.48383  -0.48113  -0.47845  -0.47607
  Beta  occ. eigenvalues --   -0.47368  -0.47197  -0.47118  -0.46847  -0.46774
  Beta  occ. eigenvalues --   -0.46601  -0.46326  -0.46152  -0.46015  -0.45634
  Beta  occ. eigenvalues --   -0.45299  -0.44943  -0.44864  -0.44736  -0.44525
  Beta  occ. eigenvalues --   -0.44147  -0.44060  -0.43955  -0.43946  -0.43798
  Beta  occ. eigenvalues --   -0.43627  -0.43427  -0.43119  -0.43082  -0.43069
  Beta  occ. eigenvalues --   -0.43054  -0.42815  -0.42721  -0.42567  -0.41985
  Beta  occ. eigenvalues --   -0.41870  -0.41745  -0.41649  -0.41060  -0.40626
  Beta  occ. eigenvalues --   -0.40235  -0.39949  -0.39783  -0.39524  -0.39421
  Beta  occ. eigenvalues --   -0.39135  -0.38848  -0.38559  -0.37896  -0.37650
  Beta  occ. eigenvalues --   -0.37331  -0.35077  -0.34840  -0.33869  -0.33755
  Beta  occ. eigenvalues --   -0.33108  -0.32981  -0.30853  -0.28293  -0.27619
  Beta  occ. eigenvalues --   -0.26945  -0.25016  -0.24431  -0.24083  -0.17549
  Beta  occ. eigenvalues --   -0.15749
  Beta virt. eigenvalues --    0.09463   0.11646   0.13359   0.14056   0.14787
  Beta virt. eigenvalues --    0.15123   0.15439   0.15639   0.16261   0.16546
  Beta virt. eigenvalues --    0.16622   0.16818   0.16923   0.17463   0.17868

 Mulliken charges and spin densities:
               1          2
     1  Mg   0.797146  -0.002065
     2  C   -0.204225   0.015697
     3  C   -0.537781  -0.026911
     4  C   -0.326110  -0.017355
     5  C   -0.300211   0.448466
     6  N   -0.444402   0.082717
     7  C    0.226372   0.018376
     8  C   -0.001455  -0.002536
     9  C    0.050328  -0.000977
    10  C    0.206702   0.096327
    11  C   -0.427965   0.002861
    12  C   -0.324600   0.001934
    13  C   -0.256132   0.000122
    14  C    0.374992   0.000016
    15  O   -0.393244   0.000020
    16  O   -0.295929  -0.000010
    17  N   -0.376014  -0.123978
    18  C    0.261316   0.178183
    19  C   -0.034251   0.073883
    20  C   -0.006017   0.071527
    21  C    0.187884   0.110071
    22  C   -0.460771  -0.005314
    23  C   -0.174975  -0.045083
    24  C   -0.307491   0.058290
    25  N   -0.395610   0.163796
    26  C    0.166017   0.013148
    27  C   -0.012027  -0.161913
    28  C   -0.062615   0.108879
    29  C    0.266751  -0.261762
    30  C   -0.432549   0.014714
    31  C   -0.305694  -0.007041
    32  C   -0.351034   0.003643
    33  N   -0.384992   0.014838
    34  C    0.177499  -0.187887
    35  C   -0.098452   0.305381
    36  C   -0.137320  -0.031318
    37  C    0.155673   0.043373
    38  C   -0.457134  -0.020762
    39  C    0.141182   0.006056
    40  O   -0.396676   0.037031
    41  C    0.080499   0.004107
    42  C    0.317043   0.001072
    43  O   -0.385502   0.000845
    44  O   -0.291821  -0.000067
    45  C   -0.202902   0.000064
    46  C   -0.072717   0.000004
    47  C   -0.147304  -0.000001
    48  C    0.052946   0.000002
    49  C   -0.415037  -0.000000
    50  C   -0.228648   0.000000
    51  C   -0.257443  -0.000000
    52  C   -0.249086   0.000000
    53  C    0.058297  -0.000000
    54  C   -0.444058   0.000000
    55  C   -0.246860   0.000000
    56  C   -0.237989  -0.000000
    57  C   -0.247848  -0.000000
    58  C    0.062247   0.000000
    59  C   -0.443784  -0.000000
    60  C   -0.245766  -0.000000
    61  C   -0.242600   0.000000
    62  C   -0.234912  -0.000000
    63  C    0.019365   0.000000
    64  C   -0.407345  -0.000000
    65  C   -0.377056   0.000000
    66  H    0.112658   0.000843
    67  H    0.121502   0.001077
    68  H    0.132039  -0.012738
    69  H    0.125039   0.000838
    70  H    0.093666   0.002819
    71  H    0.107586   0.002090
    72  H    0.120545   0.000640
    73  H    0.149338  -0.000180
    74  H    0.136216  -0.000297
    75  H    0.151265   0.000085
    76  H    0.144449   0.000321
    77  H    0.142897   0.000007
    78  H    0.137593   0.005540
    79  H    0.142859   0.000275
    80  H    0.121638   0.001160
    81  H    0.121515   0.002811
    82  H    0.112862  -0.002207
    83  H    0.137877  -0.001647
    84  H    0.140259  -0.007375
    85  H    0.112089  -0.000272
    86  H    0.133574  -0.006660
    87  H    0.118002   0.003493
    88  H    0.107267   0.000924
    89  H    0.099765   0.000147
    90  H    0.111673   0.000339
    91  H    0.132488  -0.000346
    92  H    0.116984   0.011207
    93  H    0.151273   0.000794
    94  H    0.124600   0.014262
    95  H    0.114846   0.001584
    96  H    0.125260  -0.000013
    97  H    0.140770   0.000013
    98  H    0.125017   0.000002
    99  H    0.135228  -0.000000
   100  H    0.109987  -0.000000
   101  H    0.132843   0.000000
   102  H    0.136245   0.000000
   103  H    0.129554   0.000000
   104  H    0.142919   0.000000
   105  H    0.125035   0.000000
   106  H    0.120508   0.000000
   107  H    0.124634   0.000000
   108  H    0.111785  -0.000000
   109  H    0.110011   0.000000
   110  H    0.114173  -0.000000
   111  H    0.082417   0.000000
   112  H    0.136187  -0.000000
   113  H    0.127642  -0.000000
   114  H    0.117193   0.000000
   115  H    0.109110   0.000000
   116  H    0.110632  -0.000000
   117  H    0.104758   0.000000
   118  H    0.107474  -0.000000
   119  H    0.109097   0.000000
   120  H    0.110023  -0.000000
   121  H    0.082406  -0.000000
   122  H    0.115882  -0.000000
   123  H    0.132098   0.000000
   124  H    0.130564   0.000000
   125  H    0.110341  -0.000000
   126  H    0.109988   0.000000
   127  H    0.106816  -0.000000
   128  H    0.110250  -0.000000
   129  H    0.108371  -0.000000
   130  H    0.106579   0.000000
   131  H    0.078010  -0.000000
   132  H    0.113876  -0.000000
   133  H    0.122873   0.000000
   134  H    0.127643   0.000000
   135  H    0.119539  -0.000000
   136  H    0.121227   0.000000
   137  H    0.112762  -0.000000
 Sum of Mulliken charges =  -1.00000   1.00000

 Dipole moment (field-independent basis, Debye):
    X=             34.5604    Y=              4.9386    Z=             -0.4449  Tot=             34.9143
 Quadrupole moment (field-independent basis, Debye-Ang):
   XX=           -644.2802   YY=           -469.9401   ZZ=           -417.3894
   XY=            -14.0787   XZ=              3.2053   YZ=             -1.0671

 Normal termination of Gaussian 16 at Wed Dec  4 19:37:52 2019.
