 Gaussian 16, Revision A.03,

 ----------------------------------------------------------------------
 # wB97XD/Def2TZVP Geom=Checkpoint iop(3/107=0120000000,3/108=012000000
 0)
 ----------------------------------------------------------------------

 ------
 cla-s0
 ------
 Structure from the checkpoint file:  "cla-s0-01200.chk"
 Charge =  0 Multiplicity = 1

 SCF Done:  E(RwB97XD) =  -2935.00227868     A.U. after   17 cycles
 Normal termination of Gaussian 16 at Sun Dec  8 20:17:37 2019.

 ----------------------------------------------------------------------
 # wB97XD/Def2TZVP Geom=Checkpoint iop(3/107=0120000000,3/108=012000000
 0)
 ----------------------------------------------------------------------

 -------------
 cla-s0-Cation
 -------------
 Structure from the checkpoint file:  "/home/padawan/israel-mol/w-tuning/chla/tuning/logs/Gau-18053.chk"
 Charge =  1 Multiplicity = 2

 SCF Done:  E(UwB97XD) =  -2934.77845295     A.U. after   26 cycles
 Normal termination of Gaussian 16 at Mon Dec  9 01:24:43 2019.
 Gaussian 16:  ES64L-G16RevA.03 25-Dec-2016

 ----------------------------------------------------------------------
 # wB97XD/Def2TZVP Geom=Checkpoint iop(3/107=0120000000,3/108=012000000
 0)
 ----------------------------------------------------------------------

 ------------
 cla-s0-Anion
 ------------
 Structure from the checkpoint file:  "/home/padawan/israel-mol/w-tuning/chla/tuning/logs/Gau-19974.chk"
 Charge = -1 Multiplicity = 2

                         Standard orientation:
 ---------------------------------------------------------------------
 Center     Atomic      Atomic             Coordinates (Angstroms)
 Number     Number       Type             X           Y           Z
 ---------------------------------------------------------------------
      1         12           0       -7.193104    0.486516    0.135702
      2          6           0       -4.716348   -1.858831    0.463745
      3          6           0       -4.969493    2.898781    0.986155
      4          6           0       -9.627604    2.797493   -0.248956
      5          6           0       -9.457064   -2.032666   -0.560352
      6          7           0       -5.122786    0.498237    0.627746
      7          6           0       -4.283284   -0.591024    0.687856
      8          6           0       -2.872164   -0.175589    1.028414
      9          6           0       -3.043775    1.303947    1.418311
     10          6           0       -4.462324    1.609066    0.976979
     11          6           0       -2.854015    1.553887    2.913567
     12          6           0       -1.903256   -0.391464   -0.136947
     13          6           0       -0.460054   -0.157612    0.276464
     14          6           0        0.515484   -0.311026   -0.863860
     15          8           0        0.217235   -0.487700   -2.014196
     16          8           0        1.776343   -0.214780   -0.430042
     17          7           0       -7.276259    2.490737    0.320186
     18          6           0       -6.268346    3.310217    0.670798
     19          6           0       -6.728797    4.691853    0.686308
     20          6           0       -8.040353    4.666052    0.325141
     21          6           0       -8.392621    3.267025    0.108157
     22          6           0       -5.890792    5.860922    1.074989
     23          6           0       -8.977743    5.776257    0.194306
     24          6           0       -8.684023    6.987132   -0.267931
     25          7           0       -9.197334    0.393884   -0.328301
     26          6           0      -10.021301    1.450331   -0.450300
     27          6           0      -11.345961    1.020509   -0.800882
     28          6           0      -11.300926   -0.345755   -0.878067
     29          6           0       -9.946033   -0.729492   -0.584260
     30          6           0      -12.512322    1.923157   -1.034401
     31          6           0      -12.409244   -1.276964   -1.253077
     32          6           0      -12.444130   -1.574015   -2.753690
     33          7           0       -7.148882   -1.504918   -0.040421
     34          6           0       -8.149793   -2.427995   -0.301267
     35          6           0       -7.619437   -3.760747   -0.252055
     36          6           0       -6.276772   -3.595123    0.042959
     37          6           0       -6.051131   -2.210009    0.159149
     38          6           0       -8.371392   -5.029777   -0.458960
     39          6           0       -5.023288   -4.293058    0.289751
     40          8           0       -4.772996   -5.468711    0.327345
     41          6           0       -3.938500   -3.159782    0.506686
     42          6           0       -3.194578   -3.409439    1.797369
     43          8           0       -3.590489   -3.111286    2.891369
     44          8           0       -2.028992   -4.021873    1.571829
     45          6           0       -1.288777   -4.390095    2.731898
     46          6           0        2.802584   -0.338971   -1.431817
     47          6           0        4.119937   -0.273763   -0.742357
     48          6           0        5.123675    0.561115   -1.002210
     49          6           0        5.090020    1.636110   -2.051782
     50          6           0        6.417251    0.450422   -0.239016
     51          6           0        7.616484    0.075369   -1.112788
     52          6           0        8.891131   -0.098258   -0.295812
     53          6           0       10.165117   -0.324962   -1.114441
     54          6           0       10.082993   -1.601186   -1.948671
     55          6           0       11.383200   -0.326405   -0.186384
     56          6           0       12.736691   -0.355785   -0.887176
     57          6           0       13.900686   -0.242327    0.090760
     58          6           0       15.287628   -0.142178   -0.550412
     59          6           0       15.634804   -1.392203   -1.355562
     60          6           0       16.336862    0.150063    0.525722
     61          6           0       17.743179    0.428893    0.007172
     62          6           0       18.691779    0.877592    1.112977
     63          6           0       20.155359    1.027443    0.692552
     64          6           0       20.339207    2.078804   -0.398834
     65          6           0       21.025748    1.354876    1.902464
     66          1           0       -4.273362    3.676466    1.271534
     67          1           0      -10.403142    3.539046   -0.393287
     68          1           0      -10.170727   -2.821889   -0.767135
     69          1           0       -2.523417   -0.755279    1.888176
     70          1           0       -2.348567    1.938891    0.862897
     71          1           0       -1.832905    1.308310    3.211850
     72          1           0       -3.044372    2.596734    3.170023
     73          1           0       -3.536342    0.930056    3.494398
     74          1           0       -1.998555   -1.407715   -0.520245
     75          1           0       -2.169757    0.270488   -0.964072
     76          1           0       -0.316810    0.844225    0.692136
     77          1           0       -0.165493   -0.851419    1.068312
     78          1           0       -5.260453    6.195956    0.246772
     79          1           0       -6.515631    6.701338    1.377083
     80          1           0       -5.230638    5.611541    1.907206
     81          1           0      -10.001331    5.574081    0.495858
     82          1           0       -9.440068    7.759490   -0.325244
     83          1           0       -7.693379    7.239642   -0.624774
     84          1           0      -12.329614    2.601121   -1.871719
     85          1           0      -13.412736    1.354385   -1.264779
     86          1           0      -12.725186    2.538498   -0.156891
     87          1           0      -12.312153   -2.213189   -0.698279
     88          1           0      -13.365230   -0.847060   -0.946443
     89          1           0      -13.259345   -2.256583   -3.000054
     90          1           0      -12.583045   -0.654354   -3.324672
     91          1           0      -11.506672   -2.027160   -3.080875
     92          1           0       -8.921217   -5.015744   -1.402345
     93          1           0       -7.689935   -5.878419   -0.468039
     94          1           0       -9.098089   -5.186844    0.341693
     95          1           0       -3.233998   -3.259248   -0.321378
     96          1           0       -1.031704   -3.508537    3.319896
     97          1           0       -1.868718   -5.072899    3.352095
     98          1           0       -0.390250   -4.879511    2.366195
     99          1           0        2.669859   -1.298539   -1.937988
    100          1           0        2.665171    0.441745   -2.178391
    101          1           0        4.255195   -1.014896    0.040315
    102          1           0        4.082771    1.878552   -2.384217
    103          1           0        5.549152    2.549930   -1.667022
    104          1           0        5.666614    1.337746   -2.930976
    105          1           0        6.624803    1.410235    0.248761
    106          1           0        6.309894   -0.290747    0.556810
    107          1           0        7.378566   -0.845958   -1.650780
    108          1           0        7.780329    0.847148   -1.871550
    109          1           0        9.031336    0.793779    0.324390
    110          1           0        8.763025   -0.935286    0.401282
    111          1           0       10.272782    0.523949   -1.802070
    112          1           0        9.235200   -1.581126   -2.634184
    113          1           0       10.979998   -1.746602   -2.551102
    114          1           0        9.969311   -2.474740   -1.299546
    115          1           0       11.338069    0.566440    0.446574
    116          1           0       11.309549   -1.183787    0.493933
    117          1           0       12.831272   -1.277419   -1.464769
    118          1           0       12.788421    0.468572   -1.608150
    119          1           0       13.744539    0.642120    0.717835
    120          1           0       13.885873   -1.102468    0.771440
    121          1           0       15.273423    0.712069   -1.239748
    122          1           0       15.660048   -2.271035   -0.703979
    123          1           0       14.904779   -1.580422   -2.143380
    124          1           0       16.610072   -1.303122   -1.835077
    125          1           0       16.003837    1.016099    1.108122
    126          1           0       16.369759   -0.692102    1.227799
    127          1           0       18.155005   -0.466547   -0.468130
    128          1           0       17.687159    1.194678   -0.772729
    129          1           0       18.342558    1.832153    1.525780
    130          1           0       18.638144    0.154950    1.934678
    131          1           0       20.485248    0.061945    0.290679
    132          1           0       19.970446    3.051519   -0.059556
    133          1           0       21.394388    2.194088   -0.654858
    134          1           0       19.804175    1.817846   -1.312794
    135          1           0       20.926994    0.594662    2.680192
    136          1           0       22.080168    1.420274    1.626443
    137          1           0       20.735088    2.315988    2.336442
 ---------------------------------------------------------------------

 SCF Done:  E(UwB97XD) =  -2935.05722146     A.U. after   23 cycles

 Alpha virt. eigenvalues --    2.06817   2.06958   2.07394   2.07826   2.07961
 Alpha virt. eigenvalues --    2.08150   2.08453   2.08741   2.08790   2.08999
 Alpha virt. eigenvalues --    2.09166   2.09444   2.09727   2.10050   2.10415

  Beta  occ. eigenvalues --  -46.74706 -19.19858 -19.17760 -19.13268 -19.10533
  Beta  occ. eigenvalues --  -19.07793 -14.28241 -14.27211 -14.26773 -14.26018
  Beta  occ. eigenvalues --  -10.30858 -10.28307 -10.25252 -10.22544 -10.22507
  Beta  occ. eigenvalues --  -10.22342 -10.22044 -10.21771 -10.21630 -10.21379
  Beta  occ. eigenvalues --  -10.21337 -10.21174 -10.20994 -10.20969 -10.20961
  Beta  occ. eigenvalues --  -10.20914 -10.20797 -10.20751 -10.20719 -10.20598
  Beta  occ. eigenvalues --  -10.20557 -10.20402 -10.20050 -10.19838 -10.18992
  Beta  occ. eigenvalues --  -10.18258 -10.17985 -10.16956 -10.16952 -10.16882
  Beta  occ. eigenvalues --  -10.16845 -10.16749 -10.16645 -10.16408 -10.16241
  Beta  occ. eigenvalues --  -10.16193 -10.16168 -10.15851 -10.15792 -10.15752
  Beta  occ. eigenvalues --  -10.15545 -10.15536 -10.15243 -10.15196 -10.14533
  Beta  occ. eigenvalues --  -10.14258 -10.14248 -10.14159 -10.14131 -10.13991
  Beta  occ. eigenvalues --  -10.13916 -10.13808 -10.13262 -10.12669 -10.11787
  Beta  occ. eigenvalues --   -3.00982  -1.74533  -1.73925  -1.73874  -1.11210
  Beta  occ. eigenvalues --   -1.08977  -1.01982  -0.99474  -0.98921  -0.91579
  Beta  occ. eigenvalues --   -0.90617  -0.90475  -0.89542  -0.86437  -0.85744
  Beta  occ. eigenvalues --   -0.84843  -0.83858  -0.80628  -0.79977  -0.79480
  Beta  occ. eigenvalues --   -0.78501  -0.77203  -0.77057  -0.76751  -0.75768
  Beta  occ. eigenvalues --   -0.75388  -0.74728  -0.73867  -0.73706  -0.72752
  Beta  occ. eigenvalues --   -0.72252  -0.72018  -0.71440  -0.71189  -0.70981
  Beta  occ. eigenvalues --   -0.70365  -0.69820  -0.68849  -0.67797  -0.66638
  Beta  occ. eigenvalues --   -0.66146  -0.65572  -0.64965  -0.64818  -0.63118
  Beta  occ. eigenvalues --   -0.62394  -0.61036  -0.60185  -0.60063  -0.59374
  Beta  occ. eigenvalues --   -0.59348  -0.58875  -0.58628  -0.58060  -0.56685
  Beta  occ. eigenvalues --   -0.56113  -0.55454  -0.54068  -0.53631  -0.53602
  Beta  occ. eigenvalues --   -0.52427  -0.51135  -0.50558  -0.50491  -0.50322
  Beta  occ. eigenvalues --   -0.49993  -0.49565  -0.48905  -0.48794  -0.48233
  Beta  occ. eigenvalues --   -0.47610  -0.47477  -0.47241  -0.47164  -0.46836
  Beta  occ. eigenvalues --   -0.46759  -0.46544  -0.46362  -0.46148  -0.45913
  Beta  occ. eigenvalues --   -0.45616  -0.45110  -0.45014  -0.44792  -0.44242
  Beta  occ. eigenvalues --   -0.44040  -0.43784  -0.43420  -0.43216  -0.42941
  Beta  occ. eigenvalues --   -0.42378  -0.41991  -0.41504  -0.41443  -0.41304
  Beta  occ. eigenvalues --   -0.41228  -0.40722  -0.40391  -0.40123  -0.40006
  Beta  occ. eigenvalues --   -0.39875  -0.39582  -0.39228  -0.39112  -0.38987
  Beta  occ. eigenvalues --   -0.38843  -0.38642  -0.38507  -0.38448  -0.38320
  Beta  occ. eigenvalues --   -0.38060  -0.37905  -0.37679  -0.37608  -0.37254
  Beta  occ. eigenvalues --   -0.37187  -0.36940  -0.36724  -0.36579  -0.36555
  Beta  occ. eigenvalues --   -0.36371  -0.36194  -0.35947  -0.35739  -0.35374
  Beta  occ. eigenvalues --   -0.35177  -0.35048  -0.34749  -0.34695  -0.34636
  Beta  occ. eigenvalues --   -0.34563  -0.34328  -0.34274  -0.34064  -0.34003
  Beta  occ. eigenvalues --   -0.33884  -0.33793  -0.33665  -0.33605  -0.33418
  Beta  occ. eigenvalues --   -0.33017  -0.32939  -0.32772  -0.32683  -0.32600
  Beta  occ. eigenvalues --   -0.31939  -0.31781  -0.31628  -0.31297  -0.30981
  Beta  occ. eigenvalues --   -0.30816  -0.30257  -0.30136  -0.29982  -0.29768
  Beta  occ. eigenvalues --   -0.29489  -0.28989  -0.28745  -0.28343  -0.27567
  Beta  occ. eigenvalues --   -0.27074  -0.25972  -0.25170  -0.25124  -0.24432
  Beta  occ. eigenvalues --   -0.24177  -0.23983  -0.21698  -0.20755  -0.20014
  Beta  occ. eigenvalues --   -0.18634  -0.17952  -0.17438  -0.17095  -0.12091
  Beta  occ. eigenvalues --   -0.11065
  Beta virt. eigenvalues --    0.06789   0.08865   0.10593   0.12494   0.13049
  Beta virt. eigenvalues --    0.13100   0.13152   0.14027   0.14401   0.14579
  Beta virt. eigenvalues --    0.14703   0.15174   0.15589   0.15655   0.15797

 Mulliken charges and spin densities:
               1          2
     1  Mg   0.778653  -0.002952
     2  C   -0.195529   0.042890
     3  C   -0.564081   0.049715
     4  C   -0.374714   0.048051
     5  C   -0.387155   0.271514
     6  N   -0.481738   0.096337
     7  C    0.301172  -0.005976
     8  C   -0.006206  -0.002052
     9  C    0.095868   0.000175
    10  C    0.226854   0.027822
    11  C   -0.380285   0.000662
    12  C   -0.296975   0.001540
    13  C   -0.204210   0.000053
    14  C    0.377019   0.000056
    15  O   -0.385304   0.000013
    16  O   -0.286601  -0.000006
    17  N   -0.427593  -0.044526
    18  C    0.315398   0.080606
    19  C   -0.024842   0.076306
    20  C   -0.004110   0.047284
    21  C    0.252610   0.060925
    22  C   -0.420595  -0.004594
    23  C   -0.164863  -0.018106
    24  C   -0.303876   0.037483
    25  N   -0.445287   0.101937
    26  C    0.215929   0.015534
    27  C   -0.005134  -0.055492
    28  C   -0.065768   0.037564
    29  C    0.349983  -0.102435
    30  C   -0.383541   0.004371
    31  C   -0.272089  -0.002178
    32  C   -0.305146   0.001970
    33  N   -0.450054  -0.002218
    34  C    0.232462  -0.065469
    35  C   -0.122891   0.201817
    36  C   -0.089781   0.002078
    37  C    0.191879   0.024932
    38  C   -0.421175  -0.010685
    39  C    0.178109   0.020048
    40  O   -0.402871   0.046794
    41  C    0.041704   0.003738
    42  C    0.351436   0.000317
    43  O   -0.389126   0.001368
    44  O   -0.286240  -0.000128
    45  C   -0.184354   0.000053
    46  C   -0.012800   0.000010
    47  C   -0.151664  -0.000002
    48  C    0.034651   0.000005
    49  C   -0.358719  -0.000000
    50  C   -0.160999  -0.000000
    51  C   -0.250186  -0.000000
    52  C   -0.175422   0.000000
    53  C    0.049555  -0.000000
    54  C   -0.390526   0.000000
    55  C   -0.180473   0.000000
    56  C   -0.220941  -0.000000
    57  C   -0.181137   0.000000
    58  C    0.054937  -0.000000
    59  C   -0.390806   0.000000
    60  C   -0.179435   0.000000
    61  C   -0.223953  -0.000000
    62  C   -0.183962   0.000000
    63  C    0.012705  -0.000000
    64  C   -0.359037  -0.000000
    65  C   -0.319870  -0.000000
    66  H    0.095202  -0.001949
    67  H    0.110754  -0.001436
    68  H    0.114175  -0.010697
    69  H    0.107919   0.000038
    70  H    0.052336   0.000716
    71  H    0.092509   0.001623
    72  H    0.107052   0.000450
    73  H    0.136129  -0.000139
    74  H    0.128351  -0.000355
    75  H    0.124307   0.000102
    76  H    0.119660   0.000313
    77  H    0.120271  -0.000033
    78  H    0.117808   0.005951
    79  H    0.133752   0.000173
    80  H    0.109105   0.001642
    81  H    0.100374   0.001807
    82  H    0.098388  -0.001601
    83  H    0.130194  -0.001298
    84  H    0.122916  -0.002505
    85  H    0.098262  -0.000084
    86  H    0.118726  -0.002074
    87  H    0.097690   0.002350
    88  H    0.085161   0.000254
    89  H    0.083319  -0.000077
    90  H    0.101948   0.000108
    91  H    0.123393  -0.000236
    92  H    0.104526   0.008341
    93  H    0.142294   0.000331
    94  H    0.108620   0.010781
    95  H    0.079817   0.000348
    96  H    0.114333  -0.000018
    97  H    0.129498   0.000016
    98  H    0.112242   0.000007
    99  H    0.113541  -0.000001
   100  H    0.090758  -0.000000
   101  H    0.103865   0.000000
   102  H    0.122460   0.000000
   103  H    0.114792   0.000000
   104  H    0.131729   0.000000
   105  H    0.102207   0.000000
   106  H    0.096562  -0.000000
   107  H    0.110766   0.000000
   108  H    0.096210  -0.000000
   109  H    0.084561   0.000000
   110  H    0.090742  -0.000000
   111  H    0.049632   0.000000
   112  H    0.123916  -0.000000
   113  H    0.115017  -0.000000
   114  H    0.102189  -0.000000
   115  H    0.085177   0.000000
   116  H    0.086816  -0.000000
   117  H    0.098484   0.000000
   118  H    0.082242  -0.000000
   119  H    0.085121  -0.000000
   120  H    0.086232   0.000000
   121  H    0.049844   0.000000
   122  H    0.100744   0.000000
   123  H    0.120069  -0.000000
   124  H    0.118224  -0.000000
   125  H    0.086004   0.000000
   126  H    0.087378  -0.000000
   127  H    0.091269   0.000000
   128  H    0.094794   0.000000
   129  H    0.087837  -0.000000
   130  H    0.085331  -0.000000
   131  H    0.053430  -0.000000
   132  H    0.100324   0.000000
   133  H    0.107953   0.000000
   134  H    0.119997  -0.000000
   135  H    0.106575   0.000000
   136  H    0.108121   0.000000
   137  H    0.099200   0.000000
 Sum of Mulliken charges =  -1.00000   1.00000

 Dipole moment (field-independent basis, Debye):
    X=             34.5639    Y=              3.6236    Z=             -0.5329  Tot=             34.7575
 Quadrupole moment (field-independent basis, Debye-Ang):
   XX=           -649.1912   YY=           -471.7301   ZZ=           -415.4107
   XY=             -4.3927   XZ=              2.3733   YZ=             -1.1464

 Normal termination of Gaussian 16 at Mon Dec  9 06:02:17 2019.
