 Gaussian 16, Revision A.03,

 ----------------------------------------------------------------------
 # wB97XD/Def2TZVP Geom=Checkpoint Guess=Read iop(3/107=0134700000,3/10
 8=0134700000)
 ----------------------------------------------------------------------

 ------
 cla-s0
 ------
 Structure from the checkpoint file:  "cla-s0-01347.chk"
 Charge =  0 Multiplicity = 1

 SCF Done:  E(RwB97XD) =  -2934.92158206     A.U. after   15 cycles
 Normal termination of Gaussian 16 at Sat Dec  7 05:59:41 2019.

 ----------------------------------------------------------------------
 # wB97XD/Def2TZVP Geom=Checkpoint iop(3/107=0134700000,3/108=013470000
 0)
 ----------------------------------------------------------------------

 -------------
 cla-s0-Cation
 -------------
 Structure from the checkpoint file:  "/home/padawan/israel-mol/w-tuning/chla/tuning/logs/Gau-6405.chk"
 Charge =  1 Multiplicity = 2

 SCF Done:  E(UwB97XD) =  -2934.69707225     A.U. after   26 cycles
 Normal termination of Gaussian 16 at Sat Dec  7 11:08:13 2019.
 Gaussian 16:  ES64L-G16RevA.03 25-Dec-2016

 ----------------------------------------------------------------------
 # wB97XD/Def2TZVP Geom=Checkpoint iop(3/107=0134700000,3/108=013470000
 0)
 ----------------------------------------------------------------------

 ------------
 cla-s0-Anion
 ------------
 Structure from the checkpoint file:  "/home/padawan/israel-mol/w-tuning/chla/tuning/logs/Gau-8171.chk"
 Charge = -1 Multiplicity = 2

                         Standard orientation:
 ---------------------------------------------------------------------
 Center     Atomic      Atomic             Coordinates (Angstroms)
 Number     Number       Type             X           Y           Z
 ---------------------------------------------------------------------
      1         12           0       -7.193104    0.486516    0.135702
      2          6           0       -4.716348   -1.858831    0.463745
      3          6           0       -4.969493    2.898781    0.986155
      4          6           0       -9.627604    2.797493   -0.248956
      5          6           0       -9.457064   -2.032666   -0.560352
      6          7           0       -5.122786    0.498237    0.627746
      7          6           0       -4.283284   -0.591024    0.687856
      8          6           0       -2.872164   -0.175589    1.028414
      9          6           0       -3.043775    1.303947    1.418311
     10          6           0       -4.462324    1.609066    0.976979
     11          6           0       -2.854015    1.553887    2.913567
     12          6           0       -1.903256   -0.391464   -0.136947
     13          6           0       -0.460054   -0.157612    0.276464
     14          6           0        0.515484   -0.311026   -0.863860
     15          8           0        0.217235   -0.487700   -2.014196
     16          8           0        1.776343   -0.214780   -0.430042
     17          7           0       -7.276259    2.490737    0.320186
     18          6           0       -6.268346    3.310217    0.670798
     19          6           0       -6.728797    4.691853    0.686308
     20          6           0       -8.040353    4.666052    0.325141
     21          6           0       -8.392621    3.267025    0.108157
     22          6           0       -5.890792    5.860922    1.074989
     23          6           0       -8.977743    5.776257    0.194306
     24          6           0       -8.684023    6.987132   -0.267931
     25          7           0       -9.197334    0.393884   -0.328301
     26          6           0      -10.021301    1.450331   -0.450300
     27          6           0      -11.345961    1.020509   -0.800882
     28          6           0      -11.300926   -0.345755   -0.878067
     29          6           0       -9.946033   -0.729492   -0.584260
     30          6           0      -12.512322    1.923157   -1.034401
     31          6           0      -12.409244   -1.276964   -1.253077
     32          6           0      -12.444130   -1.574015   -2.753690
     33          7           0       -7.148882   -1.504918   -0.040421
     34          6           0       -8.149793   -2.427995   -0.301267
     35          6           0       -7.619437   -3.760747   -0.252055
     36          6           0       -6.276772   -3.595123    0.042959
     37          6           0       -6.051131   -2.210009    0.159149
     38          6           0       -8.371392   -5.029777   -0.458960
     39          6           0       -5.023288   -4.293058    0.289751
     40          8           0       -4.772996   -5.468711    0.327345
     41          6           0       -3.938500   -3.159782    0.506686
     42          6           0       -3.194578   -3.409439    1.797369
     43          8           0       -3.590489   -3.111286    2.891369
     44          8           0       -2.028992   -4.021873    1.571829
     45          6           0       -1.288777   -4.390095    2.731898
     46          6           0        2.802584   -0.338971   -1.431817
     47          6           0        4.119937   -0.273763   -0.742357
     48          6           0        5.123675    0.561115   -1.002210
     49          6           0        5.090020    1.636110   -2.051782
     50          6           0        6.417251    0.450422   -0.239016
     51          6           0        7.616484    0.075369   -1.112788
     52          6           0        8.891131   -0.098258   -0.295812
     53          6           0       10.165117   -0.324962   -1.114441
     54          6           0       10.082993   -1.601186   -1.948671
     55          6           0       11.383200   -0.326405   -0.186384
     56          6           0       12.736691   -0.355785   -0.887176
     57          6           0       13.900686   -0.242327    0.090760
     58          6           0       15.287628   -0.142178   -0.550412
     59          6           0       15.634804   -1.392203   -1.355562
     60          6           0       16.336862    0.150063    0.525722
     61          6           0       17.743179    0.428893    0.007172
     62          6           0       18.691779    0.877592    1.112977
     63          6           0       20.155359    1.027443    0.692552
     64          6           0       20.339207    2.078804   -0.398834
     65          6           0       21.025748    1.354876    1.902464
     66          1           0       -4.273362    3.676466    1.271534
     67          1           0      -10.403142    3.539046   -0.393287
     68          1           0      -10.170727   -2.821889   -0.767135
     69          1           0       -2.523417   -0.755279    1.888176
     70          1           0       -2.348567    1.938891    0.862897
     71          1           0       -1.832905    1.308310    3.211850
     72          1           0       -3.044372    2.596734    3.170023
     73          1           0       -3.536342    0.930056    3.494398
     74          1           0       -1.998555   -1.407715   -0.520245
     75          1           0       -2.169757    0.270488   -0.964072
     76          1           0       -0.316810    0.844225    0.692136
     77          1           0       -0.165493   -0.851419    1.068312
     78          1           0       -5.260453    6.195956    0.246772
     79          1           0       -6.515631    6.701338    1.377083
     80          1           0       -5.230638    5.611541    1.907206
     81          1           0      -10.001331    5.574081    0.495858
     82          1           0       -9.440068    7.759490   -0.325244
     83          1           0       -7.693379    7.239642   -0.624774
     84          1           0      -12.329614    2.601121   -1.871719
     85          1           0      -13.412736    1.354385   -1.264779
     86          1           0      -12.725186    2.538498   -0.156891
     87          1           0      -12.312153   -2.213189   -0.698279
     88          1           0      -13.365230   -0.847060   -0.946443
     89          1           0      -13.259345   -2.256583   -3.000054
     90          1           0      -12.583045   -0.654354   -3.324672
     91          1           0      -11.506672   -2.027160   -3.080875
     92          1           0       -8.921217   -5.015744   -1.402345
     93          1           0       -7.689935   -5.878419   -0.468039
     94          1           0       -9.098089   -5.186844    0.341693
     95          1           0       -3.233998   -3.259248   -0.321378
     96          1           0       -1.031704   -3.508537    3.319896
     97          1           0       -1.868718   -5.072899    3.352095
     98          1           0       -0.390250   -4.879511    2.366195
     99          1           0        2.669859   -1.298539   -1.937988
    100          1           0        2.665171    0.441745   -2.178391
    101          1           0        4.255195   -1.014896    0.040315
    102          1           0        4.082771    1.878552   -2.384217
    103          1           0        5.549152    2.549930   -1.667022
    104          1           0        5.666614    1.337746   -2.930976
    105          1           0        6.624803    1.410235    0.248761
    106          1           0        6.309894   -0.290747    0.556810
    107          1           0        7.378566   -0.845958   -1.650780
    108          1           0        7.780329    0.847148   -1.871550
    109          1           0        9.031336    0.793779    0.324390
    110          1           0        8.763025   -0.935286    0.401282
    111          1           0       10.272782    0.523949   -1.802070
    112          1           0        9.235200   -1.581126   -2.634184
    113          1           0       10.979998   -1.746602   -2.551102
    114          1           0        9.969311   -2.474740   -1.299546
    115          1           0       11.338069    0.566440    0.446574
    116          1           0       11.309549   -1.183787    0.493933
    117          1           0       12.831272   -1.277419   -1.464769
    118          1           0       12.788421    0.468572   -1.608150
    119          1           0       13.744539    0.642120    0.717835
    120          1           0       13.885873   -1.102468    0.771440
    121          1           0       15.273423    0.712069   -1.239748
    122          1           0       15.660048   -2.271035   -0.703979
    123          1           0       14.904779   -1.580422   -2.143380
    124          1           0       16.610072   -1.303122   -1.835077
    125          1           0       16.003837    1.016099    1.108122
    126          1           0       16.369759   -0.692102    1.227799
    127          1           0       18.155005   -0.466547   -0.468130
    128          1           0       17.687159    1.194678   -0.772729
    129          1           0       18.342558    1.832153    1.525780
    130          1           0       18.638144    0.154950    1.934678
    131          1           0       20.485248    0.061945    0.290679
    132          1           0       19.970446    3.051519   -0.059556
    133          1           0       21.394388    2.194088   -0.654858
    134          1           0       19.804175    1.817846   -1.312794
    135          1           0       20.926994    0.594662    2.680192
    136          1           0       22.080168    1.420274    1.626443
    137          1           0       20.735088    2.315988    2.336442
 ---------------------------------------------------------------------

 SCF Done:  E(UwB97XD) =  -2934.97783974     A.U. after   23 cycles

 Alpha virt. eigenvalues --    2.07301   2.07435   2.07878   2.08296   2.08443
 Alpha virt. eigenvalues --    2.08640   2.08920   2.09226   2.09279   2.09477
 Alpha virt. eigenvalues --    2.09650   2.09932   2.10210   2.10529   2.10895

  Beta  occ. eigenvalues --  -46.75367 -19.20559 -19.18467 -19.13978 -19.11252
  Beta  occ. eigenvalues --  -19.08511 -14.28887 -14.27910 -14.27450 -14.26708
  Beta  occ. eigenvalues --  -10.31567 -10.29021 -10.25932 -10.23222 -10.23182
  Beta  occ. eigenvalues --  -10.23071 -10.22725 -10.22465 -10.22310 -10.22057
  Beta  occ. eigenvalues --  -10.22016 -10.21853 -10.21667 -10.21648 -10.21634
  Beta  occ. eigenvalues --  -10.21594 -10.21473 -10.21429 -10.21397 -10.21276
  Beta  occ. eigenvalues --  -10.21232 -10.21075 -10.20725 -10.20522 -10.19671
  Beta  occ. eigenvalues --  -10.18965 -10.18672 -10.17634 -10.17630 -10.17559
  Beta  occ. eigenvalues --  -10.17522 -10.17449 -10.17361 -10.17098 -10.16917
  Beta  occ. eigenvalues --  -10.16870 -10.16855 -10.16499 -10.16463 -10.16432
  Beta  occ. eigenvalues --  -10.16214 -10.16209 -10.15921 -10.15907 -10.15232
  Beta  occ. eigenvalues --  -10.14957 -10.14912 -10.14847 -10.14824 -10.14643
  Beta  occ. eigenvalues --  -10.14591 -10.14510 -10.13951 -10.13313 -10.12432
  Beta  occ. eigenvalues --   -3.01642  -1.75189  -1.74586  -1.74535  -1.11961
  Beta  occ. eigenvalues --   -1.09731  -1.02722  -1.00220  -0.99675  -0.92320
  Beta  occ. eigenvalues --   -0.91357  -0.91229  -0.90294  -0.87195  -0.86501
  Beta  occ. eigenvalues --   -0.85598  -0.84613  -0.81378  -0.80727  -0.80229
  Beta  occ. eigenvalues --   -0.79248  -0.77971  -0.77810  -0.77494  -0.76511
  Beta  occ. eigenvalues --   -0.76138  -0.75474  -0.74605  -0.74445  -0.73491
  Beta  occ. eigenvalues --   -0.72995  -0.72748  -0.72187  -0.71923  -0.71715
  Beta  occ. eigenvalues --   -0.71100  -0.70557  -0.69584  -0.68529  -0.67368
  Beta  occ. eigenvalues --   -0.66878  -0.66309  -0.65689  -0.65545  -0.63842
  Beta  occ. eigenvalues --   -0.63113  -0.61752  -0.60904  -0.60777  -0.60093
  Beta  occ. eigenvalues --   -0.60067  -0.59593  -0.59349  -0.58773  -0.57402
  Beta  occ. eigenvalues --   -0.56825  -0.56166  -0.54770  -0.54340  -0.54305
  Beta  occ. eigenvalues --   -0.53136  -0.51839  -0.51260  -0.51195  -0.51027
  Beta  occ. eigenvalues --   -0.50697  -0.50265  -0.49612  -0.49494  -0.48944
  Beta  occ. eigenvalues --   -0.48318  -0.48172  -0.47931  -0.47853  -0.47524
  Beta  occ. eigenvalues --   -0.47464  -0.47243  -0.47055  -0.46834  -0.46599
  Beta  occ. eigenvalues --   -0.46293  -0.45790  -0.45699  -0.45479  -0.44910
  Beta  occ. eigenvalues --   -0.44726  -0.44451  -0.44089  -0.43892  -0.43611
  Beta  occ. eigenvalues --   -0.43032  -0.42666  -0.42179  -0.42099  -0.41965
  Beta  occ. eigenvalues --   -0.41901  -0.41406  -0.41035  -0.40804  -0.40644
  Beta  occ. eigenvalues --   -0.40555  -0.40261  -0.39890  -0.39742  -0.39627
  Beta  occ. eigenvalues --   -0.39485  -0.39306  -0.39181  -0.39107  -0.38965
  Beta  occ. eigenvalues --   -0.38695  -0.38555  -0.38345  -0.38277  -0.37892
  Beta  occ. eigenvalues --   -0.37830  -0.37585  -0.37365  -0.37233  -0.37184
  Beta  occ. eigenvalues --   -0.37020  -0.36852  -0.36591  -0.36391  -0.35993
  Beta  occ. eigenvalues --   -0.35840  -0.35677  -0.35403  -0.35323  -0.35249
  Beta  occ. eigenvalues --   -0.35220  -0.34942  -0.34930  -0.34684  -0.34649
  Beta  occ. eigenvalues --   -0.34502  -0.34408  -0.34312  -0.34250  -0.34040
  Beta  occ. eigenvalues --   -0.33649  -0.33580  -0.33384  -0.33328  -0.33257
  Beta  occ. eigenvalues --   -0.32578  -0.32427  -0.32264  -0.31938  -0.31584
  Beta  occ. eigenvalues --   -0.31447  -0.30885  -0.30774  -0.30617  -0.30390
  Beta  occ. eigenvalues --   -0.30113  -0.29627  -0.29370  -0.28957  -0.28209
  Beta  occ. eigenvalues --   -0.27722  -0.26627  -0.25798  -0.25743  -0.25051
  Beta  occ. eigenvalues --   -0.24800  -0.24640  -0.22301  -0.21334  -0.20594
  Beta  occ. eigenvalues --   -0.19264  -0.18525  -0.18006  -0.17670  -0.12508
  Beta  occ. eigenvalues --   -0.11445
  Beta virt. eigenvalues --    0.06977   0.09061   0.10922   0.12541   0.13205
  Beta virt. eigenvalues --    0.13379   0.13451   0.14081   0.14623   0.14719
  Beta virt. eigenvalues --    0.14752   0.15238   0.15703   0.15857   0.15918

 Mulliken charges and spin densities:
               1          2
     1  Mg   0.765077  -0.003008
     2  C   -0.194876   0.041889
     3  C   -0.566513   0.046344
     4  C   -0.380385   0.046093
     5  C   -0.392215   0.277517
     6  N   -0.467694   0.095706
     7  C    0.290465  -0.005221
     8  C    0.000548  -0.001951
     9  C    0.091895   0.000328
    10  C    0.224799   0.030128
    11  C   -0.384557   0.000683
    12  C   -0.301800   0.001481
    13  C   -0.207208   0.000050
    14  C    0.369405   0.000052
    15  O   -0.380960   0.000013
    16  O   -0.282346  -0.000006
    17  N   -0.413714  -0.047446
    18  C    0.311939   0.085154
    19  C   -0.026903   0.076333
    20  C   -0.004110   0.048645
    21  C    0.252008   0.063173
    22  C   -0.422543  -0.004574
    23  C   -0.166765  -0.018355
    24  C   -0.304013   0.037341
    25  N   -0.431879   0.105216
    26  C    0.216488   0.013860
    27  C   -0.009985  -0.059202
    28  C   -0.062675   0.038731
    29  C    0.346562  -0.108470
    30  C   -0.386361   0.004698
    31  C   -0.274750  -0.002251
    32  C   -0.310273   0.001948
    33  N   -0.434741  -0.001567
    34  C    0.234381  -0.067995
    35  C   -0.124040   0.203438
    36  C   -0.085909   0.001826
    37  C    0.182666   0.025826
    38  C   -0.423390  -0.010800
    39  C    0.162000   0.019332
    40  O   -0.395162   0.046204
    41  C    0.047955   0.003412
    42  C    0.338042   0.000460
    43  O   -0.383106   0.001318
    44  O   -0.281224  -0.000129
    45  C   -0.189286   0.000053
    46  C   -0.020728   0.000009
    47  C   -0.153523  -0.000002
    48  C    0.040174   0.000005
    49  C   -0.363652  -0.000000
    50  C   -0.168264  -0.000000
    51  C   -0.251330  -0.000000
    52  C   -0.180999   0.000000
    53  C    0.050358  -0.000000
    54  C   -0.395527   0.000000
    55  C   -0.185928   0.000000
    56  C   -0.222150  -0.000000
    57  C   -0.186686   0.000000
    58  C    0.055790  -0.000000
    59  C   -0.395750   0.000000
    60  C   -0.184898   0.000000
    61  C   -0.225651  -0.000000
    62  C   -0.188717   0.000000
    63  C    0.012854  -0.000000
    64  C   -0.364107   0.000000
    65  C   -0.325414  -0.000000
    66  H    0.094322  -0.001778
    67  H    0.108486  -0.001294
    68  H    0.112560  -0.010449
    69  H    0.106315   0.000057
    70  H    0.055007   0.000807
    71  H    0.093848   0.001653
    72  H    0.108270   0.000495
    73  H    0.137413  -0.000129
    74  H    0.128262  -0.000337
    75  H    0.126393   0.000109
    76  H    0.121459   0.000314
    77  H    0.121810  -0.000030
    78  H    0.119547   0.005909
    79  H    0.134221   0.000196
    80  H    0.110254   0.001607
    81  H    0.101605   0.001840
    82  H    0.099303  -0.001540
    83  H    0.130272  -0.001236
    84  H    0.124464  -0.002680
    85  H    0.099553  -0.000079
    86  H    0.120074  -0.002231
    87  H    0.099349   0.002420
    88  H    0.087007   0.000258
    89  H    0.085283  -0.000091
    90  H    0.103128   0.000126
    91  H    0.124375  -0.000195
    92  H    0.105783   0.008394
    93  H    0.143120   0.000332
    94  H    0.110261   0.010817
    95  H    0.082195   0.000439
    96  H    0.115928  -0.000018
    97  H    0.131012   0.000016
    98  H    0.113964   0.000007
    99  H    0.115753  -0.000001
   100  H    0.092190  -0.000000
   101  H    0.105931   0.000000
   102  H    0.124033   0.000000
   103  H    0.116272   0.000000
   104  H    0.133035   0.000000
   105  H    0.104229   0.000000
   106  H    0.098700  -0.000000
   107  H    0.111718   0.000000
   108  H    0.097348  -0.000000
   109  H    0.086574   0.000000
   110  H    0.092619  -0.000000
   111  H    0.052058   0.000000
   112  H    0.125244  -0.000000
   113  H    0.116455  -0.000000
   114  H    0.103725  -0.000000
   115  H    0.087117   0.000000
   116  H    0.088706  -0.000000
   117  H    0.098375   0.000000
   118  H    0.084374  -0.000000
   119  H    0.087068  -0.000000
   120  H    0.088132  -0.000000
   121  H    0.052245   0.000000
   122  H    0.102272   0.000000
   123  H    0.121477  -0.000000
   124  H    0.119535  -0.000000
   125  H    0.088006   0.000000
   126  H    0.089186  -0.000000
   127  H    0.092411   0.000000
   128  H    0.095953   0.000000
   129  H    0.089502   0.000000
   130  H    0.087239  -0.000000
   131  H    0.055734   0.000000
   132  H    0.101805   0.000000
   133  H    0.109627   0.000000
   134  H    0.121175  -0.000000
   135  H    0.108197   0.000000
   136  H    0.109783  -0.000000
   137  H    0.100660   0.000000
 Sum of Mulliken charges =  -1.00000   1.00000

 Dipole moment (field-independent basis, Debye):
    X=             34.5477    Y=              3.6596    Z=             -0.5371  Tot=             34.7451
 Quadrupole moment (field-independent basis, Debye-Ang):
   XX=           -649.3519   YY=           -472.0961   ZZ=           -416.0914
   XY=             -4.7649   XZ=              2.3772   YZ=             -1.1728

 Normal termination of Gaussian 16 at Sat Dec  7 15:44:01 2019.
