 Gaussian 16, Revision A.03,

 ----------------------------------------------------------------------
 # wB97XD/Def2TZVP Geom=Checkpoint Guess=Read iop(3/107=0100000000,3/10
 8=0100000000)
 ----------------------------------------------------------------------

 ------
 cla-s0
 ------
 Structure from the checkpoint file:  "cla-s0-01000.chk"
 Charge =  0 Multiplicity = 1

 SCF Done:  E(RwB97XD) =  -2935.14932906     A.U. after   13 cycles
 Normal termination of Gaussian 16 at Fri Dec  6 18:51:23 2019.

 ----------------------------------------------------------------------
 # wB97XD/Def2TZVP Geom=Checkpoint iop(3/107=0100000000,3/108=010000000
 0)
 ----------------------------------------------------------------------

 -------------
 cla-s0-Cation
 -------------
 Structure from the checkpoint file:  "/home/padawan/israel-mol/w-tuning/chla/tuning/logs/Gau-3149.chk"
 Charge =  1 Multiplicity = 2

 SCF Done:  E(UwB97XD) =  -2934.92657508     A.U. after   24 cycles
 Normal termination of Gaussian 16 at Fri Dec  6 23:40:31 2019.
 Gaussian 16:  ES64L-G16RevA.03 25-Dec-2016

 ----------------------------------------------------------------------
 # wB97XD/Def2TZVP Geom=Checkpoint iop(3/107=0100000000,3/108=010000000
 0)
 ----------------------------------------------------------------------

 ------------
 cla-s0-Anion
 ------------
 Structure from the checkpoint file:  "/home/padawan/israel-mol/w-tuning/chla/tuning/logs/Gau-4557.chk"
 Charge = -1 Multiplicity = 2

                         Standard orientation:
 ---------------------------------------------------------------------
 Center     Atomic      Atomic             Coordinates (Angstroms)
 Number     Number       Type             X           Y           Z
 ---------------------------------------------------------------------
      1         12           0       -7.193104    0.486516    0.135702
      2          6           0       -4.716348   -1.858831    0.463745
      3          6           0       -4.969493    2.898781    0.986155
      4          6           0       -9.627604    2.797493   -0.248956
      5          6           0       -9.457064   -2.032666   -0.560352
      6          7           0       -5.122786    0.498237    0.627746
      7          6           0       -4.283284   -0.591024    0.687856
      8          6           0       -2.872164   -0.175589    1.028414
      9          6           0       -3.043775    1.303947    1.418311
     10          6           0       -4.462324    1.609066    0.976979
     11          6           0       -2.854015    1.553887    2.913567
     12          6           0       -1.903256   -0.391464   -0.136947
     13          6           0       -0.460054   -0.157612    0.276464
     14          6           0        0.515484   -0.311026   -0.863860
     15          8           0        0.217235   -0.487700   -2.014196
     16          8           0        1.776343   -0.214780   -0.430042
     17          7           0       -7.276259    2.490737    0.320186
     18          6           0       -6.268346    3.310217    0.670798
     19          6           0       -6.728797    4.691853    0.686308
     20          6           0       -8.040353    4.666052    0.325141
     21          6           0       -8.392621    3.267025    0.108157
     22          6           0       -5.890792    5.860922    1.074989
     23          6           0       -8.977743    5.776257    0.194306
     24          6           0       -8.684023    6.987132   -0.267931
     25          7           0       -9.197334    0.393884   -0.328301
     26          6           0      -10.021301    1.450331   -0.450300
     27          6           0      -11.345961    1.020509   -0.800882
     28          6           0      -11.300926   -0.345755   -0.878067
     29          6           0       -9.946033   -0.729492   -0.584260
     30          6           0      -12.512322    1.923157   -1.034401
     31          6           0      -12.409244   -1.276964   -1.253077
     32          6           0      -12.444130   -1.574015   -2.753690
     33          7           0       -7.148882   -1.504918   -0.040421
     34          6           0       -8.149793   -2.427995   -0.301267
     35          6           0       -7.619437   -3.760747   -0.252055
     36          6           0       -6.276772   -3.595123    0.042959
     37          6           0       -6.051131   -2.210009    0.159149
     38          6           0       -8.371392   -5.029777   -0.458960
     39          6           0       -5.023288   -4.293058    0.289751
     40          8           0       -4.772996   -5.468711    0.327345
     41          6           0       -3.938500   -3.159782    0.506686
     42          6           0       -3.194578   -3.409439    1.797369
     43          8           0       -3.590489   -3.111286    2.891369
     44          8           0       -2.028992   -4.021873    1.571829
     45          6           0       -1.288777   -4.390095    2.731898
     46          6           0        2.802584   -0.338971   -1.431817
     47          6           0        4.119937   -0.273763   -0.742357
     48          6           0        5.123675    0.561115   -1.002210
     49          6           0        5.090020    1.636110   -2.051782
     50          6           0        6.417251    0.450422   -0.239016
     51          6           0        7.616484    0.075369   -1.112788
     52          6           0        8.891131   -0.098258   -0.295812
     53          6           0       10.165117   -0.324962   -1.114441
     54          6           0       10.082993   -1.601186   -1.948671
     55          6           0       11.383200   -0.326405   -0.186384
     56          6           0       12.736691   -0.355785   -0.887176
     57          6           0       13.900686   -0.242327    0.090760
     58          6           0       15.287628   -0.142178   -0.550412
     59          6           0       15.634804   -1.392203   -1.355562
     60          6           0       16.336862    0.150063    0.525722
     61          6           0       17.743179    0.428893    0.007172
     62          6           0       18.691779    0.877592    1.112977
     63          6           0       20.155359    1.027443    0.692552
     64          6           0       20.339207    2.078804   -0.398834
     65          6           0       21.025748    1.354876    1.902464
     66          1           0       -4.273362    3.676466    1.271534
     67          1           0      -10.403142    3.539046   -0.393287
     68          1           0      -10.170727   -2.821889   -0.767135
     69          1           0       -2.523417   -0.755279    1.888176
     70          1           0       -2.348567    1.938891    0.862897
     71          1           0       -1.832905    1.308310    3.211850
     72          1           0       -3.044372    2.596734    3.170023
     73          1           0       -3.536342    0.930056    3.494398
     74          1           0       -1.998555   -1.407715   -0.520245
     75          1           0       -2.169757    0.270488   -0.964072
     76          1           0       -0.316810    0.844225    0.692136
     77          1           0       -0.165493   -0.851419    1.068312
     78          1           0       -5.260453    6.195956    0.246772
     79          1           0       -6.515631    6.701338    1.377083
     80          1           0       -5.230638    5.611541    1.907206
     81          1           0      -10.001331    5.574081    0.495858
     82          1           0       -9.440068    7.759490   -0.325244
     83          1           0       -7.693379    7.239642   -0.624774
     84          1           0      -12.329614    2.601121   -1.871719
     85          1           0      -13.412736    1.354385   -1.264779
     86          1           0      -12.725186    2.538498   -0.156891
     87          1           0      -12.312153   -2.213189   -0.698279
     88          1           0      -13.365230   -0.847060   -0.946443
     89          1           0      -13.259345   -2.256583   -3.000054
     90          1           0      -12.583045   -0.654354   -3.324672
     91          1           0      -11.506672   -2.027160   -3.080875
     92          1           0       -8.921217   -5.015744   -1.402345
     93          1           0       -7.689935   -5.878419   -0.468039
     94          1           0       -9.098089   -5.186844    0.341693
     95          1           0       -3.233998   -3.259248   -0.321378
     96          1           0       -1.031704   -3.508537    3.319896
     97          1           0       -1.868718   -5.072899    3.352095
     98          1           0       -0.390250   -4.879511    2.366195
     99          1           0        2.669859   -1.298539   -1.937988
    100          1           0        2.665171    0.441745   -2.178391
    101          1           0        4.255195   -1.014896    0.040315
    102          1           0        4.082771    1.878552   -2.384217
    103          1           0        5.549152    2.549930   -1.667022
    104          1           0        5.666614    1.337746   -2.930976
    105          1           0        6.624803    1.410235    0.248761
    106          1           0        6.309894   -0.290747    0.556810
    107          1           0        7.378566   -0.845958   -1.650780
    108          1           0        7.780329    0.847148   -1.871550
    109          1           0        9.031336    0.793779    0.324390
    110          1           0        8.763025   -0.935286    0.401282
    111          1           0       10.272782    0.523949   -1.802070
    112          1           0        9.235200   -1.581126   -2.634184
    113          1           0       10.979998   -1.746602   -2.551102
    114          1           0        9.969311   -2.474740   -1.299546
    115          1           0       11.338069    0.566440    0.446574
    116          1           0       11.309549   -1.183787    0.493933
    117          1           0       12.831272   -1.277419   -1.464769
    118          1           0       12.788421    0.468572   -1.608150
    119          1           0       13.744539    0.642120    0.717835
    120          1           0       13.885873   -1.102468    0.771440
    121          1           0       15.273423    0.712069   -1.239748
    122          1           0       15.660048   -2.271035   -0.703979
    123          1           0       14.904779   -1.580422   -2.143380
    124          1           0       16.610072   -1.303122   -1.835077
    125          1           0       16.003837    1.016099    1.108122
    126          1           0       16.369759   -0.692102    1.227799
    127          1           0       18.155005   -0.466547   -0.468130
    128          1           0       17.687159    1.194678   -0.772729
    129          1           0       18.342558    1.832153    1.525780
    130          1           0       18.638144    0.154950    1.934678
    131          1           0       20.485248    0.061945    0.290679
    132          1           0       19.970446    3.051519   -0.059556
    133          1           0       21.394388    2.194088   -0.654858
    134          1           0       19.804175    1.817846   -1.312794
    135          1           0       20.926994    0.594662    2.680192
    136          1           0       22.080168    1.420274    1.626443
    137          1           0       20.735088    2.315988    2.336442
 ---------------------------------------------------------------------

 SCF Done:  E(UwB97XD) =  -2935.20246045     A.U. after   22 cycles

 Alpha virt. eigenvalues --    2.06154   2.06308   2.06733   2.07186   2.07302
 Alpha virt. eigenvalues --    2.07482   2.07817   2.08078   2.08123   2.08349
 Alpha virt. eigenvalues --    2.08505   2.08779   2.09067   2.09397   2.09757

  Beta  occ. eigenvalues --  -46.73805 -19.18886 -19.16778 -19.12284 -19.09536
  Beta  occ. eigenvalues --  -19.06792 -14.27334 -14.26235 -14.25828 -14.25055
  Beta  occ. eigenvalues --  -10.29891 -10.27334 -10.24322 -10.21612 -10.21588
  Beta  occ. eigenvalues --  -10.21342 -10.21106 -10.20814 -10.20692 -10.20446
  Beta  occ. eigenvalues --  -10.20400 -10.20239 -10.20073 -10.20038 -10.20034
  Beta  occ. eigenvalues --  -10.19977 -10.19866 -10.19815 -10.19784 -10.19664
  Beta  occ. eigenvalues --  -10.19630 -10.19479 -10.19124 -10.18896 -10.18060
  Beta  occ. eigenvalues --  -10.17287 -10.17041 -10.16023 -10.16021 -10.15952
  Beta  occ. eigenvalues --  -10.15914 -10.15787 -10.15659 -10.15454 -10.15311
  Beta  occ. eigenvalues --  -10.15260 -10.15221 -10.14951 -10.14872 -10.14818
  Beta  occ. eigenvalues --  -10.14621 -10.14614 -10.14312 -10.14216 -10.13565
  Beta  occ. eigenvalues --  -10.13336 -10.13293 -10.13207 -10.13172 -10.13086
  Beta  occ. eigenvalues --  -10.12981 -10.12834 -10.12314 -10.11774 -10.10889
  Beta  occ. eigenvalues --   -3.00085  -1.73638  -1.73022  -1.72970  -1.10182
  Beta  occ. eigenvalues --   -1.07944  -1.00965  -0.98450  -0.97882  -0.90562
  Beta  occ. eigenvalues --   -0.89600  -0.89438  -0.88509  -0.85401  -0.84709
  Beta  occ. eigenvalues --   -0.83810  -0.82827  -0.79601  -0.78952  -0.78455
  Beta  occ. eigenvalues --   -0.77479  -0.76150  -0.76025  -0.75733  -0.74750
  Beta  occ. eigenvalues --   -0.74361  -0.73706  -0.72853  -0.72691  -0.71737
  Beta  occ. eigenvalues --   -0.71231  -0.71018  -0.70414  -0.70183  -0.69975
  Beta  occ. eigenvalues --   -0.69357  -0.68807  -0.67838  -0.66789  -0.65634
  Beta  occ. eigenvalues --   -0.65137  -0.64557  -0.63966  -0.63818  -0.62117
  Beta  occ. eigenvalues --   -0.61403  -0.60048  -0.59191  -0.59076  -0.58381
  Beta  occ. eigenvalues --   -0.58354  -0.57883  -0.57632  -0.57072  -0.55692
  Beta  occ. eigenvalues --   -0.55125  -0.54466  -0.53093  -0.52646  -0.52623
  Beta  occ. eigenvalues --   -0.51439  -0.50153  -0.49578  -0.49509  -0.49340
  Beta  occ. eigenvalues --   -0.49011  -0.48587  -0.47920  -0.47817  -0.47242
  Beta  occ. eigenvalues --   -0.46623  -0.46505  -0.46276  -0.46200  -0.45873
  Beta  occ. eigenvalues --   -0.45775  -0.45566  -0.45394  -0.45187  -0.44951
  Beta  occ. eigenvalues --   -0.44667  -0.44158  -0.44054  -0.43833  -0.43305
  Beta  occ. eigenvalues --   -0.43077  -0.42847  -0.42482  -0.42267  -0.41998
  Beta  occ. eigenvalues --   -0.41458  -0.41043  -0.40569  -0.40511  -0.40378
  Beta  occ. eigenvalues --   -0.40278  -0.39763  -0.39482  -0.39169  -0.39106
  Beta  occ. eigenvalues --   -0.38920  -0.38630  -0.38299  -0.38222  -0.38083
  Beta  occ. eigenvalues --   -0.37938  -0.37708  -0.37567  -0.37514  -0.37408
  Beta  occ. eigenvalues --   -0.37161  -0.36987  -0.36742  -0.36669  -0.36351
  Beta  occ. eigenvalues --   -0.36278  -0.36030  -0.35818  -0.35663  -0.35657
  Beta  occ. eigenvalues --   -0.35454  -0.35266  -0.35037  -0.34817  -0.34495
  Beta  occ. eigenvalues --   -0.34247  -0.34153  -0.33839  -0.33796  -0.33766
  Beta  occ. eigenvalues --   -0.33632  -0.33454  -0.33348  -0.33183  -0.33089
  Beta  occ. eigenvalues --   -0.33002  -0.32918  -0.32755  -0.32690  -0.32529
  Beta  occ. eigenvalues --   -0.32121  -0.32030  -0.31900  -0.31774  -0.31664
  Beta  occ. eigenvalues --   -0.31035  -0.30866  -0.30725  -0.30385  -0.30119
  Beta  occ. eigenvalues --   -0.29918  -0.29365  -0.29229  -0.29078  -0.28880
  Beta  occ. eigenvalues --   -0.28600  -0.28081  -0.27856  -0.27466  -0.26655
  Beta  occ. eigenvalues --   -0.26155  -0.25037  -0.24296  -0.24210  -0.23548
  Beta  occ. eigenvalues --   -0.23284  -0.23052  -0.20834  -0.19904  -0.19159
  Beta  occ. eigenvalues --   -0.17733  -0.17116  -0.16607  -0.16257  -0.11460
  Beta  occ. eigenvalues --   -0.10485
  Beta virt. eigenvalues --    0.06494   0.08555   0.10109   0.12419   0.12523
  Beta virt. eigenvalues --    0.12626   0.13068   0.13930   0.13947   0.14502
  Beta virt. eigenvalues --    0.14627   0.15066   0.15089   0.15577   0.15694

 Mulliken charges and spin densities:
               1          2
     1  Mg   0.800596  -0.002834
     2  C   -0.197710   0.044110
     3  C   -0.560275   0.053793
     4  C   -0.366208   0.050759
     5  C   -0.378439   0.264526
     6  N   -0.504560   0.096961
     7  C    0.318981  -0.006853
     8  C   -0.018030  -0.002221
     9  C    0.102572  -0.000094
    10  C    0.230424   0.025209
    11  C   -0.372691   0.000677
    12  C   -0.288117   0.001643
    13  C   -0.199178   0.000057
    14  C    0.388610   0.000061
    15  O   -0.392048   0.000013
    16  O   -0.293410  -0.000005
    17  N   -0.449548  -0.040952
    18  C    0.320579   0.074888
    19  C   -0.021582   0.076324
    20  C   -0.003698   0.045744
    21  C    0.253583   0.057863
    22  C   -0.416490  -0.004635
    23  C   -0.162149  -0.018007
    24  C   -0.302993   0.038005
    25  N   -0.466473   0.097740
    26  C    0.214907   0.017749
    27  C    0.002798  -0.050928
    28  C   -0.070820   0.036244
    29  C    0.354656  -0.095085
    30  C   -0.378312   0.003971
    31  C   -0.267004  -0.002092
    32  C   -0.296358   0.002012
    33  N   -0.474146  -0.003046
    34  C    0.228881  -0.062935
    35  C   -0.120685   0.200383
    36  C   -0.096246   0.002023
    37  C    0.206937   0.023763
    38  C   -0.416925  -0.010598
    39  C    0.202342   0.020984
    40  O   -0.414662   0.047563
    41  C    0.032693   0.004259
    42  C    0.372483   0.000097
    43  O   -0.398494   0.001437
    44  O   -0.294344  -0.000125
    45  C   -0.175882   0.000055
    46  C    0.000051   0.000012
    47  C   -0.148361  -0.000003
    48  C    0.025657   0.000006
    49  C   -0.350271  -0.000000
    50  C   -0.148889  -0.000000
    51  C   -0.247919   0.000000
    52  C   -0.166354   0.000000
    53  C    0.048456  -0.000000
    54  C   -0.381947   0.000000
    55  C   -0.171439   0.000000
    56  C   -0.218793   0.000000
    57  C   -0.171933   0.000000
    58  C    0.053699  -0.000000
    59  C   -0.382314  -0.000000
    60  C   -0.170400   0.000000
    61  C   -0.220929  -0.000000
    62  C   -0.176142  -0.000000
    63  C    0.013170  -0.000000
    64  C   -0.350439  -0.000000
    65  C   -0.310559   0.000000
    66  H    0.096377  -0.002181
    67  H    0.114441  -0.001652
    68  H    0.116812  -0.011106
    69  H    0.110639   0.000022
    70  H    0.047957   0.000601
    71  H    0.090134   0.001580
    72  H    0.104911   0.000376
    73  H    0.133812  -0.000157
    74  H    0.128290  -0.000384
    75  H    0.120788   0.000087
    76  H    0.116696   0.000309
    77  H    0.117683  -0.000035
    78  H    0.114697   0.006013
    79  H    0.132856   0.000135
    80  H    0.107080   0.001689
    81  H    0.098291   0.001771
    82  H    0.096753  -0.001711
    83  H    0.129849  -0.001407
    84  H    0.120180  -0.002286
    85  H    0.096054  -0.000093
    86  H    0.116332  -0.001880
    87  H    0.094868   0.002243
    88  H    0.082040   0.000252
    89  H    0.079956  -0.000055
    90  H    0.099825   0.000085
    91  H    0.121610  -0.000313
    92  H    0.102290   0.008275
    93  H    0.140802   0.000335
    94  H    0.105730   0.010744
    95  H    0.075896   0.000223
    96  H    0.111598  -0.000018
    97  H    0.126908   0.000015
    98  H    0.109340   0.000007
    99  H    0.109817  -0.000001
   100  H    0.088448  -0.000000
   101  H    0.100430   0.000000
   102  H    0.119765   0.000000
   103  H    0.112231   0.000000
   104  H    0.129381   0.000000
   105  H    0.098770   0.000000
   106  H    0.093012  -0.000000
   107  H    0.109094   0.000000
   108  H    0.094240  -0.000000
   109  H    0.081248   0.000000
   110  H    0.087597  -0.000000
   111  H    0.045622   0.000000
   112  H    0.121564  -0.000000
   113  H    0.112472   0.000000
   114  H    0.099517  -0.000000
   115  H    0.081971   0.000000
   116  H    0.083642  -0.000000
   117  H    0.098640   0.000000
   118  H    0.078670  -0.000000
   119  H    0.081905  -0.000000
   120  H    0.083040  -0.000000
   121  H    0.045878   0.000000
   122  H    0.098087   0.000000
   123  H    0.117571  -0.000000
   124  H    0.115902  -0.000000
   125  H    0.082691   0.000000
   126  H    0.084332  -0.000000
   127  H    0.089316   0.000000
   128  H    0.092795   0.000000
   129  H    0.085030   0.000000
   130  H    0.082146   0.000000
   131  H    0.049487   0.000000
   132  H    0.097745   0.000000
   133  H    0.105058   0.000000
   134  H    0.117846   0.000000
   135  H    0.103743   0.000000
   136  H    0.105227  -0.000000
   137  H    0.096666   0.000000
 Sum of Mulliken charges =  -1.00000   1.00000

 Dipole moment (field-independent basis, Debye):
    X=             34.5886    Y=              3.5780    Z=             -0.5253  Tot=             34.7771
 Quadrupole moment (field-independent basis, Debye-Ang):
   XX=           -648.9414   YY=           -471.1860   ZZ=           -414.3725
   XY=             -3.8953   XZ=              2.3712   YZ=             -1.1071

 Normal termination of Gaussian 16 at Sat Dec  7 04:03:17 2019.
