 Gaussian 16, Revision A.03,
 Gaussian 16:  ES64L-G16RevA.03 25-Dec-2016

 -------------------------------------
 # td=(NStates=1) CAM-B3LYP/6-31G(d,p)
 -------------------------------------

 --
 TD
 --
 Symbolic Z-matrix:
 Charge =  0 Multiplicity = 1

                         Standard orientation:
 ---------------------------------------------------------------------
 Center     Atomic      Atomic             Coordinates (Angstroms)
 Number     Number       Type             X           Y           Z
 ---------------------------------------------------------------------
      1          8           0       14.663424   -2.368153   -0.552218
      2          8           0      -14.788073    1.971054    0.512554
      3          6           0       11.452130   -1.066657    1.226755
      4          6           0      -12.351424   -0.981055    0.756706
      5          6           0       12.949653   -1.435051    0.999136
      6          6           0      -13.705622   -0.260862    0.567720
      7          6           0       13.263614   -2.089030   -0.379689
      8          6           0      -13.605534    1.349022    0.557761
      9          6           0       10.873660   -0.319149   -0.120983
     10          6           0      -11.324939   -0.276827   -0.033101
     11          6           0       12.866150   -1.056205   -1.446480
     12          6           0      -12.796683    1.606540   -0.641860
     13          6           0       11.522399   -0.401709   -1.159963
     14          6           0      -11.442009    0.839181   -0.769024
     15          6           0       11.435700   -0.119999    2.532713
     16          6           0       10.693979   -2.415419    1.609349
     17          6           0      -12.024665   -1.051931    2.221848
     18          6           0      -12.538438   -2.415230    0.186422
     19          6           0        9.546418    0.372349    0.148354
     20          6           0      -10.027026   -1.025819   -0.263736
     21          6           0       10.992823    0.203068   -2.460183
     22          6           0      -10.544244    1.469872   -1.814322
     23          6           0        9.399897    1.714131   -0.113562
     24          6           0       -8.820222   -0.587155    0.045744
     25          6           0        8.166853    2.362789    0.037385
     26          6           0       -7.523841   -1.277946   -0.335634
     27          6           0        8.245384    3.871527    0.364007
     28          6           0       -7.580728   -2.656649   -0.870858
     29          6           0        6.969422    1.696254   -0.018693
     30          6           0       -6.431623   -0.612947   -0.070939
     31          6           0        5.558580    2.143700    0.238048
     32          6           0       -4.987410   -1.060646   -0.359166
     33          6           0        4.471460    1.294549    0.038078
     34          6           0       -3.945103   -0.279267   -0.310750
     35          6           0        3.085500    1.810279   -0.044933
     36          6           0       -2.645785   -0.739014   -0.387442
     37          6           0        2.815824    3.185152    0.604653
     38          6           0       -2.263510   -2.145704   -0.723462
     39          6           0        2.052619    0.895635   -0.115572
     40          6           0       -1.555520    0.038474   -0.042591
     41          6           0        0.673468    1.015949    0.063006
     42          6           0       -0.181093   -0.054370   -0.192783
     43          1           0       13.455550   -0.487004    1.062240
     44          1           0       13.215003   -2.200396    1.866108
     45          1           0      -14.258425   -0.537940    1.517401
     46          1           0      -14.277298   -0.711707   -0.189447
     47          1           0       12.678700   -2.899635   -0.697822
     48          1           0      -13.027030    1.810043    1.397662
     49          1           0       13.526072   -0.253881   -1.444877
     50          1           0       12.982780   -1.573587   -2.328831
     51          1           0      -13.305551    1.420088   -1.637877
     52          1           0      -12.524369    2.656046   -0.692015
     53          1           0       11.745238   -0.726645    3.451767
     54          1           0       10.420466    0.262125    2.988958
     55          1           0       12.063940    0.895484    2.434272
     56          1           0       10.789788   -3.219090    0.853173
     57          1           0       11.078778   -2.918121    2.446480
     58          1           0        9.686690   -2.305118    1.836955
     59          1           0      -11.881755   -0.131774    2.754654
     60          1           0      -11.101223   -1.586447    2.324821
     61          1           0      -12.773559   -1.557893    2.661617
     62          1           0      -13.665500   -2.762654    0.669045
     63          1           0      -11.883574   -3.164433    0.349907
     64          1           0      -12.638208   -2.369656   -0.984847
     65          1           0        8.658779   -0.391479    0.583469
     66          1           0      -10.090814   -2.018259   -0.804286
     67          1           0       10.021764    0.583781   -2.390594
     68          1           0       11.642517    1.045778   -2.583619
     69          1           0       11.078198   -0.425032   -3.271184
     70          1           0      -11.285804    1.780032   -2.562913
     71          1           0       -9.920459    0.778743   -2.271976
     72          1           0       -9.992212    2.274512   -1.490183
     73          1           0       14.760871   -3.383889   -0.163579
     74          1           0      -15.532428    1.665218    1.119403
     75          1           0       10.224549    2.247682   -0.681183
     76          1           0       -8.657270    0.340715    0.448995
     77          1           0        9.010348    4.240635   -0.341172
     78          1           0        7.165161    4.300944    0.509964
     79          1           0        8.623839    3.956093    1.249174
     80          1           0       -7.875908   -3.603361   -0.107646
     81          1           0       -8.352073   -2.683086   -1.718795
     82          1           0       -6.698216   -2.800881   -1.359984
     83          1           0        6.839591    0.732850   -0.450169
     84          1           0       -6.491529    0.468762    0.224810
     85          1           0        5.384741    3.275247    0.222683
     86          1           0       -4.782903   -2.102211   -0.805373
     87          1           0        4.547648    0.343623   -0.481600
     88          1           0       -4.208636    0.850384   -0.009496
     89          1           0        3.178042    3.367072    1.581659
     90          1           0        1.744043    3.421218    0.562965
     91          1           0        3.445769    3.983259    0.084595
     92          1           0       -2.948141   -2.722266    0.101226
     93          1           0       -2.771989   -2.431874   -1.658173
     94          1           0       -1.288779   -2.515877   -0.844852
     95          1           0        2.280843   -0.212039   -0.413539
     96          1           0       -1.888176    0.906205    0.306058
     97          1           0        0.254538    1.916423    0.503990
     98          1           0        0.174100   -0.888923   -0.542454
 ---------------------------------------------------------------------

 SCF Done:  E(RCAM-B3LYP) =  -1706.98494823     A.U. after   14 cycles

 Excitation energies and oscillator strengths:

 Excited State   1:      Singlet-A      2.6184 eV  473.52 nm  f=3.3204  <S**2>=0.000
     155 ->158         0.14515
     156 ->157         0.69071
 This state for optimization and/or second-order correction.
 Total Energy, E(TD-HF/TD-DFT) =  -1706.88872463
 Copying the excited state density for this state as the 1-particle RhoCI density.

 The electronic state is 1-A.
 Alpha  occ. eigenvalues --  -19.22236 -19.21207 -10.30402 -10.29774 -10.28566
 Alpha  occ. eigenvalues --  -10.28172 -10.27457 -10.27121 -10.27069 -10.26962
 Alpha  occ. eigenvalues --  -10.26889 -10.26759 -10.26687 -10.26633 -10.26538
 Alpha  occ. eigenvalues --  -10.26522 -10.26515 -10.26493 -10.26416 -10.26387
 Alpha  occ. eigenvalues --  -10.26374 -10.26303 -10.26266 -10.26173 -10.25501
 Alpha  occ. eigenvalues --  -10.25441 -10.25413 -10.25370 -10.25350 -10.25072
 Alpha  occ. eigenvalues --  -10.25023 -10.24958 -10.24870 -10.24698 -10.24692
 Alpha  occ. eigenvalues --  -10.24293 -10.24049 -10.23954 -10.23827 -10.23810
 Alpha  occ. eigenvalues --  -10.22803 -10.22671  -1.10919  -1.07195  -0.93636
 Alpha  occ. eigenvalues --   -0.92928  -0.92896  -0.91022  -0.90532  -0.89895
 Alpha  occ. eigenvalues --   -0.87475  -0.87151  -0.86019  -0.84777  -0.84019
 Alpha  occ. eigenvalues --   -0.83035  -0.81493  -0.80369  -0.79723  -0.78141
 Alpha  occ. eigenvalues --   -0.77213  -0.76905  -0.76721  -0.76130  -0.75659
 Alpha  occ. eigenvalues --   -0.75484  -0.74816  -0.74017  -0.73908  -0.70697
 Alpha  occ. eigenvalues --   -0.68673  -0.67892  -0.66008  -0.65416  -0.64545
 Alpha  occ. eigenvalues --   -0.63270  -0.62830  -0.62068  -0.59839  -0.59608
 Alpha  occ. eigenvalues --   -0.59032  -0.58310  -0.58036  -0.57657  -0.56614
 Alpha  occ. eigenvalues --   -0.55860  -0.54632  -0.54085  -0.53930  -0.53300
 Alpha  occ. eigenvalues --   -0.52994  -0.52935  -0.52164  -0.51755  -0.51087
 Alpha  occ. eigenvalues --   -0.50818  -0.50062  -0.49868  -0.49633  -0.49528
 Alpha  occ. eigenvalues --   -0.48833  -0.48765  -0.48450  -0.48108  -0.47808
 Alpha  occ. eigenvalues --   -0.47346  -0.47344  -0.46773  -0.46692  -0.46494
 Alpha  occ. eigenvalues --   -0.45973  -0.45804  -0.45663  -0.45152  -0.45108
 Alpha  occ. eigenvalues --   -0.45049  -0.44907  -0.44493  -0.43674  -0.43396
 Alpha  occ. eigenvalues --   -0.43136  -0.42914  -0.42717  -0.42498  -0.42225
 Alpha  occ. eigenvalues --   -0.42017  -0.41821  -0.41482  -0.40844  -0.40390
 Alpha  occ. eigenvalues --   -0.40086  -0.39970  -0.39592  -0.39468  -0.39298
 Alpha  occ. eigenvalues --   -0.39053  -0.38967  -0.38778  -0.38472  -0.38056
 Alpha  occ. eigenvalues --   -0.37236  -0.36564  -0.36368  -0.35315  -0.35080
 Alpha  occ. eigenvalues --   -0.34459  -0.34087  -0.33077  -0.31771  -0.31720
 Alpha  occ. eigenvalues --   -0.31571  -0.30173  -0.28873  -0.27108  -0.24854
 Alpha  occ. eigenvalues --   -0.20371
 Alpha virt. eigenvalues --   -0.04702   0.00480   0.03595   0.06922   0.08490
 Alpha virt. eigenvalues --    0.09798   0.10298   0.11113   0.11673   0.12060
 Alpha virt. eigenvalues --    0.12279   0.12472   0.13086   0.13140   0.13489

 Mulliken charges:
               1
     1  O   -0.559704
     2  O   -0.561325
     3  C   -0.001518
     4  C    0.002017
     5  C   -0.166828
     6  C   -0.226921
     7  C    0.149188
     8  C    0.215046
     9  C    0.037014
    10  C    0.039227
    11  C   -0.214674
    12  C   -0.221927
    13  C    0.031754
    14  C    0.048341
    15  C   -0.306473
    16  C   -0.323198
    17  C   -0.290927
    18  C   -0.296362
    19  C   -0.101550
    20  C   -0.161312
    21  C   -0.358171
    22  C   -0.345986
    23  C   -0.112950
    24  C   -0.055657
    25  C    0.071848
    26  C    0.127206
    27  C   -0.350757
    28  C   -0.356671
    29  C   -0.120894
    30  C   -0.148794
    31  C   -0.100770
    32  C   -0.113527
    33  C   -0.113711
    34  C   -0.086675
    35  C    0.059054
    36  C    0.117708
    37  C   -0.367430
    38  C   -0.378241
    39  C   -0.100934
    40  C   -0.124307
    41  C   -0.073431
    42  C   -0.041854
    43  H    0.106816
    44  H    0.064880
    45  H    0.059082
    46  H    0.108118
    47  H    0.089529
    48  H    0.066884
    49  H    0.127206
    50  H    0.109649
    51  H    0.101178
    52  H    0.097971
    53  H    0.093785
    54  H    0.091832
    55  H    0.088305
    56  H    0.092650
    57  H    0.106895
    58  H    0.107111
    59  H    0.105685
    60  H    0.105523
    61  H    0.105028
    62  H    0.060621
    63  H    0.119137
    64  H    0.093830
    65  H    0.099599
    66  H    0.080002
    67  H    0.117889
    68  H    0.109672
    69  H    0.111063
    70  H    0.106817
    71  H    0.122636
    72  H    0.128329
    73  H    0.304619
    74  H    0.316545
    75  H    0.095137
    76  H    0.070494
    77  H    0.111272
    78  H    0.097517
    79  H    0.143415
    80  H    0.102001
    81  H    0.106651
    82  H    0.119360
    83  H    0.080052
    84  H    0.080131
    85  H    0.081121
    86  H    0.083247
    87  H    0.090783
    88  H    0.082035
    89  H    0.135254
    90  H    0.105210
    91  H    0.099285
    92  H    0.102988
    93  H    0.111904
    94  H    0.123153
    95  H    0.068126
    96  H    0.051830
    97  H    0.086283
    98  H    0.058946
 Sum of Mulliken charges =  -0.00000

 Dipole moment (field-independent basis, Debye):
    X=             -1.7290    Y=             -2.2342    Z=              0.3940  Tot=              2.8524
 Quadrupole moment (field-independent basis, Debye-Ang):
   XX=           -258.3494   YY=           -242.6477   ZZ=           -260.1090
   XY=              0.8045   XZ=             -6.4537   YZ=              4.8279

 Normal termination of Gaussian 16 at Sat Jul  6 16:14:18 2019.
