 Gaussian 16, Revision A.03,
 Gaussian 16:  ES64L-G16RevA.03 25-Dec-2016

 -------------------------------------
 # td=(NStates=1) CAM-B3LYP/6-31G(d,p)
 -------------------------------------

 --
 TD
 --
 Symbolic Z-matrix:
 Charge =  0 Multiplicity = 1

                         Standard orientation:
 ---------------------------------------------------------------------
 Center     Atomic      Atomic             Coordinates (Angstroms)
 Number     Number       Type             X           Y           Z
 ---------------------------------------------------------------------
      1          8           0       14.639207   -2.428233   -0.381416
      2          8           0      -14.631478    1.957433    0.908141
      3          6           0       11.465704   -1.140894    1.249211
      4          6           0      -12.339371   -0.990521    0.783147
      5          6           0       12.904228   -1.478808    1.014992
      6          6           0      -13.657780   -0.214301    0.827719
      7          6           0       13.193012   -2.072622   -0.324200
      8          6           0      -13.440277    1.244406    0.803000
      9          6           0       10.912753   -0.272595   -0.040316
     10          6           0      -11.309173   -0.375737   -0.211504
     11          6           0       13.025350   -0.899942   -1.280624
     12          6           0      -12.814541    1.688925   -0.446622
     13          6           0       11.713083   -0.183765   -1.119122
     14          6           0      -11.565983    0.868983   -0.783779
     15          6           0       11.345013   -0.306886    2.550654
     16          6           0       10.493192   -2.351233    1.446980
     17          6           0      -11.706191   -1.119543    2.148843
     18          6           0      -12.514527   -2.468611    0.244227
     19          6           0        9.598261    0.328618    0.092381
     20          6           0      -10.091523   -1.098265   -0.555788
     21          6           0       11.303019    0.552456   -2.392628
     22          6           0      -10.813997    1.565582   -1.788109
     23          6           0        9.314662    1.611417   -0.044780
     24          6           0       -8.889506   -0.559014   -0.282171
     25          6           0        8.096978    2.203632    0.056148
     26          6           0       -7.624529   -1.154260   -0.581097
     27          6           0        8.238976    3.654780    0.493886
     28          6           0       -7.669880   -2.638408   -1.044185
     29          6           0        6.940206    1.522184   -0.254714
     30          6           0       -6.509145   -0.552111   -0.305022
     31          6           0        5.612207    2.009122   -0.036568
     32          6           0       -5.100527   -1.065885   -0.391874
     33          6           0        4.436716    1.339184   -0.036162
     34          6           0       -3.998459   -0.330129   -0.130930
     35          6           0        3.086140    1.722321    0.147731
     36          6           0       -2.658152   -0.650163   -0.387689
     37          6           0        2.923513    3.074552    0.630003
     38          6           0       -2.402990   -1.965964   -0.929391
     39          6           0        2.089006    0.769873   -0.222591
     40          6           0       -1.651520    0.190282   -0.029767
     41          6           0        0.692467    1.020394   -0.081180
     42          6           0       -0.252127    0.022454   -0.194073
     43          1           0       13.448987   -0.522412    1.214218
     44          1           0       13.428728   -2.359807    1.595843
     45          1           0      -14.435716   -0.537593    1.688549
     46          1           0      -14.239228   -0.436876    0.006116
     47          1           0       12.362196   -2.881324   -0.580870
     48          1           0      -12.894065    1.560012    1.744413
     49          1           0       13.789942   -0.197631   -0.978918
     50          1           0       13.140091   -1.224546   -2.205759
     51          1           0      -13.545310    1.411277   -1.289225
     52          1           0      -12.609738    2.843747   -0.235438
     53          1           0       11.734671   -0.814871    3.453848
     54          1           0       10.132142   -0.274770    2.730705
     55          1           0       11.739296    0.651303    2.478252
     56          1           0       10.716990   -3.250076    0.660515
     57          1           0       10.615349   -2.910496    2.385686
     58          1           0        9.413135   -1.955501    1.187654
     59          1           0      -11.288270   -0.083444    2.428476
     60          1           0      -10.722788   -1.870452    2.076377
     61          1           0      -12.480973   -1.451037    3.056557
     62          1           0      -13.275475   -3.151755    0.777775
     63          1           0      -11.539132   -3.085621    0.092732
     64          1           0      -12.873432   -2.280615   -0.744378
     65          1           0        8.845416   -0.455627    0.557695
     66          1           0      -10.159139   -1.973579   -1.168457
     67          1           0       10.169106    0.936150   -2.510506
     68          1           0       11.965905    1.565408   -2.476970
     69          1           0       11.535021   -0.028869   -3.274320
     70          1           0      -11.361261    2.134001   -2.622453
     71          1           0      -10.060859    0.561313   -2.046021
     72          1           0      -10.137647    2.430439   -1.494552
     73          1           0       14.690596   -2.890272    0.601985
     74          1           0      -14.994292    1.495614    1.789413
     75          1           0       10.273461    2.161554   -0.507967
     76          1           0       -8.798341    0.348079    0.357792
     77          1           0        8.868332    4.115804   -0.133618
     78          1           0        7.218188    4.164436    0.656257
     79          1           0        8.497886    3.730683    1.555795
     80          1           0       -7.948411   -3.300575   -0.216861
     81          1           0       -8.325205   -2.612821   -2.066449
     82          1           0       -6.543448   -3.004405   -1.374752
     83          1           0        6.953189    0.445575   -0.527625
     84          1           0       -6.674602    0.606648   -0.118588
     85          1           0        5.494151    2.969960    0.221985
     86          1           0       -4.845363   -1.973508   -0.657012
     87          1           0        4.497666    0.282514   -0.531990
     88          1           0       -4.284372    0.830977    0.006685
     89          1           0        3.903855    3.429761    1.479170
     90          1           0        1.852769    3.139904    1.131155
     91          1           0        2.978073    3.920443   -0.294109
     92          1           0       -3.084265   -2.859407   -0.461520
     93          1           0       -2.799213   -2.151950   -2.070657
     94          1           0       -1.598886   -2.186183   -1.011730
     95          1           0        2.386319   -0.119583   -0.452183
     96          1           0       -1.895848    1.081251    0.525725
     97          1           0        0.279344    1.964968    0.025783
     98          1           0        0.176910   -1.166849   -0.212216
 ---------------------------------------------------------------------

 SCF Done:  E(RCAM-B3LYP) =  -1706.83324984     A.U. after   14 cycles

 Excitation energies and oscillator strengths:

 Excited State   1:      Singlet-A      2.5990 eV  477.05 nm  f=3.4733  <S**2>=0.000
     155 ->158        -0.15360
     156 ->157         0.68688
 This state for optimization and/or second-order correction.
 Total Energy, E(TD-HF/TD-DFT) =  -1706.73773860
 Copying the excited state density for this state as the 1-particle RhoCI density.

 The electronic state is 1-A.
 Alpha  occ. eigenvalues --  -19.22668 -19.21217 -10.31032 -10.29844 -10.29164
 Alpha  occ. eigenvalues --  -10.28644 -10.28242 -10.28181 -10.28049 -10.27857
 Alpha  occ. eigenvalues --  -10.27238 -10.27195 -10.27115 -10.27090 -10.27080
 Alpha  occ. eigenvalues --  -10.27058 -10.27012 -10.26708 -10.26707 -10.26635
 Alpha  occ. eigenvalues --  -10.26630 -10.26611 -10.26588 -10.26531 -10.26516
 Alpha  occ. eigenvalues --  -10.26511 -10.26498 -10.26487 -10.26209 -10.26083
 Alpha  occ. eigenvalues --  -10.26070 -10.26055 -10.26031 -10.25915 -10.25778
 Alpha  occ. eigenvalues --  -10.25621 -10.25538 -10.25455 -10.25391 -10.25299
 Alpha  occ. eigenvalues --  -10.25150 -10.23978  -1.09510  -1.06674  -0.93881
 Alpha  occ. eigenvalues --   -0.93842  -0.93165  -0.92415  -0.91527  -0.91137
 Alpha  occ. eigenvalues --   -0.88018  -0.87082  -0.86886  -0.86098  -0.85440
 Alpha  occ. eigenvalues --   -0.83840  -0.82692  -0.80414  -0.80161  -0.79484
 Alpha  occ. eigenvalues --   -0.76725  -0.76196  -0.75810  -0.75526  -0.75337
 Alpha  occ. eigenvalues --   -0.75133  -0.74752  -0.74622  -0.74076  -0.71113
 Alpha  occ. eigenvalues --   -0.69153  -0.67168  -0.65516  -0.64788  -0.63792
 Alpha  occ. eigenvalues --   -0.63043  -0.62552  -0.61986  -0.61063  -0.60228
 Alpha  occ. eigenvalues --   -0.59547  -0.58732  -0.58388  -0.57711  -0.56550
 Alpha  occ. eigenvalues --   -0.56102  -0.55521  -0.55174  -0.54196  -0.53871
 Alpha  occ. eigenvalues --   -0.53163  -0.52749  -0.52547  -0.51757  -0.51721
 Alpha  occ. eigenvalues --   -0.50811  -0.50698  -0.50131  -0.49679  -0.49427
 Alpha  occ. eigenvalues --   -0.49050  -0.48600  -0.48256  -0.48015  -0.47676
 Alpha  occ. eigenvalues --   -0.47348  -0.47189  -0.47092  -0.46992  -0.46714
 Alpha  occ. eigenvalues --   -0.46220  -0.45997  -0.45567  -0.45133  -0.44864
 Alpha  occ. eigenvalues --   -0.44644  -0.44317  -0.43968  -0.43894  -0.43315
 Alpha  occ. eigenvalues --   -0.43169  -0.42608  -0.42468  -0.42047  -0.42017
 Alpha  occ. eigenvalues --   -0.41415  -0.41263  -0.41108  -0.40918  -0.40855
 Alpha  occ. eigenvalues --   -0.40441  -0.40267  -0.39886  -0.39097  -0.38971
 Alpha  occ. eigenvalues --   -0.38746  -0.38675  -0.38422  -0.38402  -0.38139
 Alpha  occ. eigenvalues --   -0.37870  -0.36960  -0.36810  -0.36718  -0.36093
 Alpha  occ. eigenvalues --   -0.35701  -0.34204  -0.33526  -0.32989  -0.31844
 Alpha  occ. eigenvalues --   -0.31478  -0.29775  -0.28157  -0.27087  -0.24872
 Alpha  occ. eigenvalues --   -0.21038
 Alpha virt. eigenvalues --   -0.05233  -0.00698   0.02186   0.05236   0.06925
 Alpha virt. eigenvalues --    0.08037   0.08940   0.10304   0.10919   0.10968
 Alpha virt. eigenvalues --    0.11460   0.11638   0.12016   0.12365   0.12873

 Mulliken charges:
               1
     1  O   -0.560762
     2  O   -0.556855
     3  C    0.003259
     4  C    0.007438
     5  C   -0.169803
     6  C   -0.192509
     7  C    0.151849
     8  C    0.177795
     9  C    0.025270
    10  C    0.036271
    11  C   -0.194539
    12  C   -0.216652
    13  C    0.045267
    14  C    0.085712
    15  C   -0.289905
    16  C   -0.296339
    17  C   -0.267616
    18  C   -0.313993
    19  C   -0.099985
    20  C   -0.177690
    21  C   -0.360744
    22  C   -0.359364
    23  C   -0.101778
    24  C   -0.069254
    25  C    0.079008
    26  C    0.140119
    27  C   -0.361044
    28  C   -0.354733
    29  C   -0.107317
    30  C   -0.147436
    31  C   -0.063962
    32  C   -0.058069
    33  C   -0.129147
    34  C   -0.124094
    35  C    0.155137
    36  C    0.150868
    37  C   -0.365379
    38  C   -0.303899
    39  C   -0.093106
    40  C   -0.140883
    41  C   -0.077510
    42  C   -0.094093
    43  H    0.107949
    44  H    0.038511
    45  H    0.058454
    46  H    0.109793
    47  H    0.083495
    48  H    0.067536
    49  H    0.126656
    50  H    0.109729
    51  H    0.117330
    52  H    0.106470
    53  H    0.104701
    54  H    0.077445
    55  H    0.113071
    56  H    0.072620
    57  H    0.111338
    58  H    0.095556
    59  H    0.092778
    60  H    0.083774
    61  H    0.076100
    62  H    0.092246
    63  H    0.096165
    64  H    0.106102
    65  H    0.079254
    66  H    0.104432
    67  H    0.110403
    68  H    0.091464
    69  H    0.116238
    70  H    0.107254
    71  H    0.080313
    72  H    0.110570
    73  H    0.297115
    74  H    0.296581
    75  H    0.086200
    76  H    0.096175
    77  H    0.133187
    78  H    0.096438
    79  H    0.129859
    80  H    0.134858
    81  H    0.106141
    82  H    0.085170
    83  H    0.085579
    84  H    0.073986
    85  H    0.058656
    86  H    0.057925
    87  H    0.052995
    88  H    0.065538
    89  H    0.084247
    90  H    0.102662
    91  H    0.108920
    92  H    0.101162
    93  H    0.090314
    94  H    0.072584
    95  H    0.075348
    96  H    0.092906
    97  H    0.088346
    98  H    0.069834
 Sum of Mulliken charges =  -0.00000

 Dipole moment (field-independent basis, Debye):
    X=              0.6885    Y=             -0.7506    Z=              1.6647  Tot=              1.9516
 Quadrupole moment (field-independent basis, Debye-Ang):
   XX=           -299.8136   YY=           -250.9874   ZZ=           -261.5910
   XY=             26.0778   XZ=              7.9480   YZ=              0.2856

 Normal termination of Gaussian 16 at Sun Jun 30 06:33:38 2019.
