 Gaussian 16, Revision A.03,
 Gaussian 16:  ES64L-G16RevA.03 25-Dec-2016

 -------------------------------------
 # td=(NStates=1) CAM-B3LYP/6-31G(d,p)
 -------------------------------------

 --
 TD
 --
 Symbolic Z-matrix:
 Charge =  0 Multiplicity = 1

                         Standard orientation:
 ---------------------------------------------------------------------
 Center     Atomic      Atomic             Coordinates (Angstroms)
 Number     Number       Type             X           Y           Z
 ---------------------------------------------------------------------
      1          8           0       14.820382   -2.301768   -0.484365
      2          8           0      -14.951923    1.810401    0.764493
      3          6           0       11.560579   -1.107895    1.226563
      4          6           0      -12.393630   -0.982644    0.574848
      5          6           0       13.097894   -1.371658    1.002669
      6          6           0      -13.741918   -0.325084    0.619784
      7          6           0       13.340058   -1.920871   -0.413343
      8          6           0      -13.720255    1.269335    0.799664
      9          6           0       11.047013   -0.235196   -0.043025
     10          6           0      -11.306283   -0.264323   -0.199569
     11          6           0       12.979561   -0.952995   -1.422931
     12          6           0      -13.030109    1.681581   -0.495893
     13          6           0       11.725588   -0.236966   -1.173274
     14          6           0      -11.679795    0.942991   -0.698608
     15          6           0       11.324433   -0.207582    2.487324
     16          6           0       10.768790   -2.393408    1.458884
     17          6           0      -11.781794   -0.975958    2.055609
     18          6           0      -12.608336   -2.523456    0.251451
     19          6           0        9.799091    0.266498    0.212332
     20          6           0      -10.069134   -0.937193   -0.538011
     21          6           0       11.215464    0.455810   -2.402424
     22          6           0      -10.790159    1.843227   -1.670721
     23          6           0        9.370428    1.596055   -0.123664
     24          6           0       -8.916928   -0.457171   -0.180322
     25          6           0        8.078704    2.265527    0.064691
     26          6           0       -7.617263   -1.304248   -0.382055
     27          6           0        8.175099    3.732556    0.355325
     28          6           0       -7.739351   -2.849979   -0.643015
     29          6           0        6.861910    1.511625    0.064858
     30          6           0       -6.421850   -0.642505   -0.272730
     31          6           0        5.592655    1.991295    0.273804
     32          6           0       -5.078204   -1.008298   -0.565367
     33          6           0        4.528168    1.224882    0.102411
     34          6           0       -3.987447   -0.302837   -0.406134
     35          6           0        3.085430    1.657532    0.139660
     36          6           0       -2.531170   -0.737525   -0.538685
     37          6           0        2.828899    3.083625    0.572934
     38          6           0       -2.427516   -2.107309   -0.892228
     39          6           0        2.119193    0.643791   -0.021442
     40          6           0       -1.598338    0.167560   -0.160929
     41          6           0        0.713254    0.985465    0.048691
     42          6           0       -0.203599   -0.054715   -0.159265
     43          1           0       13.764854   -0.442872    1.067696
     44          1           0       13.457254   -2.037456    1.864465
     45          1           0      -14.367683   -0.779046    1.239941
     46          1           0      -14.228911   -0.563589   -0.426206
     47          1           0       12.899012   -2.893511   -0.599633
     48          1           0      -13.083019    1.444169    1.496888
     49          1           0       13.908444   -0.181323   -1.576104
     50          1           0       12.818205   -1.488796   -2.293342
     51          1           0      -13.658942    1.544803   -1.375729
     52          1           0      -12.929851    2.749325   -0.551305
     53          1           0       11.725687   -0.637400    3.212253
     54          1           0       10.368108    0.122775    2.679577
     55          1           0       11.989844    0.664982    2.246570
     56          1           0       10.953520   -3.046884    0.647460
     57          1           0       11.183152   -2.874681    2.282793
     58          1           0        9.540128   -2.328698    1.566123
     59          1           0      -11.808459   -0.009824    2.340447
     60          1           0      -10.781963   -1.324035    2.011095
     61          1           0      -12.490584   -1.582778    2.670061
     62          1           0      -13.559361   -2.961258    0.781620
     63          1           0      -11.737948   -3.138336    0.666403
     64          1           0      -13.109396   -2.682193   -0.780262
     65          1           0        8.930832   -0.243025    0.786811
     66          1           0      -10.271058   -1.994089   -0.654254
     67          1           0       10.025810    0.723462   -2.486483
     68          1           0       11.494076    1.712305   -2.480141
     69          1           0       11.641500   -0.225703   -3.341923
     70          1           0      -11.159447    2.420624   -2.436305
     71          1           0      -10.065509    1.328994   -2.110266
     72          1           0      -10.227074    2.598828   -0.897831
     73          1           0       15.298637   -2.850450    0.323747
     74          1           0      -15.492074    1.445817    1.501307
     75          1           0       10.089977    2.476373   -0.502309
     76          1           0       -8.698065    0.625457    0.142399
     77          1           0        8.663352    4.207513   -0.550027
     78          1           0        7.154753    4.244389    0.474667
     79          1           0        8.841058    3.836935    1.177774
     80          1           0       -7.990538   -3.397509    0.407206
     81          1           0       -8.506009   -3.149598   -1.498262
     82          1           0       -6.715020   -3.109470   -1.190350
     83          1           0        6.945913    0.304215   -0.034213
     84          1           0       -6.677442    0.470489    0.082695
     85          1           0        5.317071    2.912415    0.742357
     86          1           0       -4.999139   -2.026983   -1.158377
     87          1           0        4.587542    0.238332   -0.292185
     88          1           0       -3.988529    0.781022    0.118576
     89          1           0        3.306869    3.366399    1.514053
     90          1           0        1.810915    3.295871    0.799697
     91          1           0        3.125474    3.773776   -0.309150
     92          1           0       -2.746359   -3.056746   -0.153383
     93          1           0       -3.034435   -2.351533   -1.745386
     94          1           0       -1.272448   -2.317572   -0.945976
     95          1           0        2.596525   -0.340158   -0.157476
     96          1           0       -1.998131    1.093386    0.048977
     97          1           0        0.497869    1.959340    0.458789
     98          1           0        0.298539   -0.892783   -0.493783
 ---------------------------------------------------------------------

 SCF Done:  E(RCAM-B3LYP) =  -1706.90735849     A.U. after   14 cycles

 Excitation energies and oscillator strengths:

 Excited State   1:      Singlet-A      2.6440 eV  468.93 nm  f=3.3569  <S**2>=0.000
     155 ->158         0.17333
     156 ->157         0.67749
 This state for optimization and/or second-order correction.
 Total Energy, E(TD-HF/TD-DFT) =  -1706.81019465
 Copying the excited state density for this state as the 1-particle RhoCI density.

 The electronic state is 1-A.
 Alpha  occ. eigenvalues --  -19.22072 -19.20011 -10.30682 -10.28865 -10.28804
 Alpha  occ. eigenvalues --  -10.28578 -10.28140 -10.27842 -10.27838 -10.27693
 Alpha  occ. eigenvalues --  -10.27631 -10.27174 -10.27116 -10.27066 -10.27031
 Alpha  occ. eigenvalues --  -10.27015 -10.26939 -10.26932 -10.26846 -10.26829
 Alpha  occ. eigenvalues --  -10.26810 -10.26730 -10.26728 -10.26671 -10.26617
 Alpha  occ. eigenvalues --  -10.26509 -10.26369 -10.26300 -10.26210 -10.25826
 Alpha  occ. eigenvalues --  -10.25718 -10.25455 -10.25401 -10.25199 -10.25146
 Alpha  occ. eigenvalues --  -10.25047 -10.24987 -10.24004 -10.23970 -10.23883
 Alpha  occ. eigenvalues --  -10.22994 -10.22046  -1.11907  -1.03259  -0.94028
 Alpha  occ. eigenvalues --   -0.93099  -0.92203  -0.91401  -0.89724  -0.89099
 Alpha  occ. eigenvalues --   -0.87708  -0.87343  -0.86166  -0.85244  -0.85068
 Alpha  occ. eigenvalues --   -0.83618  -0.81960  -0.79564  -0.79468  -0.78583
 Alpha  occ. eigenvalues --   -0.77099  -0.76315  -0.76017  -0.75917  -0.75384
 Alpha  occ. eigenvalues --   -0.74843  -0.74516  -0.74358  -0.73441  -0.69961
 Alpha  occ. eigenvalues --   -0.68954  -0.67826  -0.66021  -0.65296  -0.63980
 Alpha  occ. eigenvalues --   -0.63299  -0.62504  -0.62110  -0.60688  -0.60493
 Alpha  occ. eigenvalues --   -0.59287  -0.57875  -0.57484  -0.57260  -0.55968
 Alpha  occ. eigenvalues --   -0.55842  -0.55268  -0.54707  -0.54289  -0.53579
 Alpha  occ. eigenvalues --   -0.52908  -0.52534  -0.51767  -0.51125  -0.50808
 Alpha  occ. eigenvalues --   -0.50311  -0.50020  -0.49421  -0.49299  -0.48940
 Alpha  occ. eigenvalues --   -0.48727  -0.48529  -0.48398  -0.48072  -0.47756
 Alpha  occ. eigenvalues --   -0.47625  -0.47425  -0.47120  -0.46758  -0.46659
 Alpha  occ. eigenvalues --   -0.46104  -0.45882  -0.45608  -0.45275  -0.44861
 Alpha  occ. eigenvalues --   -0.44544  -0.43737  -0.43533  -0.43412  -0.43230
 Alpha  occ. eigenvalues --   -0.42979  -0.42641  -0.42202  -0.42112  -0.41927
 Alpha  occ. eigenvalues --   -0.41421  -0.41192  -0.41136  -0.40953  -0.40938
 Alpha  occ. eigenvalues --   -0.40332  -0.40161  -0.39853  -0.39734  -0.39451
 Alpha  occ. eigenvalues --   -0.38874  -0.38607  -0.38091  -0.37786  -0.37690
 Alpha  occ. eigenvalues --   -0.37289  -0.36546  -0.36320  -0.35704  -0.35323
 Alpha  occ. eigenvalues --   -0.34783  -0.33815  -0.33527  -0.32389  -0.31638
 Alpha  occ. eigenvalues --   -0.31255  -0.29596  -0.28110  -0.25696  -0.23691
 Alpha  occ. eigenvalues --   -0.20546
 Alpha virt. eigenvalues --   -0.04336  -0.00540   0.02486   0.05799   0.07679
 Alpha virt. eigenvalues --    0.09374   0.09728   0.10754   0.11129   0.11453
 Alpha virt. eigenvalues --    0.11917   0.12394   0.12465   0.12817   0.13194

 Mulliken charges:
               1
     1  O   -0.625145
     2  O   -0.547865
     3  C   -0.042034
     4  C   -0.022355
     5  C   -0.206212
     6  C   -0.202738
     7  C    0.185339
     8  C    0.209690
     9  C    0.104066
    10  C    0.067811
    11  C   -0.208496
    12  C   -0.220813
    13  C    0.075321
    14  C    0.015797
    15  C   -0.279678
    16  C   -0.291540
    17  C   -0.300662
    18  C   -0.319470
    19  C   -0.145757
    20  C   -0.132854
    21  C   -0.339072
    22  C   -0.351119
    23  C   -0.117177
    24  C   -0.068516
    25  C    0.062967
    26  C    0.079398
    27  C   -0.367221
    28  C   -0.353002
    29  C   -0.126731
    30  C   -0.114347
    31  C   -0.052170
    32  C   -0.091879
    33  C   -0.117775
    34  C   -0.107838
    35  C    0.085665
    36  C    0.146104
    37  C   -0.381619
    38  C   -0.376828
    39  C   -0.127503
    40  C   -0.106858
    41  C   -0.086287
    42  C   -0.089818
    43  H    0.106071
    44  H    0.072793
    45  H    0.075431
    46  H    0.075932
    47  H    0.100685
    48  H    0.084410
    49  H    0.119956
    50  H    0.122723
    51  H    0.118730
    52  H    0.099907
    53  H    0.097540
    54  H    0.113514
    55  H    0.088526
    56  H    0.103875
    57  H    0.109444
    58  H    0.083847
    59  H    0.105381
    60  H    0.108736
    61  H    0.085567
    62  H    0.087076
    63  H    0.104286
    64  H    0.100811
    65  H    0.100222
    66  H    0.097672
    67  H    0.114927
    68  H    0.082902
    69  H    0.079687
    70  H    0.114882
    71  H    0.120498
    72  H    0.079093
    73  H    0.306703
    74  H    0.306361
    75  H    0.065716
    76  H    0.095918
    77  H    0.114585
    78  H    0.109568
    79  H    0.138409
    80  H    0.119388
    81  H    0.110111
    82  H    0.099270
    83  H    0.076298
    84  H    0.065547
    85  H    0.084630
    86  H    0.071791
    87  H    0.069529
    88  H    0.065045
    89  H    0.128176
    90  H    0.109402
    91  H    0.119576
    92  H    0.101254
    93  H    0.129916
    94  H    0.091022
    95  H    0.090811
    96  H    0.082640
    97  H    0.091999
    98  H    0.090435
 Sum of Mulliken charges =  -0.00000

 Dipole moment (field-independent basis, Debye):
    X=             -0.4816    Y=             -0.9759    Z=              2.6388  Tot=              2.8543
 Quadrupole moment (field-independent basis, Debye-Ang):
   XX=           -268.4979   YY=           -245.7547   ZZ=           -261.4689
   XY=             11.9956   XZ=              4.9625   YZ=              0.9032

 Normal termination of Gaussian 16 at Wed Jul  3 10:31:21 2019.
