 Gaussian 16, Revision A.03,
 Gaussian 16:  ES64L-G16RevA.03 25-Dec-2016

 -------------------------------------
 # td=(NStates=1) CAM-B3LYP/6-31G(d,p)
 -------------------------------------

 --
 TD
 --
 Symbolic Z-matrix:
 Charge =  0 Multiplicity = 1

                         Standard orientation:
 ---------------------------------------------------------------------
 Center     Atomic      Atomic             Coordinates (Angstroms)
 Number     Number       Type             X           Y           Z
 ---------------------------------------------------------------------
      1          8           0       14.584031   -2.288726   -0.548278
      2          8           0      -14.733826    1.955174    0.815250
      3          6           0       11.532600   -1.062682    1.227698
      4          6           0      -12.404813   -1.007857    0.629023
      5          6           0       13.027270   -1.321507    0.951093
      6          6           0      -13.679068   -0.289151    0.602238
      7          6           0       13.199648   -1.910639   -0.332414
      8          6           0      -13.481155    1.324520    0.758028
      9          6           0       10.989916   -0.324214    0.024669
     10          6           0      -11.350499   -0.276378   -0.294051
     11          6           0       12.888645   -0.930913   -1.493245
     12          6           0      -12.806275    1.767607   -0.563344
     13          6           0       11.644740   -0.190610   -1.153847
     14          6           0      -11.567898    0.978423   -0.814177
     15          6           0       11.444262   -0.333979    2.472689
     16          6           0       10.674189   -2.371693    1.438595
     17          6           0      -11.753440   -1.123531    2.067494
     18          6           0      -12.660921   -2.422397    0.090493
     19          6           0        9.633726    0.258560    0.157824
     20          6           0      -10.096745   -0.961689   -0.385043
     21          6           0       11.107057    0.433985   -2.401181
     22          6           0      -10.593088    1.755731   -1.681435
     23          6           0        9.399650    1.572321   -0.024925
     24          6           0       -8.799496   -0.535967   -0.254334
     25          6           0        8.055677    2.282564    0.125350
     26          6           0       -7.628037   -1.302566   -0.582354
     27          6           0        8.122965    3.794312    0.331512
     28          6           0       -7.633365   -2.794563   -0.880095
     29          6           0        6.897664    1.604975   -0.116195
     30          6           0       -6.475043   -0.678112   -0.204906
     31          6           0        5.535584    2.076660    0.156224
     32          6           0       -5.114671   -1.167770   -0.385025
     33          6           0        4.479149    1.284876   -0.059656
     34          6           0       -4.040939   -0.369707   -0.157489
     35          6           0        3.075585    1.657020    0.146705
     36          6           0       -2.663846   -0.755519   -0.289375
     37          6           0        2.791857    3.146662    0.538785
     38          6           0       -2.304938   -2.262123   -0.526783
     39          6           0        2.072926    0.759509   -0.036202
     40          6           0       -1.623616    0.097194   -0.128688
     41          6           0        0.607812    0.956938    0.149040
     42          6           0       -0.202351   -0.036037   -0.094242
     43          1           0       13.577023   -0.475408    1.041463
     44          1           0       13.380030   -1.981061    1.707146
     45          1           0      -14.337944   -0.657352    1.445950
     46          1           0      -14.177253   -0.378118   -0.307318
     47          1           0       12.721690   -2.847688   -0.474369
     48          1           0      -12.839554    1.647260    1.490604
     49          1           0       13.651074   -0.191467   -1.424721
     50          1           0       12.766153   -1.514537   -2.530849
     51          1           0      -13.588279    1.659386   -1.406935
     52          1           0      -12.586418    2.978758   -0.621082
     53          1           0       11.849284   -0.830937    3.300478
     54          1           0       10.495985    0.055899    2.768757
     55          1           0       12.003301    0.642584    2.343447
     56          1           0       11.152234   -3.156560    0.658924
     57          1           0       11.044224   -2.742288    2.331922
     58          1           0        9.495595   -2.189968    1.234395
     59          1           0      -11.822730   -0.001090    2.474323
     60          1           0      -10.837591   -1.653134    1.882087
     61          1           0      -12.394905   -1.562078    2.737556
     62          1           0      -13.553207   -2.733696    0.741393
     63          1           0      -11.970936   -3.194495    0.390348
     64          1           0      -12.680000   -2.635145   -1.235885
     65          1           0        8.840188   -0.418556    0.478174
     66          1           0      -10.157218   -1.898699   -0.658280
     67          1           0       10.108549    0.546181   -2.264147
     68          1           0       11.531606    1.356194   -2.609466
     69          1           0       11.329317   -0.342782   -3.222935
     70          1           0      -11.257999    2.241723   -2.356884
     71          1           0       -9.832138    1.155975   -2.397357
     72          1           0       -9.823207    2.290118   -1.195537
     73          1           0       14.847728   -3.136200   -0.193636
     74          1           0      -14.985020    1.662226    1.600646
     75          1           0       10.201456    2.274780   -0.352701
     76          1           0       -8.666347    0.472710    0.107995
     77          1           0        8.883092    4.264667   -0.344983
     78          1           0        7.147296    4.081183    0.081391
     79          1           0        8.513224    4.043257    1.293468
     80          1           0       -8.166980   -3.215811   -0.149571
     81          1           0       -8.087857   -2.796426   -1.795540
     82          1           0       -6.514652   -3.252531   -0.811022
     83          1           0        6.911090    0.480198   -0.165516
     84          1           0       -6.563570    0.360461    0.065440
     85          1           0        5.337996    3.139037    0.678945
     86          1           0       -5.023635   -2.141116   -0.658331
     87          1           0        4.622275    0.147288   -0.319904
     88          1           0       -4.049441    0.487852    0.221012
     89          1           0        3.494520    3.725633    1.370135
     90          1           0        1.851160    3.303929    0.600908
     91          1           0        3.150510    3.769589   -0.266434
     92          1           0       -2.718112   -2.844432    0.115339
     93          1           0       -2.705121   -2.671443   -1.496927
     94          1           0       -1.190640   -2.247964   -0.399092
     95          1           0        2.336609   -0.327309   -0.145289
     96          1           0       -1.873690    1.104755    0.256648
     97          1           0        0.368124    1.988730    0.420134
     98          1           0        0.187188   -1.107186   -0.220833
 ---------------------------------------------------------------------

 SCF Done:  E(RCAM-B3LYP) =  -1706.97862682     A.U. after   14 cycles

 Excitation energies and oscillator strengths:

 Excited State   1:      Singlet-A      2.9408 eV  421.60 nm  f=3.7161  <S**2>=0.000
     155 ->158         0.19450
     156 ->157         0.67256
 This state for optimization and/or second-order correction.
 Total Energy, E(TD-HF/TD-DFT) =  -1706.87055398
 Copying the excited state density for this state as the 1-particle RhoCI density.

 The electronic state is 1-A.
 Alpha  occ. eigenvalues --  -19.20800 -19.19123 -10.30211 -10.28908 -10.27802
 Alpha  occ. eigenvalues --  -10.27482 -10.27363 -10.27149 -10.27047 -10.27038
 Alpha  occ. eigenvalues --  -10.26909 -10.26740 -10.26722 -10.26641 -10.26607
 Alpha  occ. eigenvalues --  -10.26606 -10.26558 -10.26524 -10.26392 -10.26340
 Alpha  occ. eigenvalues --  -10.26086 -10.25970 -10.25888 -10.25849 -10.25805
 Alpha  occ. eigenvalues --  -10.25709 -10.25648 -10.25531 -10.25527 -10.25466
 Alpha  occ. eigenvalues --  -10.25261 -10.25228 -10.25172 -10.25149 -10.25063
 Alpha  occ. eigenvalues --  -10.24919 -10.24687 -10.24470 -10.24112 -10.23220
 Alpha  occ. eigenvalues --  -10.23101 -10.23087  -1.12735  -1.07490  -0.94487
 Alpha  occ. eigenvalues --   -0.93487  -0.92219  -0.91338  -0.90577  -0.89486
 Alpha  occ. eigenvalues --   -0.88040  -0.87513  -0.87017  -0.85604  -0.84957
 Alpha  occ. eigenvalues --   -0.83269  -0.82100  -0.80889  -0.79920  -0.78101
 Alpha  occ. eigenvalues --   -0.77786  -0.76670  -0.76440  -0.76054  -0.76008
 Alpha  occ. eigenvalues --   -0.75835  -0.75329  -0.74515  -0.74086  -0.71178
 Alpha  occ. eigenvalues --   -0.68836  -0.67877  -0.66338  -0.65105  -0.64211
 Alpha  occ. eigenvalues --   -0.63888  -0.62865  -0.62189  -0.61293  -0.60017
 Alpha  occ. eigenvalues --   -0.59854  -0.59425  -0.58995  -0.57234  -0.56528
 Alpha  occ. eigenvalues --   -0.55811  -0.55521  -0.54725  -0.54431  -0.54029
 Alpha  occ. eigenvalues --   -0.53629  -0.52855  -0.52478  -0.52276  -0.51786
 Alpha  occ. eigenvalues --   -0.51023  -0.50520  -0.50230  -0.49918  -0.49801
 Alpha  occ. eigenvalues --   -0.49422  -0.48870  -0.48724  -0.48365  -0.48087
 Alpha  occ. eigenvalues --   -0.47703  -0.47624  -0.47071  -0.46998  -0.46820
 Alpha  occ. eigenvalues --   -0.46712  -0.46226  -0.45591  -0.45422  -0.45198
 Alpha  occ. eigenvalues --   -0.44569  -0.44408  -0.44355  -0.44270  -0.43980
 Alpha  occ. eigenvalues --   -0.43762  -0.43239  -0.42840  -0.42405  -0.42144
 Alpha  occ. eigenvalues --   -0.41959  -0.41739  -0.41485  -0.41100  -0.40948
 Alpha  occ. eigenvalues --   -0.40710  -0.40612  -0.40064  -0.39863  -0.39680
 Alpha  occ. eigenvalues --   -0.39232  -0.38974  -0.38355  -0.37911  -0.37617
 Alpha  occ. eigenvalues --   -0.37445  -0.36943  -0.36618  -0.36005  -0.35569
 Alpha  occ. eigenvalues --   -0.35220  -0.34626  -0.33653  -0.32372  -0.31735
 Alpha  occ. eigenvalues --   -0.31672  -0.29653  -0.28043  -0.26531  -0.23970
 Alpha  occ. eigenvalues --   -0.21289
 Alpha virt. eigenvalues --   -0.03763  -0.00154   0.03235   0.06013   0.08023
 Alpha virt. eigenvalues --    0.09304   0.10765   0.11013   0.11763   0.11994
 Alpha virt. eigenvalues --    0.12267   0.12954   0.13518   0.13778   0.13887

 Mulliken charges:
               1
     1  O   -0.593643
     2  O   -0.518152
     3  C   -0.027268
     4  C   -0.007707
     5  C   -0.154644
     6  C   -0.198849
     7  C    0.159319
     8  C    0.133329
     9  C    0.062740
    10  C    0.059929
    11  C   -0.201492
    12  C   -0.240393
    13  C    0.021336
    14  C    0.062243
    15  C   -0.296695
    16  C   -0.290744
    17  C   -0.288115
    18  C   -0.288942
    19  C   -0.130098
    20  C   -0.145298
    21  C   -0.341380
    22  C   -0.359311
    23  C   -0.093899
    24  C   -0.078943
    25  C    0.058571
    26  C    0.070273
    27  C   -0.360987
    28  C   -0.347046
    29  C   -0.119758
    30  C   -0.116275
    31  C   -0.088586
    32  C   -0.077541
    33  C   -0.111385
    34  C   -0.050239
    35  C    0.111894
    36  C    0.082691
    37  C   -0.357819
    38  C   -0.355268
    39  C   -0.153474
    40  C   -0.149964
    41  C   -0.076435
    42  C   -0.067730
    43  H    0.111522
    44  H    0.079685
    45  H    0.068991
    46  H    0.122542
    47  H    0.080430
    48  H    0.094358
    49  H    0.127458
    50  H    0.098684
    51  H    0.113858
    52  H    0.088881
    53  H    0.102851
    54  H    0.107139
    55  H    0.085653
    56  H    0.073233
    57  H    0.111389
    58  H    0.100999
    59  H    0.082401
    60  H    0.121782
    61  H    0.105917
    62  H    0.090543
    63  H    0.103789
    64  H    0.068793
    65  H    0.088685
    66  H    0.066564
    67  H    0.125336
    68  H    0.120548
    69  H    0.087765
    70  H    0.115067
    71  H    0.089886
    72  H    0.128968
    73  H    0.295223
    74  H    0.289729
    75  H    0.084688
    76  H    0.079228
    77  H    0.110140
    78  H    0.119485
    79  H    0.129713
    80  H    0.138373
    81  H    0.135326
    82  H    0.094410
    83  H    0.081117
    84  H    0.075748
    85  H    0.081515
    86  H    0.068170
    87  H    0.076940
    88  H    0.052739
    89  H    0.098085
    90  H    0.105864
    91  H    0.128842
    92  H    0.131226
    93  H    0.106753
    94  H    0.092995
    95  H    0.078374
    96  H    0.068272
    97  H    0.091918
    98  H    0.087169
 Sum of Mulliken charges =  -0.00000

 Dipole moment (field-independent basis, Debye):
    X=              0.0255    Y=             -1.5482    Z=              2.5664  Tot=              2.9974
 Quadrupole moment (field-independent basis, Debye-Ang):
   XX=           -281.9785   YY=           -241.7730   ZZ=           -261.0081
   XY=              9.6671   XZ=             -3.4721   YZ=              1.2961

 Normal termination of Gaussian 16 at Wed Jul  3 13:31:24 2019.
