 Gaussian 16, Revision A.03,
 Gaussian 16:  ES64L-G16RevA.03 25-Dec-2016

 -------------------------------------
 # td=(NStates=1) CAM-B3LYP/6-31G(d,p)
 -------------------------------------

 --
 TD
 --
 Symbolic Z-matrix:
 Charge =  0 Multiplicity = 1

                         Standard orientation:
 ---------------------------------------------------------------------
 Center     Atomic      Atomic             Coordinates (Angstroms)
 Number     Number       Type             X           Y           Z
 ---------------------------------------------------------------------
      1          8           0       14.611045   -2.248186   -0.350178
      2          8           0      -14.659005    2.020717    0.796785
      3          6           0       11.352316   -1.080762    1.249012
      4          6           0      -12.201588   -0.862060    1.004107
      5          6           0       12.867331   -1.483421    1.142233
      6          6           0      -13.537392   -0.062440    0.879580
      7          6           0       13.163632   -1.934423   -0.245481
      8          6           0      -13.378158    1.437567    0.744677
      9          6           0       10.879781   -0.370217    0.040921
     10          6           0      -11.266647   -0.286706   -0.112273
     11          6           0       12.906881   -0.870185   -1.247187
     12          6           0      -12.731719    1.635149   -0.670276
     13          6           0       11.589956   -0.334624   -1.102737
     14          6           0      -11.509288    0.758673   -0.806465
     15          6           0       11.226348   -0.198348    2.510376
     16          6           0       10.572128   -2.355792    1.454340
     17          6           0      -11.569183   -0.513293    2.386357
     18          6           0      -12.586950   -2.358158    0.893598
     19          6           0        9.623710    0.317751    0.182461
     20          6           0      -10.015964   -1.148206   -0.322657
     21          6           0       11.067515    0.319753   -2.329498
     22          6           0      -10.754240    1.198766   -2.075993
     23          6           0        9.341977    1.628294   -0.100890
     24          6           0       -8.782761   -0.580242   -0.373711
     25          6           0        8.027199    2.296538    0.237458
     26          6           0       -7.565576   -1.321395   -0.564521
     27          6           0        8.173538    3.753715    0.698900
     28          6           0       -7.716244   -2.834659   -0.679562
     29          6           0        6.905222    1.658563   -0.126551
     30          6           0       -6.379521   -0.624726   -0.499292
     31          6           0        5.569099    2.168755    0.065403
     32          6           0       -5.103355   -1.132099   -0.595612
     33          6           0        4.457327    1.381570   -0.202500
     34          6           0       -3.927153   -0.371836   -0.499571
     35          6           0        3.068404    1.763253    0.002424
     36          6           0       -2.630082   -0.785677   -0.742792
     37          6           0        2.709919    3.167689    0.547613
     38          6           0       -2.286263   -2.233877   -0.929625
     39          6           0        2.152458    0.745386   -0.220438
     40          6           0       -1.623634    0.101952   -0.429702
     41          6           0        0.661575    0.876277   -0.142421
     42          6           0       -0.153805   -0.065347   -0.513609
     43          1           0       13.481666   -0.586049    1.293971
     44          1           0       13.163066   -2.300933    1.983010
     45          1           0      -14.159832   -0.372044    1.749459
     46          1           0      -14.166622   -0.477992    0.085809
     47          1           0       12.490908   -2.867143   -0.579238
     48          1           0      -12.834663    1.755588    1.595813
     49          1           0       13.504652   -0.165545   -1.102853
     50          1           0       12.953485   -1.246119   -2.419575
     51          1           0      -13.430304    1.061111   -1.450388
     52          1           0      -12.605413    2.694621   -1.083655
     53          1           0       11.646336   -0.917245    3.256892
     54          1           0       10.256430   -0.121957    2.468667
     55          1           0       11.815395    0.933136    2.327493
     56          1           0       10.530770   -2.983161    0.558445
     57          1           0       10.880247   -2.976602    2.338013
     58          1           0        9.409813   -2.217477    1.669543
     59          1           0      -11.429900    0.450276    2.554481
     60          1           0      -10.574668   -1.270203    2.272258
     61          1           0      -12.262174   -0.717333    3.299761
     62          1           0      -13.603665   -2.714245    1.325221
     63          1           0      -11.709810   -3.068276    1.337988
     64          1           0      -12.653626   -2.611693   -0.116360
     65          1           0        8.788699   -0.378243    0.556457
     66          1           0       -9.957707   -2.323022   -0.129951
     67          1           0        9.912545    0.700981   -2.150281
     68          1           0       11.642135    1.202654   -2.585078
     69          1           0       11.073419   -0.278410   -3.104289
     70          1           0      -11.425023    1.195304   -2.924211
     71          1           0      -10.013594    0.438363   -2.236256
     72          1           0      -10.241980    2.297935   -1.944318
     73          1           0       14.856826   -3.119939    0.289808
     74          1           0      -15.010457    1.291101    1.560770
     75          1           0       10.215663    2.208835   -0.563855
     76          1           0       -8.677969    0.511401   -0.414977
     77          1           0        8.680793    4.335877   -0.093127
     78          1           0        7.226693    4.309920    0.690771
     79          1           0        8.568546    3.931942    1.630851
     80          1           0       -8.268561   -3.275724    0.138502
     81          1           0       -8.229390   -3.403949   -1.607828
     82          1           0       -6.646646   -3.384436   -0.506600
     83          1           0        7.037474    0.647750   -0.655571
     84          1           0       -6.315546    0.476347   -0.280449
     85          1           0        5.221815    3.263698    0.355796
     86          1           0       -5.059166   -2.055835   -0.884840
     87          1           0        4.573938    0.384234   -0.321891
     88          1           0       -4.326929    0.614710   -0.231930
     89          1           0        3.129507    3.275858    1.620523
     90          1           0        1.639615    3.438448    0.660092
     91          1           0        3.230469    3.888247   -0.172604
     92          1           0       -2.796873   -2.709038   -0.152904
     93          1           0       -2.519290   -2.496696   -1.874594
     94          1           0       -1.131856   -2.556500   -0.920199
     95          1           0        2.409579   -0.191930   -0.528931
     96          1           0       -2.180667    1.092944   -0.575166
     97          1           0        0.499954    1.895942    0.182687
     98          1           0        0.194822   -1.096692   -0.800611
 ---------------------------------------------------------------------

 SCF Done:  E(RCAM-B3LYP) =  -1706.93273140     A.U. after   14 cycles

 Excitation energies and oscillator strengths:

 Excited State   1:      Singlet-A      2.7110 eV  457.33 nm  f=3.6613  <S**2>=0.000
     155 ->158        -0.17060
     156 ->157         0.68219
 This state for optimization and/or second-order correction.
 Total Energy, E(TD-HF/TD-DFT) =  -1706.83310307
 Copying the excited state density for this state as the 1-particle RhoCI density.

 The electronic state is 1-A.
 Alpha  occ. eigenvalues --  -19.21476 -19.21402 -10.30854 -10.29999 -10.28193
 Alpha  occ. eigenvalues --  -10.28181 -10.27870 -10.27827 -10.27799 -10.27651
 Alpha  occ. eigenvalues --  -10.27394 -10.27059 -10.26963 -10.26944 -10.26858
 Alpha  occ. eigenvalues --  -10.26793 -10.26747 -10.26717 -10.26602 -10.26458
 Alpha  occ. eigenvalues --  -10.26432 -10.26321 -10.26278 -10.26169 -10.26015
 Alpha  occ. eigenvalues --  -10.25942 -10.25859 -10.25829 -10.25806 -10.25608
 Alpha  occ. eigenvalues --  -10.25581 -10.25535 -10.25473 -10.25463 -10.25448
 Alpha  occ. eigenvalues --  -10.25194 -10.25114 -10.24965 -10.24829 -10.24297
 Alpha  occ. eigenvalues --  -10.24259 -10.23860  -1.08155  -1.05066  -0.95036
 Alpha  occ. eigenvalues --   -0.93525  -0.92560  -0.91382  -0.90549  -0.89752
 Alpha  occ. eigenvalues --   -0.88618  -0.87371  -0.86826  -0.85607  -0.84977
 Alpha  occ. eigenvalues --   -0.82451  -0.81911  -0.80200  -0.78798  -0.78111
 Alpha  occ. eigenvalues --   -0.77075  -0.76788  -0.76392  -0.76161  -0.76024
 Alpha  occ. eigenvalues --   -0.75741  -0.75535  -0.74599  -0.74212  -0.70724
 Alpha  occ. eigenvalues --   -0.68542  -0.66842  -0.66060  -0.64551  -0.64206
 Alpha  occ. eigenvalues --   -0.63737  -0.62781  -0.62331  -0.61403  -0.60254
 Alpha  occ. eigenvalues --   -0.59213  -0.58369  -0.57940  -0.57151  -0.55591
 Alpha  occ. eigenvalues --   -0.55183  -0.54845  -0.54572  -0.54169  -0.53141
 Alpha  occ. eigenvalues --   -0.52745  -0.52641  -0.52122  -0.51659  -0.51527
 Alpha  occ. eigenvalues --   -0.50922  -0.50456  -0.49997  -0.49851  -0.48974
 Alpha  occ. eigenvalues --   -0.48947  -0.48718  -0.48503  -0.48123  -0.47820
 Alpha  occ. eigenvalues --   -0.47392  -0.47209  -0.46962  -0.46548  -0.46268
 Alpha  occ. eigenvalues --   -0.46228  -0.45789  -0.45567  -0.44965  -0.44869
 Alpha  occ. eigenvalues --   -0.44674  -0.44132  -0.44046  -0.43734  -0.43200
 Alpha  occ. eigenvalues --   -0.42989  -0.42677  -0.42515  -0.42279  -0.42152
 Alpha  occ. eigenvalues --   -0.41683  -0.41593  -0.41342  -0.40990  -0.40586
 Alpha  occ. eigenvalues --   -0.40524  -0.40198  -0.39916  -0.39837  -0.39778
 Alpha  occ. eigenvalues --   -0.39630  -0.39113  -0.38648  -0.38051  -0.37989
 Alpha  occ. eigenvalues --   -0.37853  -0.37684  -0.36669  -0.36004  -0.35538
 Alpha  occ. eigenvalues --   -0.35487  -0.34638  -0.33767  -0.32243  -0.31558
 Alpha  occ. eigenvalues --   -0.31425  -0.30535  -0.28385  -0.26957  -0.23852
 Alpha  occ. eigenvalues --   -0.20694
 Alpha virt. eigenvalues --   -0.04488  -0.00524   0.03564   0.05869   0.08396
 Alpha virt. eigenvalues --    0.09483   0.09951   0.10255   0.10520   0.11216
 Alpha virt. eigenvalues --    0.11293   0.12258   0.12874   0.12883   0.13480

 Mulliken charges:
               1
     1  O   -0.583391
     2  O   -0.558190
     3  C   -0.060710
     4  C   -0.007742
     5  C   -0.169067
     6  C   -0.257637
     7  C    0.165534
     8  C    0.204311
     9  C    0.093943
    10  C    0.072355
    11  C   -0.175322
    12  C   -0.222095
    13  C    0.041290
    14  C    0.050582
    15  C   -0.248888
    16  C   -0.304695
    17  C   -0.267061
    18  C   -0.308182
    19  C   -0.131889
    20  C   -0.174672
    21  C   -0.364355
    22  C   -0.348709
    23  C   -0.127656
    24  C   -0.071482
    25  C    0.074534
    26  C    0.116426
    27  C   -0.373599
    28  C   -0.385209
    29  C   -0.114301
    30  C   -0.126547
    31  C   -0.099030
    32  C   -0.062972
    33  C   -0.093739
    34  C   -0.107896
    35  C    0.097913
    36  C    0.076970
    37  C   -0.378364
    38  C   -0.360150
    39  C   -0.137443
    40  C   -0.119117
    41  C   -0.026193
    42  C   -0.114633
    43  H    0.106050
    44  H    0.066215
    45  H    0.069693
    46  H    0.107347
    47  H    0.064774
    48  H    0.087301
    49  H    0.127938
    50  H    0.083902
    51  H    0.107455
    52  H    0.106144
    53  H    0.094310
    54  H    0.116880
    55  H    0.071386
    56  H    0.113732
    57  H    0.098839
    58  H    0.081165
    59  H    0.116267
    60  H    0.083343
    61  H    0.078285
    62  H    0.100094
    63  H    0.077070
    64  H    0.122784
    65  H    0.085624
    66  H    0.078059
    67  H    0.096386
    68  H    0.109869
    69  H    0.116591
    70  H    0.115152
    71  H    0.122280
    72  H    0.088742
    73  H    0.297750
    74  H    0.296748
    75  H    0.097048
    76  H    0.092181
    77  H    0.120676
    78  H    0.108019
    79  H    0.135103
    80  H    0.132430
    81  H    0.112785
    82  H    0.088331
    83  H    0.098988
    84  H    0.075451
    85  H    0.084191
    86  H    0.057230
    87  H    0.079691
    88  H    0.077989
    89  H    0.124532
    90  H    0.119753
    91  H    0.120841
    92  H    0.132026
    93  H    0.135199
    94  H    0.088611
    95  H    0.070881
    96  H    0.082778
    97  H    0.074142
    98  H    0.090025
 Sum of Mulliken charges =  -0.00000

 Dipole moment (field-independent basis, Debye):
    X=              0.8142    Y=             -1.9004    Z=              1.0963  Tot=              2.3401
 Quadrupole moment (field-independent basis, Debye-Ang):
   XX=           -301.8741   YY=           -243.4172   ZZ=           -262.4899
   XY=             23.0351   XZ=              3.8471   YZ=             -0.7934

 Normal termination of Gaussian 16 at Fri Jun 28 10:33:59 2019.
