 Gaussian 16, Revision A.03,
 Gaussian 16:  ES64L-G16RevA.03 25-Dec-2016

 -------------------------------------
 # td=(NStates=1) CAM-B3LYP/6-31G(d,p)
 -------------------------------------

 --
 TD
 --
 Symbolic Z-matrix:
 Charge =  0 Multiplicity = 1

                         Standard orientation:
 ---------------------------------------------------------------------
 Center     Atomic      Atomic             Coordinates (Angstroms)
 Number     Number       Type             X           Y           Z
 ---------------------------------------------------------------------
      1          8           0       14.854330   -1.913095   -0.237735
      2          8           0      -14.787997    1.971351    0.810444
      3          6           0       11.438243   -1.012009    1.174704
      4          6           0      -12.317587   -0.908155    0.750514
      5          6           0       12.953181   -1.292626    1.129340
      6          6           0      -13.698612   -0.096341    0.728673
      7          6           0       13.460142   -1.901246   -0.224960
      8          6           0      -13.393841    1.454214    0.751265
      9          6           0       10.880916   -0.235762    0.008916
     10          6           0      -11.285990   -0.224318   -0.120365
     11          6           0       12.980891   -0.805261   -1.318606
     12          6           0      -12.779079    1.786911   -0.535196
     13          6           0       11.642999   -0.253723   -1.142611
     14          6           0      -11.533596    0.899929   -0.742976
     15          6           0       11.149824   -0.376893    2.565600
     16          6           0       10.680692   -2.418281    1.237175
     17          6           0      -11.729992   -0.764514    2.241449
     18          6           0      -12.551709   -2.443498    0.487737
     19          6           0        9.614888    0.315906    0.217547
     20          6           0      -10.112845   -1.097197   -0.492058
     21          6           0       11.169213    0.645452   -2.404419
     22          6           0      -10.503100    1.640164   -1.614889
     23          6           0        9.218755    1.509107   -0.123010
     24          6           0       -8.829611   -0.718641   -0.331426
     25          6           0        7.914102    2.234296    0.080279
     26          6           0       -7.554498   -1.402955   -0.648081
     27          6           0        7.928329    3.722218    0.473850
     28          6           0       -7.611025   -2.868572   -1.009289
     29          6           0        6.838639    1.568197   -0.129391
     30          6           0       -6.427917   -0.705076   -0.480312
     31          6           0        5.495537    1.871642    0.112876
     32          6           0       -5.028802   -1.314984   -0.607100
     33          6           0        4.365104    1.075781   -0.092435
     34          6           0       -3.989022   -0.404930   -0.273305
     35          6           0        3.093362    1.511223    0.091093
     36          6           0       -2.604641   -0.822197   -0.451285
     37          6           0        2.841580    2.972106    0.425912
     38          6           0       -2.348995   -2.181456   -0.872167
     39          6           0        2.096204    0.632268   -0.141797
     40          6           0       -1.644130    0.104685   -0.101371
     41          6           0        0.632825    0.976044    0.038627
     42          6           0       -0.226722   -0.037263   -0.277925
     43          1           0       13.561300   -0.423678    1.002849
     44          1           0       13.388203   -2.121758    2.046517
     45          1           0      -14.438065   -0.281189    1.599232
     46          1           0      -14.384230   -0.202592   -0.257836
     47          1           0       13.050030   -2.909750   -0.433432
     48          1           0      -12.823414    1.764187    1.635035
     49          1           0       13.894888    0.029557   -1.297579
     50          1           0       12.889526   -1.156289   -2.293474
     51          1           0      -13.507537    1.721438   -1.343487
     52          1           0      -12.572789    2.995460   -0.556447
     53          1           0       11.511821   -0.967283    3.505612
     54          1           0       10.067395   -0.149673    2.720310
     55          1           0       11.552245    0.574032    2.564402
     56          1           0       10.754833   -3.189997    0.416433
     57          1           0       11.137112   -2.821248    2.298153
     58          1           0        9.796827   -2.231586    1.160089
     59          1           0      -11.737421    0.272857    2.492698
     60          1           0      -10.664612   -1.274541    2.415061
     61          1           0      -12.433259   -1.290500    2.872762
     62          1           0      -13.600440   -2.587336    0.870833
     63          1           0      -11.685070   -2.978393    0.507853
     64          1           0      -12.719627   -2.693806   -0.495286
     65          1           0        8.955249   -0.524407    0.870006
     66          1           0      -10.272623   -2.128726   -0.691409
     67          1           0       10.108711    0.930601   -2.274004
     68          1           0       11.709951    1.667746   -2.483326
     69          1           0       11.262210    0.117363   -3.332960
     70          1           0      -10.858461    2.082025   -2.674497
     71          1           0       -9.568238    0.969563   -1.775897
     72          1           0      -10.270094    2.601289   -0.891424
     73          1           0       15.026736   -2.568188    0.335796
     74          1           0      -14.894288    1.712673    1.836074
     75          1           0        9.972909    2.120272   -0.601790
     76          1           0       -8.805892    0.349423    0.139051
     77          1           0        8.513311    4.037710   -0.427559
     78          1           0        6.971680    4.153104    0.771163
     79          1           0        8.709143    3.748415    1.269694
     80          1           0       -8.436833   -3.406317   -0.453864
     81          1           0       -8.063178   -3.014938   -1.946965
     82          1           0       -6.730844   -3.357297   -0.916857
     83          1           0        6.809697    0.584799   -0.502698
     84          1           0       -6.318695    0.304229   -0.215753
     85          1           0        5.422767    2.910647    0.527967
     86          1           0       -4.848538   -2.335488   -0.746290
     87          1           0        4.598972    0.109177   -0.445794
     88          1           0       -4.183375    0.590880    0.157999
     89          1           0        3.289140    3.111746    1.436012
     90          1           0        1.774938    3.138550    0.401116
     91          1           0        3.536615    3.760956   -0.099050
     92          1           0       -2.917775   -3.105688   -0.184589
     93          1           0       -2.905766   -2.250661   -1.839906
     94          1           0       -1.250582   -2.363178   -0.958049
     95          1           0        2.312361   -0.369030   -0.332623
     96          1           0       -2.040608    1.103643    0.063232
     97          1           0        0.259332    1.871523    0.337720
     98          1           0        0.221414   -0.901859   -0.645994
 ---------------------------------------------------------------------

 SCF Done:  E(RCAM-B3LYP) =  -1706.94224157     A.U. after   14 cycles

 Excitation energies and oscillator strengths:

 Excited State   1:      Singlet-A      2.8067 eV  441.75 nm  f=3.6057  <S**2>=0.000
     155 ->158        -0.16226
     156 ->157         0.68376
 This state for optimization and/or second-order correction.
 Total Energy, E(TD-HF/TD-DFT) =  -1706.83909775
 Copying the excited state density for this state as the 1-particle RhoCI density.

 The electronic state is 1-A.
 Alpha  occ. eigenvalues --  -19.21417 -19.21174 -10.31065 -10.30372 -10.28072
 Alpha  occ. eigenvalues --  -10.27797 -10.27549 -10.27307 -10.27271 -10.27147
 Alpha  occ. eigenvalues --  -10.27079 -10.27024 -10.26998 -10.26944 -10.26926
 Alpha  occ. eigenvalues --  -10.26905 -10.26877 -10.26611 -10.26485 -10.26463
 Alpha  occ. eigenvalues --  -10.26338 -10.26317 -10.26304 -10.26286 -10.26272
 Alpha  occ. eigenvalues --  -10.26247 -10.26204 -10.26090 -10.25992 -10.25964
 Alpha  occ. eigenvalues --  -10.25950 -10.25795 -10.25734 -10.25698 -10.25632
 Alpha  occ. eigenvalues --  -10.25345 -10.25063 -10.25044 -10.24692 -10.24328
 Alpha  occ. eigenvalues --  -10.23866 -10.23551  -1.12793  -1.06597  -0.94034
 Alpha  occ. eigenvalues --   -0.93143  -0.92758  -0.91911  -0.90950  -0.90129
 Alpha  occ. eigenvalues --   -0.87353  -0.86250  -0.86054  -0.85803  -0.84839
 Alpha  occ. eigenvalues --   -0.82764  -0.81643  -0.79965  -0.79415  -0.78051
 Alpha  occ. eigenvalues --   -0.77252  -0.77073  -0.76753  -0.76587  -0.76212
 Alpha  occ. eigenvalues --   -0.74920  -0.74662  -0.74335  -0.73388  -0.70851
 Alpha  occ. eigenvalues --   -0.69124  -0.67054  -0.65581  -0.64835  -0.64275
 Alpha  occ. eigenvalues --   -0.63889  -0.63133  -0.62723  -0.61233  -0.60702
 Alpha  occ. eigenvalues --   -0.59863  -0.59557  -0.58384  -0.57830  -0.56970
 Alpha  occ. eigenvalues --   -0.55925  -0.55190  -0.54859  -0.54296  -0.54061
 Alpha  occ. eigenvalues --   -0.53783  -0.52473  -0.52016  -0.51137  -0.50988
 Alpha  occ. eigenvalues --   -0.50407  -0.50080  -0.49660  -0.48847  -0.48764
 Alpha  occ. eigenvalues --   -0.48289  -0.48259  -0.48179  -0.47820  -0.47652
 Alpha  occ. eigenvalues --   -0.47381  -0.47119  -0.46787  -0.46491  -0.46000
 Alpha  occ. eigenvalues --   -0.45780  -0.45686  -0.45393  -0.45271  -0.45005
 Alpha  occ. eigenvalues --   -0.44928  -0.44767  -0.44466  -0.44145  -0.43889
 Alpha  occ. eigenvalues --   -0.43609  -0.43437  -0.43156  -0.42290  -0.42210
 Alpha  occ. eigenvalues --   -0.42076  -0.41773  -0.41446  -0.41342  -0.40974
 Alpha  occ. eigenvalues --   -0.40588  -0.40472  -0.39545  -0.39409  -0.39247
 Alpha  occ. eigenvalues --   -0.39140  -0.38823  -0.38734  -0.38517  -0.38238
 Alpha  occ. eigenvalues --   -0.38165  -0.37579  -0.37188  -0.36801  -0.35903
 Alpha  occ. eigenvalues --   -0.35309  -0.34482  -0.33539  -0.32511  -0.31825
 Alpha  occ. eigenvalues --   -0.30956  -0.30159  -0.27892  -0.26521  -0.24331
 Alpha  occ. eigenvalues --   -0.20853
 Alpha virt. eigenvalues --   -0.04090   0.00050   0.02986   0.04986   0.08188
 Alpha virt. eigenvalues --    0.09543   0.10086   0.10446   0.11474   0.11928
 Alpha virt. eigenvalues --    0.12544   0.12796   0.13108   0.13622   0.13767

 Mulliken charges:
               1
     1  O   -0.512950
     2  O   -0.558648
     3  C   -0.045724
     4  C   -0.031883
     5  C   -0.159761
     6  C   -0.185529
     7  C    0.125479
     8  C    0.122330
     9  C    0.077091
    10  C    0.071453
    11  C   -0.216455
    12  C   -0.204529
    13  C    0.037267
    14  C    0.064212
    15  C   -0.299729
    16  C   -0.255541
    17  C   -0.295458
    18  C   -0.318048
    19  C   -0.074721
    20  C   -0.135525
    21  C   -0.367218
    22  C   -0.342043
    23  C   -0.145080
    24  C   -0.110620
    25  C    0.032333
    26  C    0.110307
    27  C   -0.354214
    28  C   -0.372794
    29  C   -0.059393
    30  C   -0.114123
    31  C   -0.098810
    32  C   -0.111677
    33  C   -0.121147
    34  C   -0.120052
    35  C    0.156656
    36  C    0.140797
    37  C   -0.365386
    38  C   -0.369690
    39  C   -0.153880
    40  C   -0.141888
    41  C   -0.075787
    42  C   -0.077390
    43  H    0.115467
    44  H    0.034432
    45  H    0.066042
    46  H    0.100330
    47  H    0.080812
    48  H    0.097882
    49  H    0.106217
    50  H    0.112060
    51  H    0.129907
    52  H    0.081016
    53  H    0.093490
    54  H    0.097645
    55  H    0.113523
    56  H    0.085923
    57  H    0.078006
    58  H    0.098735
    59  H    0.097763
    60  H    0.096993
    61  H    0.099664
    62  H    0.111339
    63  H    0.109756
    64  H    0.109524
    65  H    0.083152
    66  H    0.069206
    67  H    0.117537
    68  H    0.104336
    69  H    0.107027
    70  H    0.094067
    71  H    0.115241
    72  H    0.088180
    73  H    0.293929
    74  H    0.301246
    75  H    0.091078
    76  H    0.088214
    77  H    0.127408
    78  H    0.125372
    79  H    0.123966
    80  H    0.106637
    81  H    0.132794
    82  H    0.117716
    83  H    0.062809
    84  H    0.085893
    85  H    0.042704
    86  H    0.091799
    87  H    0.079524
    88  H    0.092318
    89  H    0.122338
    90  H    0.106830
    91  H    0.113586
    92  H    0.088564
    93  H    0.128945
    94  H    0.107625
    95  H    0.084309
    96  H    0.080764
    97  H    0.084917
    98  H    0.081213
 Sum of Mulliken charges =  -0.00000

 Dipole moment (field-independent basis, Debye):
    X=              1.3379    Y=             -1.4713    Z=              1.3691  Tot=              2.4144
 Quadrupole moment (field-independent basis, Debye-Ang):
   XX=           -307.6397   YY=           -245.0682   ZZ=           -261.1757
   XY=             12.4809   XZ=             -3.8897   YZ=              5.1920

 Normal termination of Gaussian 16 at Wed Jul  3 09:29:56 2019.
