 Gaussian 16, Revision A.03,
 Gaussian 16:  ES64L-G16RevA.03 25-Dec-2016

 -------------------------------------
 # td=(NStates=1) CAM-B3LYP/6-31G(d,p)
 -------------------------------------

 --
 TD
 --
 Symbolic Z-matrix:
 Charge =  0 Multiplicity = 1

                         Standard orientation:
 ---------------------------------------------------------------------
 Center     Atomic      Atomic             Coordinates (Angstroms)
 Number     Number       Type             X           Y           Z
 ---------------------------------------------------------------------
      1          8           0       14.786106   -2.102330   -0.534331
      2          8           0      -14.894535    1.848568    0.805485
      3          6           0       11.488078   -1.264105    1.193759
      4          6           0      -12.366458   -0.961250    0.754409
      5          6           0       12.980343   -1.500929    1.034490
      6          6           0      -13.719965   -0.230123    0.838620
      7          6           0       13.381314   -1.801437   -0.397177
      8          6           0      -13.520550    1.314382    0.750162
      9          6           0       10.937406   -0.343044    0.037894
     10          6           0      -11.324050   -0.249181   -0.170240
     11          6           0       12.969883   -0.706783   -1.312153
     12          6           0      -12.870478    1.635175   -0.575570
     13          6           0       11.582273   -0.216068   -1.081850
     14          6           0      -11.542621    0.967122   -0.703573
     15          6           0       11.354752   -0.553885    2.528309
     16          6           0       10.708803   -2.653873    1.286147
     17          6           0      -11.792007   -1.084361    2.218724
     18          6           0      -12.571831   -2.359699    0.230002
     19          6           0        9.658464    0.261396    0.268956
     20          6           0      -10.182965   -0.969616   -0.430450
     21          6           0       11.237910    0.691394   -2.403421
     22          6           0      -10.576476    1.714558   -1.688506
     23          6           0        9.395286    1.610781   -0.055361
     24          6           0       -8.917432   -0.516185   -0.282585
     25          6           0        8.047011    2.190879    0.196545
     26          6           0       -7.612128   -1.288942   -0.518986
     27          6           0        8.078320    3.708090    0.581219
     28          6           0       -7.696717   -2.791119   -0.792645
     29          6           0        6.896246    1.498165    0.098662
     30          6           0       -6.447521   -0.705322   -0.413763
     31          6           0        5.489077    2.085836    0.204741
     32          6           0       -5.111848   -1.098965   -0.619544
     33          6           0        4.452657    1.298963   -0.039851
     34          6           0       -3.999915   -0.342320   -0.406363
     35          6           0        3.035693    1.688101    0.176848
     36          6           0       -2.610641   -0.766079   -0.545711
     37          6           0        2.777312    3.088006    0.754658
     38          6           0       -2.327602   -2.097052   -1.024080
     39          6           0        2.094854    0.766883   -0.251232
     40          6           0       -1.703372    0.169302   -0.181890
     41          6           0        0.680993    0.934117   -0.112691
     42          6           0       -0.228636    0.092805   -0.400012
     43          1           0       13.591080   -0.577206    1.402045
     44          1           0       13.469495   -2.299708    1.631423
     45          1           0      -14.022841   -0.539794    1.938165
     46          1           0      -14.556698   -0.543982    0.177489
     47          1           0       12.791761   -2.528620   -0.602937
     48          1           0      -12.676805    1.818445    1.506130
     49          1           0       13.760554    0.081970   -1.275744
     50          1           0       13.154708   -0.941488   -2.375345
     51          1           0      -13.428217    1.594192   -1.457159
     52          1           0      -12.643599    2.629844   -0.657218
     53          1           0       11.990064   -1.300187    3.293976
     54          1           0       10.276336   -0.476469    3.008645
     55          1           0       11.711069    0.423390    2.405792
     56          1           0       10.768796   -3.236942    0.518951
     57          1           0       10.954085   -3.066686    2.097486
     58          1           0        9.745568   -2.114710    1.166239
     59          1           0      -11.927670   -0.094347    2.589487
     60          1           0      -10.697354   -1.247536    2.407475
     61          1           0      -12.310450   -1.729868    2.866571
     62          1           0      -13.386985   -3.003859    0.792685
     63          1           0      -11.636428   -3.058283    0.351674
     64          1           0      -12.999187   -2.378691   -0.762498
     65          1           0        8.819914   -0.450292    0.684342
     66          1           0      -10.287452   -1.951245   -0.878323
     67          1           0       10.167370    1.027557   -2.410103
     68          1           0       12.238486    1.413389   -2.533041
     69          1           0       11.357779   -0.041027   -3.261027
     70          1           0      -11.198846    2.106247   -2.577427
     71          1           0       -9.727788    1.035714   -2.042221
     72          1           0      -10.029113    2.491482   -0.979082
     73          1           0       15.336602   -2.783524    0.086471
     74          1           0      -15.165404    1.357628    1.635269
     75          1           0       10.133582    2.468520    0.023042
     76          1           0       -8.755245    0.528635    0.175645
     77          1           0        8.693856    4.449780   -0.101958
     78          1           0        7.291621    4.153790    0.674939
     79          1           0        8.659803    3.740409    1.771590
     80          1           0       -7.966681   -3.569697    0.251221
     81          1           0       -8.476831   -2.930812   -1.483770
     82          1           0       -6.749244   -3.257665   -1.267364
     83          1           0        6.718129    0.361565   -0.194521
     84          1           0       -6.489307    0.359624    0.050024
     85          1           0        5.353271    3.155593    0.199211
     86          1           0       -4.945160   -2.252241   -0.771355
     87          1           0        4.642748    0.227951   -0.319872
     88          1           0       -4.066263    0.794041   -0.178648
     89          1           0        3.435165    3.357180    1.509292
     90          1           0        1.630680    3.217995    0.644300
     91          1           0        3.374956    3.900567    0.035179
     92          1           0       -2.690880   -2.949432   -0.381144
     93          1           0       -2.929005   -2.373842   -1.831175
     94          1           0       -1.142783   -2.438314   -1.104177
     95          1           0        2.583316   -0.245326   -0.628369
     96          1           0       -1.946045    1.340796    0.185047
     97          1           0        0.346678    2.008661    0.059280
     98          1           0       -0.018522   -0.926793   -0.712766
 ---------------------------------------------------------------------

 SCF Done:  E(RCAM-B3LYP) =  -1706.86799313     A.U. after   13 cycles

 Excitation energies and oscillator strengths:

 Excited State   1:      Singlet-A      3.0839 eV  402.03 nm  f=3.5781  <S**2>=0.000
     155 ->158        -0.21813
     156 ->157         0.66055
 This state for optimization and/or second-order correction.
 Total Energy, E(TD-HF/TD-DFT) =  -1706.75466055
 Copying the excited state density for this state as the 1-particle RhoCI density.

 The electronic state is 1-A.
 Alpha  occ. eigenvalues --  -19.21798 -19.20744 -10.32381 -10.28332 -10.28128
 Alpha  occ. eigenvalues --  -10.28087 -10.28028 -10.27974 -10.27820 -10.27690
 Alpha  occ. eigenvalues --  -10.27681 -10.27664 -10.27607 -10.27428 -10.27418
 Alpha  occ. eigenvalues --  -10.27339 -10.27304 -10.27271 -10.27150 -10.27148
 Alpha  occ. eigenvalues --  -10.27094 -10.27021 -10.26963 -10.26958 -10.26877
 Alpha  occ. eigenvalues --  -10.26799 -10.26660 -10.26171 -10.26149 -10.26023
 Alpha  occ. eigenvalues --  -10.26011 -10.25768 -10.25749 -10.25530 -10.25493
 Alpha  occ. eigenvalues --  -10.25239 -10.25177 -10.24810 -10.24652 -10.24121
 Alpha  occ. eigenvalues --  -10.23808 -10.22374  -1.08045  -1.05738  -0.94050
 Alpha  occ. eigenvalues --   -0.93913  -0.92419  -0.91276  -0.90184  -0.89381
 Alpha  occ. eigenvalues --   -0.87600  -0.87332  -0.86963  -0.86285  -0.85099
 Alpha  occ. eigenvalues --   -0.82930  -0.81915  -0.79529  -0.79033  -0.78299
 Alpha  occ. eigenvalues --   -0.77704  -0.76471  -0.76346  -0.76113  -0.75573
 Alpha  occ. eigenvalues --   -0.75293  -0.75078  -0.74269  -0.74123  -0.70381
 Alpha  occ. eigenvalues --   -0.68984  -0.67105  -0.65854  -0.65362  -0.64317
 Alpha  occ. eigenvalues --   -0.63563  -0.62812  -0.61024  -0.60293  -0.59660
 Alpha  occ. eigenvalues --   -0.58741  -0.58543  -0.57615  -0.57182  -0.56290
 Alpha  occ. eigenvalues --   -0.55687  -0.54816  -0.54547  -0.54473  -0.53544
 Alpha  occ. eigenvalues --   -0.53393  -0.52137  -0.51558  -0.51502  -0.51178
 Alpha  occ. eigenvalues --   -0.50555  -0.50326  -0.50249  -0.50003  -0.49607
 Alpha  occ. eigenvalues --   -0.49139  -0.48500  -0.48436  -0.47753  -0.47331
 Alpha  occ. eigenvalues --   -0.47057  -0.46727  -0.46434  -0.46007  -0.45950
 Alpha  occ. eigenvalues --   -0.45662  -0.45482  -0.45182  -0.45048  -0.44805
 Alpha  occ. eigenvalues --   -0.44582  -0.44239  -0.43698  -0.43285  -0.43034
 Alpha  occ. eigenvalues --   -0.42800  -0.42672  -0.42312  -0.42279  -0.41897
 Alpha  occ. eigenvalues --   -0.41602  -0.41388  -0.41147  -0.41134  -0.40799
 Alpha  occ. eigenvalues --   -0.40224  -0.39913  -0.39848  -0.39529  -0.39467
 Alpha  occ. eigenvalues --   -0.39301  -0.38814  -0.38683  -0.37629  -0.37282
 Alpha  occ. eigenvalues --   -0.37083  -0.36787  -0.36773  -0.35949  -0.35822
 Alpha  occ. eigenvalues --   -0.34919  -0.34134  -0.33459  -0.32396  -0.32210
 Alpha  occ. eigenvalues --   -0.31451  -0.30363  -0.28736  -0.26756  -0.24245
 Alpha  occ. eigenvalues --   -0.21855
 Alpha virt. eigenvalues --   -0.03462  -0.00465   0.02508   0.05691   0.07993
 Alpha virt. eigenvalues --    0.09168   0.10109   0.10516   0.10848   0.11130
 Alpha virt. eigenvalues --    0.11688   0.12378   0.12609   0.12683   0.13035

 Mulliken charges:
               1
     1  O   -0.617010
     2  O   -0.559698
     3  C   -0.045351
     4  C    0.011609
     5  C   -0.189807
     6  C   -0.219725
     7  C    0.223602
     8  C    0.157360
     9  C    0.053948
    10  C    0.078124
    11  C   -0.228597
    12  C   -0.209900
    13  C    0.049026
    14  C    0.017358
    15  C   -0.277540
    16  C   -0.262594
    17  C   -0.321980
    18  C   -0.311409
    19  C   -0.125105
    20  C   -0.127555
    21  C   -0.342433
    22  C   -0.350409
    23  C   -0.119137
    24  C   -0.109617
    25  C    0.064765
    26  C    0.102532
    27  C   -0.318849
    28  C   -0.348169
    29  C   -0.122563
    30  C   -0.115206
    31  C   -0.094852
    32  C   -0.099099
    33  C   -0.105473
    34  C   -0.106022
    35  C    0.116441
    36  C    0.167602
    37  C   -0.358724
    38  C   -0.396425
    39  C   -0.129689
    40  C   -0.151474
    41  C   -0.082340
    42  C   -0.065297
    43  H    0.077517
    44  H    0.070012
    45  H    0.075927
    46  H    0.122181
    47  H    0.086382
    48  H    0.073329
    49  H    0.115516
    50  H    0.101293
    51  H    0.122849
    52  H    0.113557
    53  H    0.071465
    54  H    0.085428
    55  H    0.119560
    56  H    0.109243
    57  H    0.106649
    58  H    0.086216
    59  H    0.100848
    60  H    0.109142
    61  H    0.109926
    62  H    0.078129
    63  H    0.097316
    64  H    0.107953
    65  H    0.106393
    66  H    0.099003
    67  H    0.124945
    68  H    0.101852
    69  H    0.107833
    70  H    0.105108
    71  H    0.123127
    72  H    0.107774
    73  H    0.315466
    74  H    0.309344
    75  H    0.105292
    76  H    0.080046
    77  H    0.102043
    78  H    0.115167
    79  H    0.070822
    80  H    0.076639
    81  H    0.123088
    82  H    0.102867
    83  H    0.080133
    84  H    0.066797
    85  H    0.079603
    86  H    0.069672
    87  H    0.077400
    88  H    0.086435
    89  H    0.145053
    90  H    0.112507
    91  H    0.086341
    92  H    0.123151
    93  H    0.137132
    94  H    0.101865
    95  H    0.081562
    96  H    0.065719
    97  H    0.074428
    98  H    0.064635
 Sum of Mulliken charges =  -0.00000

 Dipole moment (field-independent basis, Debye):
    X=              0.4729    Y=             -1.7937    Z=              1.2112  Tot=              2.2154
 Quadrupole moment (field-independent basis, Debye-Ang):
   XX=           -275.6576   YY=           -244.4701   ZZ=           -263.4292
   XY=             12.5245   XZ=              4.7358   YZ=              0.4097

 Normal termination of Gaussian 16 at Fri Jun 28 22:23:05 2019.
