 Gaussian 16, Revision A.03,
 Gaussian 16:  ES64L-G16RevA.03 25-Dec-2016

 -------------------------------------
 # td=(NStates=1) CAM-B3LYP/6-31G(d,p)
 -------------------------------------

 --
 TD
 --
 Symbolic Z-matrix:
 Charge =  0 Multiplicity = 1

                         Standard orientation:
 ---------------------------------------------------------------------
 Center     Atomic      Atomic             Coordinates (Angstroms)
 Number     Number       Type             X           Y           Z
 ---------------------------------------------------------------------
      1          8           0       14.735679   -2.151362   -0.657667
      2          8           0      -14.906135    1.855582    0.602818
      3          6           0       11.404383   -1.139313    1.191038
      4          6           0      -12.231120   -0.865237    0.837069
      5          6           0       12.968730   -1.389296    0.928039
      6          6           0      -13.671436   -0.296085    0.709649
      7          6           0       13.273409   -1.898082   -0.456504
      8          6           0      -13.672946    1.277442    0.616236
      9          6           0       10.919204   -0.377857    0.070673
     10          6           0      -11.354027   -0.256086   -0.185779
     11          6           0       12.878578   -0.895568   -1.366764
     12          6           0      -12.899475    1.683239   -0.591761
     13          6           0       11.574279   -0.266240   -1.126337
     14          6           0      -11.615482    0.845564   -0.827117
     15          6           0       11.331623   -0.336038    2.506689
     16          6           0       10.676910   -2.458728    1.339677
     17          6           0      -11.705129   -0.881080    2.217390
     18          6           0      -12.437315   -2.368976    0.573683
     19          6           0        9.619538    0.352876    0.332317
     20          6           0      -10.125801   -1.076036   -0.396846
     21          6           0       11.154540    0.545370   -2.392791
     22          6           0      -10.576327    1.636814   -1.809634
     23          6           0        9.362379    1.669101    0.114743
     24          6           0       -8.926743   -0.512420   -0.275304
     25          6           0        8.111612    2.253633    0.158490
     26          6           0       -7.619573   -1.259642   -0.499288
     27          6           0        8.158956    3.735650    0.489280
     28          6           0       -7.646767   -2.725082   -1.016106
     29          6           0        6.929815    1.490334    0.055306
     30          6           0       -6.502343   -0.532571   -0.298806
     31          6           0        5.571994    1.951991    0.168095
     32          6           0       -5.076200   -1.145420   -0.538350
     33          6           0        4.458169    1.218684    0.110705
     34          6           0       -4.029153   -0.332586   -0.238535
     35          6           0        3.117600    1.696998    0.178903
     36          6           0       -2.626083   -0.792593   -0.387083
     37          6           0        2.855439    3.108499    0.509596
     38          6           0       -2.340344   -2.197606   -0.736946
     39          6           0        2.115146    0.774991   -0.075534
     40          6           0       -1.626837    0.073601   -0.128463
     41          6           0        0.735516    0.861337   -0.017189
     42          6           0       -0.210052   -0.059797   -0.203701
     43          1           0       13.422078   -0.485527    1.210043
     44          1           0       13.084764   -2.166124    1.678293
     45          1           0      -14.204515   -0.702858    1.476992
     46          1           0      -14.400340   -0.485798   -0.227288
     47          1           0       12.863814   -2.868257   -0.662949
     48          1           0      -13.311490    1.706022    1.722502
     49          1           0       13.666641   -0.119278   -1.474423
     50          1           0       13.042150   -1.308240   -2.444027
     51          1           0      -13.703587    1.425156   -1.467963
     52          1           0      -12.658941    2.807726   -0.647695
     53          1           0       11.950815   -0.969860    3.266020
     54          1           0       10.433008   -0.065320    2.668558
     55          1           0       11.993624    0.543459    2.456718
     56          1           0       10.843736   -3.069599    0.540875
     57          1           0       10.950919   -2.987233    2.311685
     58          1           0        9.597846   -2.219687    1.435339
     59          1           0      -11.737525    0.145336    2.767702
     60          1           0      -10.676103   -1.180360    2.308853
     61          1           0      -12.291188   -1.420254    2.782570
     62          1           0      -13.185098   -2.846099    1.211964
     63          1           0      -11.392652   -3.046552    0.694136
     64          1           0      -12.753561   -2.514260   -0.572614
     65          1           0        8.784926   -0.287907    0.939736
     66          1           0      -10.336051   -1.994319   -1.032554
     67          1           0       10.096958    0.882246   -2.456001
     68          1           0       11.596794    1.476884   -2.627689
     69          1           0       11.362678   -0.006240   -3.413038
     70          1           0      -11.012721    2.148584   -2.655143
     71          1           0       -9.928673    0.898619   -2.276973
     72          1           0      -10.066600    2.370013   -1.421180
     73          1           0       14.965566   -2.662331    0.057544
     74          1           0      -15.367787    1.673762    1.380319
     75          1           0       10.164283    2.343171   -0.428658
     76          1           0       -8.899919    0.501684    0.169645
     77          1           0        9.238711    4.298437   -0.007519
     78          1           0        7.195098    4.258938    0.183017
     79          1           0        8.308980    3.763672    1.548696
     80          1           0       -8.240427   -3.362431   -0.210808
     81          1           0       -8.194927   -3.001208   -1.983599
     82          1           0       -6.713625   -3.276208   -1.071665
     83          1           0        6.823668    0.417051   -0.334452
     84          1           0       -6.486952    0.527794    0.176648
     85          1           0        5.599915    3.023099    0.313956
     86          1           0       -4.832454   -2.141427   -0.735471
     87          1           0        4.555824    0.288478   -0.205294
     88          1           0       -4.009114    0.806652   -0.282958
     89          1           0        3.530314    3.608199    1.222145
     90          1           0        1.814140    3.077700    0.843206
     91          1           0        3.188489    3.615544   -0.421704
     92          1           0       -2.503945   -2.811506    0.229273
     93          1           0       -2.984865   -2.500394   -1.556761
     94          1           0       -1.202085   -2.287634   -1.244194
     95          1           0        2.608075   -0.305486   -0.384360
     96          1           0       -1.758740    1.146300    0.188302
     97          1           0        0.425981    1.951999    0.291929
     98          1           0        0.159745   -0.930618   -0.623324
 ---------------------------------------------------------------------

 SCF Done:  E(RCAM-B3LYP) =  -1706.97651982     A.U. after   14 cycles

 Excitation energies and oscillator strengths:

 Excited State   1:      Singlet-A      2.7076 eV  457.91 nm  f=3.3649  <S**2>=0.000
     155 ->158        -0.16307
     156 ->157         0.68327
 This state for optimization and/or second-order correction.
 Total Energy, E(TD-HF/TD-DFT) =  -1706.87701656
 Copying the excited state density for this state as the 1-particle RhoCI density.

 The electronic state is 1-A.
 Alpha  occ. eigenvalues --  -19.20473 -19.19765 -10.31165 -10.29628 -10.28136
 Alpha  occ. eigenvalues --  -10.28111 -10.27745 -10.27736 -10.27692 -10.27666
 Alpha  occ. eigenvalues --  -10.27449 -10.27387 -10.27295 -10.26994 -10.26942
 Alpha  occ. eigenvalues --  -10.26909 -10.26839 -10.26810 -10.26801 -10.26700
 Alpha  occ. eigenvalues --  -10.26671 -10.26670 -10.26667 -10.26544 -10.26333
 Alpha  occ. eigenvalues --  -10.26298 -10.26286 -10.25862 -10.25795 -10.25721
 Alpha  occ. eigenvalues --  -10.25647 -10.25474 -10.25245 -10.25037 -10.24884
 Alpha  occ. eigenvalues --  -10.24734 -10.24730 -10.24631 -10.24588 -10.24127
 Alpha  occ. eigenvalues --  -10.23632 -10.23402  -1.11897  -1.08373  -0.94986
 Alpha  occ. eigenvalues --   -0.94020  -0.92661  -0.91598  -0.90817  -0.89387
 Alpha  occ. eigenvalues --   -0.88057  -0.87687  -0.86548  -0.85366  -0.84601
 Alpha  occ. eigenvalues --   -0.83644  -0.81822  -0.79943  -0.79483  -0.78256
 Alpha  occ. eigenvalues --   -0.77569  -0.76819  -0.76580  -0.76482  -0.76039
 Alpha  occ. eigenvalues --   -0.75949  -0.75585  -0.73975  -0.73892  -0.70630
 Alpha  occ. eigenvalues --   -0.69053  -0.67798  -0.66138  -0.64910  -0.64816
 Alpha  occ. eigenvalues --   -0.64350  -0.62674  -0.61557  -0.60493  -0.59926
 Alpha  occ. eigenvalues --   -0.59448  -0.58464  -0.57588  -0.57104  -0.56535
 Alpha  occ. eigenvalues --   -0.56117  -0.55594  -0.55076  -0.54015  -0.53469
 Alpha  occ. eigenvalues --   -0.53076  -0.52698  -0.52477  -0.51684  -0.51395
 Alpha  occ. eigenvalues --   -0.50914  -0.50432  -0.50220  -0.49620  -0.49323
 Alpha  occ. eigenvalues --   -0.48989  -0.48917  -0.48746  -0.48319  -0.48151
 Alpha  occ. eigenvalues --   -0.47710  -0.47465  -0.46909  -0.46778  -0.46524
 Alpha  occ. eigenvalues --   -0.46056  -0.45893  -0.45390  -0.45166  -0.44709
 Alpha  occ. eigenvalues --   -0.44506  -0.44073  -0.44035  -0.43200  -0.43112
 Alpha  occ. eigenvalues --   -0.42996  -0.42793  -0.42574  -0.42263  -0.42055
 Alpha  occ. eigenvalues --   -0.41842  -0.41410  -0.41238  -0.40866  -0.40676
 Alpha  occ. eigenvalues --   -0.40589  -0.40323  -0.39974  -0.39805  -0.39722
 Alpha  occ. eigenvalues --   -0.39541  -0.39209  -0.38628  -0.37814  -0.37500
 Alpha  occ. eigenvalues --   -0.37459  -0.37202  -0.37000  -0.36138  -0.35794
 Alpha  occ. eigenvalues --   -0.35009  -0.34575  -0.33998  -0.32362  -0.31921
 Alpha  occ. eigenvalues --   -0.29922  -0.29557  -0.28804  -0.27096  -0.24767
 Alpha  occ. eigenvalues --   -0.20844
 Alpha virt. eigenvalues --   -0.04494  -0.00200   0.02950   0.06174   0.08015
 Alpha virt. eigenvalues --    0.09048   0.10313   0.11171   0.12054   0.12197
 Alpha virt. eigenvalues --    0.12298   0.12687   0.12977   0.13306   0.13770

 Mulliken charges:
               1
     1  O   -0.571858
     2  O   -0.534953
     3  C   -0.068404
     4  C   -0.012816
     5  C   -0.207684
     6  C   -0.187002
     7  C    0.158149
     8  C    0.181861
     9  C    0.079385
    10  C    0.055614
    11  C   -0.228544
    12  C   -0.208481
    13  C    0.077542
    14  C    0.040706
    15  C   -0.277293
    16  C   -0.290136
    17  C   -0.285045
    18  C   -0.292485
    19  C   -0.135649
    20  C   -0.134586
    21  C   -0.378636
    22  C   -0.371260
    23  C   -0.096541
    24  C   -0.093674
    25  C    0.071645
    26  C    0.114655
    27  C   -0.349617
    28  C   -0.372461
    29  C   -0.114713
    30  C   -0.140145
    31  C   -0.079366
    32  C   -0.109030
    33  C   -0.091015
    34  C   -0.088718
    35  C    0.116493
    36  C    0.094288
    37  C   -0.363991
    38  C   -0.370598
    39  C   -0.126724
    40  C   -0.117787
    41  C   -0.090784
    42  C   -0.071546
    43  H    0.111764
    44  H    0.078802
    45  H    0.079476
    46  H    0.082624
    47  H    0.096198
    48  H    0.025818
    49  H    0.132209
    50  H    0.099335
    51  H    0.099874
    52  H    0.106532
    53  H    0.085884
    54  H    0.110872
    55  H    0.102239
    56  H    0.115344
    57  H    0.093319
    58  H    0.099185
    59  H    0.078156
    60  H    0.119790
    61  H    0.109630
    62  H    0.104132
    63  H    0.072595
    64  H    0.083164
    65  H    0.086665
    66  H    0.107002
    67  H    0.117652
    68  H    0.125810
    69  H    0.094771
    70  H    0.101456
    71  H    0.119442
    72  H    0.127588
    73  H    0.294055
    74  H    0.300901
    75  H    0.085142
    76  H    0.096057
    77  H    0.078138
    78  H    0.111762
    79  H    0.146007
    80  H    0.105035
    81  H    0.118937
    82  H    0.117854
    83  H    0.082432
    84  H    0.097614
    85  H    0.056934
    86  H    0.092537
    87  H    0.065030
    88  H    0.092332
    89  H    0.121104
    90  H    0.112075
    91  H    0.130333
    92  H    0.128245
    93  H    0.122155
    94  H    0.093548
    95  H    0.059239
    96  H    0.067528
    97  H    0.063811
    98  H    0.065070
 Sum of Mulliken charges =  -0.00000

 Dipole moment (field-independent basis, Debye):
    X=             -0.0828    Y=             -0.8396    Z=              1.8276  Tot=              2.0130
 Quadrupole moment (field-independent basis, Debye-Ang):
   XX=           -281.1500   YY=           -245.7777   ZZ=           -259.6581
   XY=             16.4073   XZ=             -0.2030   YZ=              0.1315

 Normal termination of Gaussian 16 at Thu Jul 11 13:07:58 2019.
