 Gaussian 16, Revision A.03,
 Gaussian 16:  ES64L-G16RevA.03 25-Dec-2016

 -------------------------------------
 # td=(NStates=1) CAM-B3LYP/6-31G(d,p)
 -------------------------------------

 --
 TD
 --
 Symbolic Z-matrix:
 Charge =  0 Multiplicity = 1

                         Standard orientation:
 ---------------------------------------------------------------------
 Center     Atomic      Atomic             Coordinates (Angstroms)
 Number     Number       Type             X           Y           Z
 ---------------------------------------------------------------------
      1          8           0       14.694768   -2.169039   -0.241286
      2          8           0      -14.662306    2.085456    0.860710
      3          6           0       11.469893   -0.990762    1.279372
      4          6           0      -12.373581   -0.805113    0.951952
      5          6           0       12.934382   -1.312204    1.108331
      6          6           0      -13.758643   -0.165271    0.878820
      7          6           0       13.312538   -1.871381   -0.189458
      8          6           0      -13.426955    1.461865    0.793694
      9          6           0       10.910142   -0.335950   -0.008044
     10          6           0      -11.343208   -0.270601   -0.020438
     11          6           0       12.934931   -0.933191   -1.373130
     12          6           0      -12.793274    1.662382   -0.511267
     13          6           0       11.611325   -0.274322   -1.161094
     14          6           0      -11.563215    0.771651   -0.868155
     15          6           0       11.223808   -0.176057    2.507654
     16          6           0       10.590889   -2.327259    1.522400
     17          6           0      -11.591140   -0.759953    2.222359
     18          6           0      -12.515254   -2.346740    0.525937
     19          6           0        9.660648    0.368769    0.263210
     20          6           0      -10.133276   -1.039713   -0.405485
     21          6           0       11.141295    0.277535   -2.464459
     22          6           0      -10.663702    1.257661   -1.964106
     23          6           0        9.351902    1.591351   -0.161369
     24          6           0       -8.791569   -0.597225   -0.283299
     25          6           0        7.983050    2.276438    0.023914
     26          6           0       -7.508959   -1.325261   -0.606641
     27          6           0        8.026391    3.767434    0.289010
     28          6           0       -7.785327   -2.744116   -1.049485
     29          6           0        6.869079    1.554613   -0.038272
     30          6           0       -6.359651   -0.719731   -0.472747
     31          6           0        5.559589    2.040162    0.086314
     32          6           0       -5.018712   -1.178978   -0.497575
     33          6           0        4.399953    1.247959   -0.079897
     34          6           0       -3.967548   -0.436177   -0.327751
     35          6           0        3.078401    1.664703   -0.056241
     36          6           0       -2.622472   -0.864807   -0.420321
     37          6           0        2.698421    3.090958    0.585199
     38          6           0       -2.338072   -2.266970   -0.663594
     39          6           0        2.109281    0.708475   -0.207398
     40          6           0       -1.593964    0.090384   -0.330845
     41          6           0        0.702743    0.914569   -0.029714
     42          6           0       -0.120104   -0.060758   -0.432075
     43          1           0       13.536510   -0.359979    1.319104
     44          1           0       13.197004   -2.019695    2.036096
     45          1           0      -14.317656   -0.018147    1.793142
     46          1           0      -14.397458   -0.423092   -0.053322
     47          1           0       12.808370   -2.693114   -0.472439
     48          1           0      -12.883076    1.777841    1.535617
     49          1           0       13.595100   -0.193961   -1.287018
     50          1           0       13.223105   -1.689589   -2.106789
     51          1           0      -13.506850    1.383047   -1.312087
     52          1           0      -12.392284    2.677865   -0.636809
     53          1           0       11.927187   -0.337362    3.438188
     54          1           0       10.150491   -0.160979    2.816987
     55          1           0       11.738175    0.575063    2.284092
     56          1           0       10.940841   -3.159570    0.802512
     57          1           0       10.851996   -2.863943    2.513206
     58          1           0        9.472724   -1.969846    1.520807
     59          1           0      -11.581341    0.388657    2.831392
     60          1           0      -10.731731   -1.320802    2.182217
     61          1           0      -12.056621   -1.259718    2.946241
     62          1           0      -13.228863   -2.665015    1.489809
     63          1           0      -11.535642   -3.112992    0.504546
     64          1           0      -13.263831   -2.500242   -0.456749
     65          1           0        8.978287   -0.201931    0.998093
     66          1           0      -10.226016   -1.953714   -0.816464
     67          1           0        9.944915    0.454782   -2.308170
     68          1           0       11.596357    1.317282   -2.796413
     69          1           0       11.378039   -0.395810   -3.277269
     70          1           0      -11.421467    1.697969   -2.656230
     71          1           0       -9.994012    0.421834   -2.282485
     72          1           0      -10.073503    2.184005   -1.600320
     73          1           0       14.992028   -2.576365    0.600225
     74          1           0      -15.103107    1.695315    1.651409
     75          1           0       10.154927    2.020142   -0.587425
     76          1           0       -8.551276    0.446708   -0.088182
     77          1           0        8.596902    4.257025   -0.471150
     78          1           0        7.105240    4.271492    0.314263
     79          1           0        8.469346    3.937776    1.129538
     80          1           0       -8.183335   -3.405350   -0.266885
     81          1           0       -8.302334   -2.713230   -1.917384
     82          1           0       -6.774025   -3.216974   -1.475588
     83          1           0        6.917625    0.580184   -0.275737
     84          1           0       -6.517413    0.266202   -0.103362
     85          1           0        5.400234    3.179614    0.243804
     86          1           0       -4.872254   -2.214204   -0.866836
     87          1           0        4.729231    0.239622   -0.484180
     88          1           0       -3.994746    0.612389   -0.041413
     89          1           0        3.389105    3.453364    1.456080
     90          1           0        1.657013    3.039169    0.475104
     91          1           0        3.005913    3.774171   -0.111673
     92          1           0       -2.313507   -2.947269    0.500682
     93          1           0       -2.943006   -2.927895   -1.511647
     94          1           0       -1.219785   -2.103373   -1.105039
     95          1           0        2.364032   -0.108640   -0.581172
     96          1           0       -1.982995    1.158217   -0.281954
     97          1           0        0.110690    1.698120    0.390902
     98          1           0        0.076833   -0.992612   -0.989089
 ---------------------------------------------------------------------

 SCF Done:  E(RCAM-B3LYP) =  -1706.84820134     A.U. after   14 cycles

 Excitation energies and oscillator strengths:

 Excited State   1:      Singlet-A      2.7584 eV  449.48 nm  f=3.5834  <S**2>=0.000
     155 ->158        -0.15993
     156 ->157         0.68394
 This state for optimization and/or second-order correction.
 Total Energy, E(TD-HF/TD-DFT) =  -1706.74683279
 Copying the excited state density for this state as the 1-particle RhoCI density.

 The electronic state is 1-A.
 Alpha  occ. eigenvalues --  -19.21086 -19.20803 -10.29476 -10.29035 -10.29002
 Alpha  occ. eigenvalues --  -10.28683 -10.28314 -10.27568 -10.27419 -10.27201
 Alpha  occ. eigenvalues --  -10.27167 -10.27112 -10.27048 -10.26847 -10.26755
 Alpha  occ. eigenvalues --  -10.26730 -10.26636 -10.26539 -10.26486 -10.26375
 Alpha  occ. eigenvalues --  -10.26355 -10.26352 -10.26329 -10.26211 -10.26197
 Alpha  occ. eigenvalues --  -10.25661 -10.25564 -10.25539 -10.25492 -10.25477
 Alpha  occ. eigenvalues --  -10.25454 -10.25336 -10.25054 -10.24952 -10.24844
 Alpha  occ. eigenvalues --  -10.24750 -10.24552 -10.24539 -10.24350 -10.23970
 Alpha  occ. eigenvalues --  -10.23710 -10.23603  -1.10555  -1.09147  -0.94307
 Alpha  occ. eigenvalues --   -0.93439  -0.92698  -0.91979  -0.90874  -0.89986
 Alpha  occ. eigenvalues --   -0.87876  -0.87588  -0.86771  -0.86132  -0.84831
 Alpha  occ. eigenvalues --   -0.83299  -0.82267  -0.81023  -0.79296  -0.78164
 Alpha  occ. eigenvalues --   -0.77595  -0.77069  -0.76711  -0.76454  -0.75744
 Alpha  occ. eigenvalues --   -0.75160  -0.74886  -0.73848  -0.73156  -0.70933
 Alpha  occ. eigenvalues --   -0.69157  -0.67999  -0.66806  -0.65424  -0.64736
 Alpha  occ. eigenvalues --   -0.63363  -0.63227  -0.62502  -0.60657  -0.60290
 Alpha  occ. eigenvalues --   -0.59861  -0.59291  -0.58563  -0.57259  -0.56765
 Alpha  occ. eigenvalues --   -0.55828  -0.55467  -0.55134  -0.54455  -0.54136
 Alpha  occ. eigenvalues --   -0.53682  -0.53231  -0.52789  -0.52005  -0.51588
 Alpha  occ. eigenvalues --   -0.51044  -0.50595  -0.50231  -0.50088  -0.49528
 Alpha  occ. eigenvalues --   -0.49166  -0.48803  -0.48573  -0.48176  -0.48128
 Alpha  occ. eigenvalues --   -0.47821  -0.47278  -0.46862  -0.46575  -0.46258
 Alpha  occ. eigenvalues --   -0.46185  -0.45968  -0.45653  -0.45289  -0.45061
 Alpha  occ. eigenvalues --   -0.44794  -0.44303  -0.44246  -0.44064  -0.43349
 Alpha  occ. eigenvalues --   -0.42928  -0.42874  -0.42672  -0.42457  -0.42308
 Alpha  occ. eigenvalues --   -0.41697  -0.41581  -0.41274  -0.40944  -0.40856
 Alpha  occ. eigenvalues --   -0.40682  -0.40562  -0.39723  -0.39609  -0.39546
 Alpha  occ. eigenvalues --   -0.38919  -0.38734  -0.38325  -0.38062  -0.37783
 Alpha  occ. eigenvalues --   -0.37375  -0.36814  -0.36385  -0.35978  -0.35397
 Alpha  occ. eigenvalues --   -0.34960  -0.34546  -0.33499  -0.32319  -0.31622
 Alpha  occ. eigenvalues --   -0.30834  -0.29218  -0.27730  -0.26715  -0.24208
 Alpha  occ. eigenvalues --   -0.20855
 Alpha virt. eigenvalues --   -0.04316  -0.00138   0.03100   0.05452   0.08456
 Alpha virt. eigenvalues --    0.09373   0.10609   0.11006   0.11338   0.11788
 Alpha virt. eigenvalues --    0.11964   0.12197   0.12496   0.13234   0.13901

 Mulliken charges:
               1
     1  O   -0.579308
     2  O   -0.556596
     3  C   -0.022164
     4  C   -0.000208
     5  C   -0.214797
     6  C   -0.216469
     7  C    0.178447
     8  C    0.180251
     9  C    0.093160
    10  C    0.070077
    11  C   -0.223439
    12  C   -0.214383
    13  C    0.033875
    14  C    0.044234
    15  C   -0.267589
    16  C   -0.296119
    17  C   -0.274973
    18  C   -0.290318
    19  C   -0.107374
    20  C   -0.171422
    21  C   -0.359194
    22  C   -0.343291
    23  C   -0.119926
    24  C   -0.100488
    25  C    0.054772
    26  C    0.116076
    27  C   -0.363190
    28  C   -0.373904
    29  C   -0.079599
    30  C   -0.128455
    31  C   -0.090878
    32  C   -0.088868
    33  C   -0.121565
    34  C   -0.074110
    35  C    0.066944
    36  C    0.138534
    37  C   -0.360149
    38  C   -0.338068
    39  C   -0.071413
    40  C   -0.174661
    41  C   -0.086153
    42  C   -0.083530
    43  H    0.089533
    44  H    0.062460
    45  H    0.073739
    46  H    0.114122
    47  H    0.091009
    48  H    0.088709
    49  H    0.129769
    50  H    0.122100
    51  H    0.109804
    52  H    0.097813
    53  H    0.076439
    54  H    0.104433
    55  H    0.110351
    56  H    0.092626
    57  H    0.090860
    58  H    0.092665
    59  H    0.063632
    60  H    0.126570
    61  H    0.100401
    62  H    0.070973
    63  H    0.094175
    64  H    0.088580
    65  H    0.078044
    66  H    0.089604
    67  H    0.101427
    68  H    0.101263
    69  H    0.118815
    70  H    0.103023
    71  H    0.125120
    72  H    0.106985
    73  H    0.307416
    74  H    0.303151
    75  H    0.088140
    76  H    0.075495
    77  H    0.117443
    78  H    0.110427
    79  H    0.137790
    80  H    0.125858
    81  H    0.136743
    82  H    0.077106
    83  H    0.074191
    84  H    0.070965
    85  H    0.065210
    86  H    0.077814
    87  H    0.075740
    88  H    0.074365
    89  H    0.121831
    90  H    0.115647
    91  H    0.130470
    92  H    0.085766
    93  H    0.107584
    94  H    0.079781
    95  H    0.067253
    96  H    0.078264
    97  H    0.102027
    98  H    0.094712
 Sum of Mulliken charges =  -0.00000

 Dipole moment (field-independent basis, Debye):
    X=              0.6074    Y=             -0.5046    Z=              1.6392  Tot=              1.8195
 Quadrupole moment (field-independent basis, Debye-Ang):
   XX=           -266.5350   YY=           -250.5549   ZZ=           -258.3026
   XY=             20.6457   XZ=              2.1315   YZ=              2.2080

 Normal termination of Gaussian 16 at Thu Jul  4 19:28:37 2019.
