 Gaussian 16, Revision A.03,
 Gaussian 16:  ES64L-G16RevA.03 25-Dec-2016

 -------------------------------------
 # td=(NStates=1) CAM-B3LYP/6-31G(d,p)
 -------------------------------------

 --
 TD
 --
 Symbolic Z-matrix:
 Charge =  0 Multiplicity = 1

                         Standard orientation:
 ---------------------------------------------------------------------
 Center     Atomic      Atomic             Coordinates (Angstroms)
 Number     Number       Type             X           Y           Z
 ---------------------------------------------------------------------
      1          8           0       14.854341   -2.064499   -0.693157
      2          8           0      -14.773367    2.056181    0.540133
      3          6           0       11.727363   -0.917047    1.210986
      4          6           0      -12.446253   -0.861024    0.660855
      5          6           0       13.243822   -1.246577    0.974598
      6          6           0      -13.878523   -0.178511    0.645686
      7          6           0       13.566126   -1.811372   -0.401496
      8          6           0      -13.540804    1.362017    0.654383
      9          6           0       11.113742   -0.251704   -0.030199
     10          6           0      -11.412058   -0.249805   -0.255518
     11          6           0       13.010527   -0.873551   -1.505447
     12          6           0      -12.809383    1.717995   -0.591299
     13          6           0       11.600787   -0.188556   -1.207285
     14          6           0      -11.623155    0.894043   -0.894676
     15          6           0       11.615181   -0.015172    2.427124
     16          6           0       10.998618   -2.223483    1.556453
     17          6           0      -11.947679   -0.782938    2.111438
     18          6           0      -12.744931   -2.340804    0.262967
     19          6           0        9.815064    0.329180    0.310812
     20          6           0      -10.150923   -1.064156   -0.388704
     21          6           0       10.989312    0.281741   -2.540503
     22          6           0      -10.643101    1.435883   -1.886318
     23          6           0        9.381099    1.573110   -0.121827
     24          6           0       -8.890520   -0.613635   -0.230842
     25          6           0        7.989033    2.223339    0.171892
     26          6           0       -7.674195   -1.217679   -0.526344
     27          6           0        8.052395    3.631012    0.227987
     28          6           0       -7.797503   -2.797690   -0.728675
     29          6           0        6.922124    1.418982   -0.029602
     30          6           0       -6.510688   -0.669587   -0.271433
     31          6           0        5.536406    1.923254    0.162042
     32          6           0       -5.117200   -1.131431   -0.215245
     33          6           0        4.486992    1.151049   -0.052107
     34          6           0       -4.048334   -0.413017   -0.149157
     35          6           0        3.079441    1.547738    0.221679
     36          6           0       -2.700827   -0.862631   -0.163124
     37          6           0        2.689616    2.923406    0.657373
     38          6           0       -2.403794   -2.327633   -0.482203
     39          6           0        2.062306    0.465923    0.101561
     40          6           0       -1.727295    0.116621   -0.077863
     41          6           0        0.702353    0.878887    0.139490
     42          6           0       -0.279700   -0.082636   -0.148165
     43          1           0       13.759820   -0.353960    1.267321
     44          1           0       13.470580   -2.009992    1.687631
     45          1           0      -14.379445   -0.406546    1.499160
     46          1           0      -14.385751   -0.278404   -0.399488
     47          1           0       13.051287   -2.959790   -0.427776
     48          1           0      -12.964843    1.759626    1.263209
     49          1           0       13.796688    0.011433   -1.605056
     50          1           0       12.971382   -1.397307   -2.464505
     51          1           0      -13.539560    1.687900   -1.419085
     52          1           0      -12.407066    2.680806   -0.519084
     53          1           0       12.281778   -0.284400    3.370338
     54          1           0       10.748334   -0.141069    3.088336
     55          1           0       11.862017    1.115297    2.255622
     56          1           0       11.317933   -3.140334    0.875828
     57          1           0       11.217042   -2.672314    2.685854
     58          1           0        9.884071   -2.312729    1.552687
     59          1           0      -11.747138    0.201706    2.292296
     60          1           0      -10.908440   -1.242343    2.266285
     61          1           0      -12.724826   -1.343221    2.886199
     62          1           0      -13.583750   -2.596414    1.010799
     63          1           0      -12.073516   -3.026642    0.498588
     64          1           0      -13.207344   -2.311554   -0.707375
     65          1           0        9.172184   -0.186066    0.977357
     66          1           0      -10.301265   -2.132379   -0.793316
     67          1           0        9.900576    0.466932   -2.919907
     68          1           0       11.288284    1.361544   -2.959307
     69          1           0       11.303355   -0.316840   -3.585334
     70          1           0      -11.139020    2.187816   -2.739749
     71          1           0       -9.977752    0.537470   -2.429877
     72          1           0       -9.906493    2.104993   -1.356064
     73          1           0       15.146180   -3.113014   -0.192878
     74          1           0      -15.463187    1.853441    1.282430
     75          1           0       10.183155    2.188473   -0.768085
     76          1           0       -8.732180    0.513944    0.041351
     77          1           0        8.508419    4.234128   -0.498848
     78          1           0        7.079353    4.232191    0.169328
     79          1           0        8.387129    4.003330    1.324980
     80          1           0       -8.704070   -3.210630   -0.065711
     81          1           0       -8.100999   -2.867811   -1.832624
     82          1           0       -6.839107   -3.054328   -0.556647
     83          1           0        7.148908    0.526165   -0.322815
     84          1           0       -6.450450    0.571462   -0.133339
     85          1           0        5.554062    3.009826    0.494448
     86          1           0       -4.998518   -2.187528   -0.541516
     87          1           0        4.784256    0.116133   -0.398203
     88          1           0       -4.072217    0.581149    0.087360
     89          1           0        3.614034    3.321734    1.364620
     90          1           0        1.659617    3.001912    1.052761
     91          1           0        2.770368    3.525392   -0.374529
     92          1           0       -2.941820   -3.046774    0.110061
     93          1           0       -2.696848   -2.399334   -1.427639
     94          1           0       -1.366781   -2.630544   -0.502122
     95          1           0        2.414636   -0.418120   -0.318432
     96          1           0       -2.297461    1.144135    0.074412
     97          1           0        0.402759    1.796221    0.587230
     98          1           0        0.171198   -1.149479   -0.178740
 ---------------------------------------------------------------------

 SCF Done:  E(RCAM-B3LYP) =  -1706.87293361     A.U. after   15 cycles

 Excitation energies and oscillator strengths:

 Excited State   1:      Singlet-A      2.6754 eV  463.43 nm  f=3.4361  <S**2>=0.000
     155 ->158         0.14164
     156 ->157         0.68993
 This state for optimization and/or second-order correction.
 Total Energy, E(TD-HF/TD-DFT) =  -1706.77461544
 Copying the excited state density for this state as the 1-particle RhoCI density.

 The electronic state is 1-A.
 Alpha  occ. eigenvalues --  -19.23145 -19.20361 -10.31744 -10.29094 -10.28529
 Alpha  occ. eigenvalues --  -10.28424 -10.28283 -10.27756 -10.27503 -10.27453
 Alpha  occ. eigenvalues --  -10.27452 -10.27424 -10.27277 -10.27170 -10.27166
 Alpha  occ. eigenvalues --  -10.27154 -10.27043 -10.26853 -10.26742 -10.26670
 Alpha  occ. eigenvalues --  -10.26606 -10.26495 -10.26305 -10.26283 -10.26234
 Alpha  occ. eigenvalues --  -10.26177 -10.25991 -10.25951 -10.25854 -10.25830
 Alpha  occ. eigenvalues --  -10.25597 -10.25532 -10.25494 -10.25079 -10.25036
 Alpha  occ. eigenvalues --  -10.24927 -10.24911 -10.24870 -10.24198 -10.24154
 Alpha  occ. eigenvalues --  -10.23462 -10.23292  -1.09781  -1.07447  -0.93619
 Alpha  occ. eigenvalues --   -0.93420  -0.92374  -0.91561  -0.90520  -0.89759
 Alpha  occ. eigenvalues --   -0.86952  -0.86791  -0.86429  -0.85017  -0.83800
 Alpha  occ. eigenvalues --   -0.83205  -0.81862  -0.79390  -0.79064  -0.78526
 Alpha  occ. eigenvalues --   -0.76896  -0.76256  -0.75972  -0.75320  -0.74997
 Alpha  occ. eigenvalues --   -0.74914  -0.74774  -0.74582  -0.73710  -0.70417
 Alpha  occ. eigenvalues --   -0.68542  -0.67390  -0.65835  -0.65122  -0.63814
 Alpha  occ. eigenvalues --   -0.63046  -0.62547  -0.61638  -0.60946  -0.60474
 Alpha  occ. eigenvalues --   -0.59227  -0.58595  -0.57563  -0.57057  -0.55758
 Alpha  occ. eigenvalues --   -0.55224  -0.55025  -0.54628  -0.54343  -0.53423
 Alpha  occ. eigenvalues --   -0.53139  -0.52336  -0.51953  -0.51564  -0.51059
 Alpha  occ. eigenvalues --   -0.50813  -0.50327  -0.49810  -0.49639  -0.49284
 Alpha  occ. eigenvalues --   -0.48666  -0.48368  -0.48250  -0.47882  -0.47684
 Alpha  occ. eigenvalues --   -0.47355  -0.47223  -0.46828  -0.46750  -0.45950
 Alpha  occ. eigenvalues --   -0.45544  -0.45308  -0.45099  -0.44777  -0.44346
 Alpha  occ. eigenvalues --   -0.44241  -0.43398  -0.43228  -0.43164  -0.42920
 Alpha  occ. eigenvalues --   -0.42825  -0.42531  -0.42087  -0.41968  -0.41869
 Alpha  occ. eigenvalues --   -0.41705  -0.40821  -0.40781  -0.40618  -0.40131
 Alpha  occ. eigenvalues --   -0.40020  -0.39968  -0.39653  -0.39014  -0.38983
 Alpha  occ. eigenvalues --   -0.38602  -0.38551  -0.38475  -0.38274  -0.37864
 Alpha  occ. eigenvalues --   -0.37672  -0.36829  -0.35748  -0.35301  -0.35149
 Alpha  occ. eigenvalues --   -0.34820  -0.34682  -0.33802  -0.31894  -0.31189
 Alpha  occ. eigenvalues --   -0.31046  -0.29911  -0.28412  -0.26593  -0.24777
 Alpha  occ. eigenvalues --   -0.20519
 Alpha virt. eigenvalues --   -0.04423   0.00180   0.03033   0.05044   0.05969
 Alpha virt. eigenvalues --    0.08110   0.09561   0.11037   0.11799   0.12070
 Alpha virt. eigenvalues --    0.12452   0.12606   0.12653   0.12870   0.13521

 Mulliken charges:
               1
     1  O   -0.539298
     2  O   -0.590511
     3  C    0.019281
     4  C   -0.039434
     5  C   -0.181408
     6  C   -0.175474
     7  C    0.207536
     8  C    0.202738
     9  C    0.084432
    10  C    0.049821
    11  C   -0.225962
    12  C   -0.236440
    13  C    0.062176
    14  C    0.081604
    15  C   -0.318072
    16  C   -0.311676
    17  C   -0.291958
    18  C   -0.286858
    19  C   -0.105183
    20  C   -0.160183
    21  C   -0.373405
    22  C   -0.357994
    23  C   -0.131755
    24  C   -0.069355
    25  C    0.083353
    26  C    0.089325
    27  C   -0.387356
    28  C   -0.345247
    29  C   -0.068157
    30  C   -0.121538
    31  C   -0.076900
    32  C   -0.100605
    33  C   -0.111407
    34  C   -0.079587
    35  C    0.074482
    36  C    0.117163
    37  C   -0.351682
    38  C   -0.377770
    39  C   -0.118770
    40  C   -0.140901
    41  C   -0.062450
    42  C   -0.128494
    43  H    0.105653
    44  H    0.084042
    45  H    0.091184
    46  H    0.100290
    47  H    0.020304
    48  H    0.078897
    49  H    0.104069
    50  H    0.114569
    51  H    0.117365
    52  H    0.110202
    53  H    0.080323
    54  H    0.109659
    55  H    0.105393
    56  H    0.091179
    57  H    0.075439
    58  H    0.110145
    59  H    0.112619
    60  H    0.099461
    61  H    0.070147
    62  H    0.075328
    63  H    0.104801
    64  H    0.106615
    65  H    0.089227
    66  H    0.091160
    67  H    0.122508
    68  H    0.098568
    69  H    0.082862
    70  H    0.080506
    71  H    0.106038
    72  H    0.115770
    73  H    0.305193
    74  H    0.302489
    75  H    0.081948
    76  H    0.067745
    77  H    0.139305
    78  H    0.095113
    79  H    0.102371
    80  H    0.111207
    81  H    0.114751
    82  H    0.112904
    83  H    0.071251
    84  H    0.049168
    85  H    0.083564
    86  H    0.075331
    87  H    0.090712
    88  H    0.072488
    89  H    0.104820
    90  H    0.123511
    91  H    0.119385
    92  H    0.119391
    93  H    0.142684
    94  H    0.107988
    95  H    0.089948
    96  H    0.075285
    97  H    0.091117
    98  H    0.089924
 Sum of Mulliken charges =  -0.00000

 Dipole moment (field-independent basis, Debye):
    X=              1.9150    Y=             -0.9934    Z=              1.5987  Tot=              2.6851
 Quadrupole moment (field-independent basis, Debye-Ang):
   XX=           -274.6239   YY=           -243.4516   ZZ=           -260.7721
   XY=             -1.4052   XZ=             -4.3879   YZ=              1.2206

 Normal termination of Gaussian 16 at Fri Jun 28 09:04:41 2019.
