 Gaussian 16, Revision A.03,
 Gaussian 16:  ES64L-G16RevA.03 25-Dec-2016

 -------------------------------------
 # td=(NStates=1) CAM-B3LYP/6-31G(d,p)
 -------------------------------------

 --
 TD
 --
 Symbolic Z-matrix:
 Charge =  0 Multiplicity = 1

                         Standard orientation:
 ---------------------------------------------------------------------
 Center     Atomic      Atomic             Coordinates (Angstroms)
 Number     Number       Type             X           Y           Z
 ---------------------------------------------------------------------
      1          8           0       14.685048   -2.156990   -0.621655
      2          8           0      -14.882073    1.973441    0.703869
      3          6           0       11.485192   -1.107803    1.246074
      4          6           0      -12.332272   -0.859684    0.903046
      5          6           0       13.042489   -1.385045    1.023408
      6          6           0      -13.644070   -0.139516    0.911582
      7          6           0       13.433318   -1.916127   -0.366791
      8          6           0      -13.572561    1.429302    0.668754
      9          6           0       10.972855   -0.337877   -0.003376
     10          6           0      -11.352275   -0.260422   -0.165414
     11          6           0       12.980362   -0.828035   -1.388632
     12          6           0      -12.803622    1.677453   -0.638560
     13          6           0       11.642290   -0.156520   -1.140488
     14          6           0      -11.642078    0.807258   -0.885096
     15          6           0       11.327126   -0.284938    2.466726
     16          6           0       10.742468   -2.469305    1.362374
     17          6           0      -11.674521   -0.824251    2.299715
     18          6           0      -12.563399   -2.377347    0.677225
     19          6           0        9.695934    0.321401    0.188461
     20          6           0      -10.098940   -1.130345   -0.376433
     21          6           0       11.274410    0.667142   -2.342741
     22          6           0      -10.785920    1.314649   -2.042946
     23          6           0        9.335702    1.640230   -0.000972
     24          6           0       -8.849902   -0.583853   -0.260603
     25          6           0        7.999225    2.189122    0.252773
     26          6           0       -7.602413   -1.277820   -0.468790
     27          6           0        7.981816    3.624410    0.719184
     28          6           0       -7.652463   -2.787102   -0.866927
     29          6           0        6.846248    1.466775    0.127183
     30          6           0       -6.522102   -0.619988   -0.255116
     31          6           0        5.539246    1.904293    0.387340
     32          6           0       -5.142037   -1.094225   -0.507947
     33          6           0        4.465763    1.179787    0.018329
     34          6           0       -4.026475   -0.306940   -0.355672
     35          6           0        3.068492    1.571280    0.045688
     36          6           0       -2.611820   -0.775171   -0.525629
     37          6           0        2.819074    3.029407    0.534558
     38          6           0       -2.328272   -2.211468   -0.886921
     39          6           0        2.053159    0.799084   -0.169078
     40          6           0       -1.590569    0.214575   -0.408508
     41          6           0        0.653505    0.869288   -0.197995
     42          6           0       -0.230476   -0.152016   -0.457462
     43          1           0       13.474343   -0.189105    1.197449
     44          1           0       13.325485   -2.044998    1.920077
     45          1           0      -14.360745   -0.325094    1.737491
     46          1           0      -14.208969   -0.505537   -0.052630
     47          1           0       12.982074   -2.873053   -0.625627
     48          1           0      -12.974997    1.656772    1.481823
     49          1           0       13.849941   -0.013790   -1.261696
     50          1           0       13.289307   -1.102424   -2.444727
     51          1           0      -13.289932    1.541171   -1.517980
     52          1           0      -12.547261    2.750412   -1.022000
     53          1           0       11.710716   -0.828396    3.324885
     54          1           0       10.364128   -0.121686    2.712249
     55          1           0       11.881019    0.554003    2.407119
     56          1           0       10.986927   -3.009074    0.440766
     57          1           0       11.331817   -3.019496    2.247903
     58          1           0        9.698025   -2.332613    1.560730
     59          1           0      -11.515361    0.267234    2.538249
     60          1           0      -10.631114   -1.428338    2.501127
     61          1           0      -12.134421   -1.345129    3.014280
     62          1           0      -13.300342   -2.794474    1.416517
     63          1           0      -11.750378   -2.970715    1.023800
     64          1           0      -12.853511   -2.555873   -0.329482
     65          1           0        8.835295   -0.229736    0.560047
     66          1           0      -10.207543   -2.096495   -0.846282
     67          1           0       10.383114    1.118252   -2.328034
     68          1           0       11.920794    1.656963   -2.397154
     69          1           0       11.316937    0.172370   -3.298407
     70          1           0      -11.332722    1.434812   -3.028430
     71          1           0       -9.869599    0.649525   -1.968248
     72          1           0      -10.538237    2.460201   -1.921486
     73          1           0       15.122788   -2.683161    0.118334
     74          1           0      -15.074377    1.696824    1.519649
     75          1           0       10.148633    2.325553   -0.398115
     76          1           0       -8.963735    0.435946   -0.038030
     77          1           0        8.724970    4.304704    0.130809
     78          1           0        7.043024    4.136932    0.706595
     79          1           0        8.616938    3.539623    1.651078
     80          1           0       -8.224605   -3.302184    0.038603
     81          1           0       -8.155446   -2.728513   -1.886062
     82          1           0       -6.555994   -3.055647   -0.879649
     83          1           0        6.866240    0.432604   -0.238278
     84          1           0       -6.637404    0.432088    0.010801
     85          1           0        5.362158    3.031052    0.782124
     86          1           0       -4.988852   -2.087650   -0.660868
     87          1           0        4.531896    0.239073   -0.589929
     88          1           0       -4.085395    0.707724   -0.138584
     89          1           0        3.034937    3.260297    1.589383
     90          1           0        1.850774    3.238790    0.479892
     91          1           0        3.128494    3.728998   -0.185958
     92          1           0       -2.652631   -2.924162    0.010818
     93          1           0       -3.026384   -2.447226   -1.855738
     94          1           0       -1.314063   -2.303711   -1.289055
     95          1           0        2.567778   -0.135201   -0.349649
     96          1           0       -2.005429    1.270388   -0.291500
     97          1           0        0.421928    2.003059   -0.126829
     98          1           0        0.010237   -1.041435   -0.531806
 ---------------------------------------------------------------------

 SCF Done:  E(RCAM-B3LYP) =  -1706.99152507     A.U. after   14 cycles

 Excitation energies and oscillator strengths:

 Excited State   1:      Singlet-A      2.7682 eV  447.88 nm  f=3.6578  <S**2>=0.000
     155 ->158         0.16780
     156 ->157         0.68322
 This state for optimization and/or second-order correction.
 Total Energy, E(TD-HF/TD-DFT) =  -1706.88979413
 Copying the excited state density for this state as the 1-particle RhoCI density.

 The electronic state is 1-A.
 Alpha  occ. eigenvalues --  -19.21671 -19.21241 -10.30630 -10.30248 -10.27921
 Alpha  occ. eigenvalues --  -10.27746 -10.27514 -10.27484 -10.27456 -10.27447
 Alpha  occ. eigenvalues --  -10.27429 -10.27167 -10.26928 -10.26857 -10.26832
 Alpha  occ. eigenvalues --  -10.26468 -10.26287 -10.26283 -10.26102 -10.26078
 Alpha  occ. eigenvalues --  -10.26042 -10.25987 -10.25972 -10.25904 -10.25859
 Alpha  occ. eigenvalues --  -10.25791 -10.25781 -10.25726 -10.25712 -10.25696
 Alpha  occ. eigenvalues --  -10.25530 -10.25523 -10.25304 -10.25145 -10.25089
 Alpha  occ. eigenvalues --  -10.24988 -10.24605 -10.24430 -10.24227 -10.24100
 Alpha  occ. eigenvalues --  -10.23192 -10.22306  -1.13405  -1.12464  -0.93484
 Alpha  occ. eigenvalues --   -0.93411  -0.92319  -0.91603  -0.90769  -0.89782
 Alpha  occ. eigenvalues --   -0.87588  -0.87341  -0.86869  -0.85246  -0.84310
 Alpha  occ. eigenvalues --   -0.82902  -0.81567  -0.79958  -0.79554  -0.78268
 Alpha  occ. eigenvalues --   -0.77250  -0.76466  -0.76233  -0.76099  -0.76018
 Alpha  occ. eigenvalues --   -0.75597  -0.74802  -0.74389  -0.73940  -0.71054
 Alpha  occ. eigenvalues --   -0.69249  -0.68534  -0.66632  -0.65496  -0.64373
 Alpha  occ. eigenvalues --   -0.64167  -0.62815  -0.62623  -0.60387  -0.59540
 Alpha  occ. eigenvalues --   -0.59445  -0.59176  -0.58439  -0.57320  -0.56847
 Alpha  occ. eigenvalues --   -0.56352  -0.55343  -0.54587  -0.54386  -0.54213
 Alpha  occ. eigenvalues --   -0.53433  -0.53025  -0.52250  -0.51829  -0.51304
 Alpha  occ. eigenvalues --   -0.50588  -0.50444  -0.50041  -0.49908  -0.49390
 Alpha  occ. eigenvalues --   -0.49170  -0.49143  -0.48764  -0.48573  -0.48362
 Alpha  occ. eigenvalues --   -0.48026  -0.47731  -0.47279  -0.47171  -0.46698
 Alpha  occ. eigenvalues --   -0.46296  -0.46055  -0.45384  -0.45125  -0.44744
 Alpha  occ. eigenvalues --   -0.44456  -0.44158  -0.43939  -0.43773  -0.43668
 Alpha  occ. eigenvalues --   -0.43258  -0.43126  -0.42808  -0.42418  -0.42082
 Alpha  occ. eigenvalues --   -0.41711  -0.41203  -0.40870  -0.40788  -0.40621
 Alpha  occ. eigenvalues --   -0.40141  -0.40094  -0.39841  -0.39813  -0.39584
 Alpha  occ. eigenvalues --   -0.39186  -0.38804  -0.38384  -0.38299  -0.38153
 Alpha  occ. eigenvalues --   -0.38025  -0.36707  -0.36364  -0.36078  -0.35667
 Alpha  occ. eigenvalues --   -0.35413  -0.34876  -0.33564  -0.32199  -0.31644
 Alpha  occ. eigenvalues --   -0.31554  -0.29424  -0.28424  -0.26782  -0.24218
 Alpha  occ. eigenvalues --   -0.20666
 Alpha virt. eigenvalues --   -0.04092   0.00251   0.03290   0.06328   0.08189
 Alpha virt. eigenvalues --    0.09341   0.10841   0.11773   0.12066   0.12267
 Alpha virt. eigenvalues --    0.12608   0.12781   0.13351   0.13794   0.14279

 Mulliken charges:
               1
     1  O   -0.535279
     2  O   -0.519394
     3  C   -0.028983
     4  C    0.005022
     5  C   -0.204929
     6  C   -0.219739
     7  C    0.221275
     8  C    0.151274
     9  C    0.051860
    10  C   -0.000987
    11  C   -0.251206
    12  C   -0.227510
    13  C    0.091568
    14  C    0.095507
    15  C   -0.281614
    16  C   -0.288104
    17  C   -0.295953
    18  C   -0.309006
    19  C   -0.123306
    20  C   -0.152368
    21  C   -0.360054
    22  C   -0.368744
    23  C   -0.119243
    24  C   -0.089131
    25  C    0.079921
    26  C    0.097509
    27  C   -0.365464
    28  C   -0.346255
    29  C   -0.113584
    30  C   -0.111290
    31  C   -0.075196
    32  C   -0.103540
    33  C   -0.124929
    34  C   -0.096544
    35  C    0.086478
    36  C    0.081561
    37  C   -0.379923
    38  C   -0.367121
    39  C   -0.108576
    40  C   -0.115452
    41  C   -0.080872
    42  C   -0.034625
    43  H    0.064660
    44  H    0.069591
    45  H    0.079521
    46  H    0.090546
    47  H    0.063149
    48  H    0.095705
    49  H    0.095147
    50  H    0.107244
    51  H    0.130779
    52  H    0.091501
    53  H    0.090254
    54  H    0.112807
    55  H    0.110386
    56  H    0.113158
    57  H    0.075276
    58  H    0.111616
    59  H    0.089907
    60  H    0.078024
    61  H    0.110093
    62  H    0.091783
    63  H    0.107443
    64  H    0.106721
    65  H    0.084054
    66  H    0.095170
    67  H    0.123959
    68  H    0.095661
    69  H    0.116662
    70  H    0.110230
    71  H    0.117391
    72  H    0.093620
    73  H    0.309173
    74  H    0.295565
    75  H    0.081600
    76  H    0.091519
    77  H    0.102040
    78  H    0.119344
    79  H    0.126927
    80  H    0.118001
    81  H    0.126782
    82  H    0.105688
    83  H    0.083861
    84  H    0.079297
    85  H    0.086238
    86  H    0.075861
    87  H    0.078294
    88  H    0.074158
    89  H    0.119119
    90  H    0.099181
    91  H    0.117068
    92  H    0.117177
    93  H    0.103530
    94  H    0.119261
    95  H    0.047852
    96  H    0.089247
    97  H    0.079015
    98  H    0.069088
 Sum of Mulliken charges =  -0.00000

 Dipole moment (field-independent basis, Debye):
    X=              1.8454    Y=             -1.2732    Z=              1.7098  Tot=              2.8196
 Quadrupole moment (field-independent basis, Debye-Ang):
   XX=           -266.9968   YY=           -246.9796   ZZ=           -257.6826
   XY=              9.3513   XZ=              2.5197   YZ=             -1.8928

 Normal termination of Gaussian 16 at Fri Jul  5 07:12:13 2019.
