 Gaussian 16, Revision A.03,
 Gaussian 16:  ES64L-G16RevA.03 25-Dec-2016

 -------------------------------------
 # td=(NStates=1) CAM-B3LYP/6-31G(d,p)
 -------------------------------------

 --
 TD
 --
 Symbolic Z-matrix:
 Charge =  0 Multiplicity = 1

                         Standard orientation:
 ---------------------------------------------------------------------
 Center     Atomic      Atomic             Coordinates (Angstroms)
 Number     Number       Type             X           Y           Z
 ---------------------------------------------------------------------
      1          8           0       14.629985   -2.526324   -0.512954
      2          8           0      -14.807501    1.771959    0.671411
      3          6           0       11.336091   -1.233687    1.240886
      4          6           0      -12.337837   -1.071069    0.821521
      5          6           0       12.813338   -1.664894    0.963112
      6          6           0      -13.705120   -0.328833    0.722542
      7          6           0       13.179541   -2.050369   -0.430803
      8          6           0      -13.581990    1.194053    0.716364
      9          6           0       10.972642   -0.379080    0.031034
     10          6           0      -11.314710   -0.363990   -0.156323
     11          6           0       13.040612   -0.872552   -1.352278
     12          6           0      -12.787653    1.658669   -0.484168
     13          6           0       11.672049   -0.196007   -1.070205
     14          6           0      -11.559973    0.846492   -0.813580
     15          6           0       11.221491   -0.457149    2.546422
     16          6           0       10.523820   -2.558667    1.185265
     17          6           0      -11.804321   -1.018995    2.118482
     18          6           0      -12.697718   -2.474972    0.199486
     19          6           0        9.671205    0.296368    0.153977
     20          6           0      -10.074463   -1.108341   -0.342200
     21          6           0       11.118889    0.542132   -2.311414
     22          6           0      -10.697858    1.483438   -1.774417
     23          6           0        9.339690    1.574822   -0.034942
     24          6           0       -8.805612   -0.571072   -0.220141
     25          6           0        8.123933    2.270166    0.165770
     26          6           0       -7.519954   -1.176826   -0.465076
     27          6           0        8.256856    3.807641    0.428247
     28          6           0       -7.613903   -2.552831   -0.879965
     29          6           0        6.906332    1.728483   -0.076594
     30          6           0       -6.335483   -0.449912   -0.275562
     31          6           0        5.570641    2.239032    0.262582
     32          6           0       -5.040778   -0.981383   -0.418688
     33          6           0        4.502249    1.437749   -0.031931
     34          6           0       -3.987629   -0.166683   -0.297387
     35          6           0        3.167150    1.813264    0.189771
     36          6           0       -2.562506   -0.642290   -0.395183
     37          6           0        2.811799    3.088240    0.758168
     38          6           0       -2.413344   -2.064796   -0.892846
     39          6           0        2.195307    0.892253   -0.238638
     40          6           0       -1.592817    0.242631   -0.046255
     41          6           0        0.802588    1.098686   -0.154991
     42          6           0       -0.159037    0.078742   -0.352950
     43          1           0       13.632536   -0.924565    0.959230
     44          1           0       12.863041   -2.332249    1.773784
     45          1           0      -14.228178   -0.836877    1.598344
     46          1           0      -14.148134   -0.682475   -0.243003
     47          1           0       12.493309   -3.073058   -0.630045
     48          1           0      -13.071707    1.360126    1.620631
     49          1           0       13.671418   -0.033787   -0.926398
     50          1           0       13.258533   -1.139421   -2.429894
     51          1           0      -13.727273    1.621302   -1.274559
     52          1           0      -12.518745    2.713506   -0.481081
     53          1           0       11.522352   -1.089877    3.351229
     54          1           0       10.344079   -0.074117    2.672219
     55          1           0       12.121931    0.357217    2.480398
     56          1           0       10.769698   -3.180866    0.435307
     57          1           0       10.740840   -3.165050    2.000908
     58          1           0        9.420841   -2.340447    1.228173
     59          1           0      -11.936157    0.211998    2.463975
     60          1           0      -10.825238   -1.366982    2.115260
     61          1           0      -12.213831   -1.784423    2.933546
     62          1           0      -13.528947   -2.876228    0.735776
     63          1           0      -11.843993   -3.244062    0.589554
     64          1           0      -13.004219   -2.429528   -1.033182
     65          1           0        8.860888   -0.352465    0.528846
     66          1           0      -10.240651   -2.354362   -0.312108
     67          1           0       10.177062    0.983384   -2.286341
     68          1           0       11.918203    1.251585   -2.626050
     69          1           0       11.169979   -0.234646   -3.148144
     70          1           0      -11.372063    1.958957   -2.573419
     71          1           0      -10.025869    0.882263   -2.177021
     72          1           0      -10.265711    2.361244   -1.438745
     73          1           0       14.713255   -2.773965    0.749125
     74          1           0      -15.287144    1.671417    1.481212
     75          1           0       10.239448    2.297407   -0.105832
     76          1           0       -8.720315    0.488559   -0.273418
     77          1           0        8.914754    4.231015   -0.431804
     78          1           0        7.384334    4.338932    0.608967
     79          1           0        8.860123    3.852779    1.306591
     80          1           0       -8.323376   -3.315676   -0.126312
     81          1           0       -7.982027   -2.883802   -1.805628
     82          1           0       -6.578241   -3.102156   -0.637438
     83          1           0        6.938576    0.698156   -0.163305
     84          1           0       -6.345995    0.515758    0.234969
     85          1           0        5.381329    3.280557    0.881964
     86          1           0       -4.677076   -2.059491   -0.682271
     87          1           0        4.768473    0.573641   -0.718692
     88          1           0       -4.246816    0.972793   -0.119879
     89          1           0        3.114684    3.061277    1.901901
     90          1           0        1.824327    3.397480    0.754137
     91          1           0        3.381019    4.094561    0.358385
     92          1           0       -2.728955   -2.740539   -0.163056
     93          1           0       -2.789004   -2.217414   -1.903742
     94          1           0       -1.141878   -2.173015   -1.247154
     95          1           0        2.613995   -0.181291   -0.571349
     96          1           0       -1.990567    1.344795    0.124090
     97          1           0        0.216615    1.855261    0.277382
     98          1           0        0.065480   -0.828981   -0.826248
 ---------------------------------------------------------------------

 SCF Done:  E(RCAM-B3LYP) =  -1706.88005972     A.U. after   14 cycles

 Excitation energies and oscillator strengths:

 Excited State   1:      Singlet-A      2.5585 eV  484.60 nm  f=3.7100  <S**2>=0.000
     155 ->158        -0.17817
     156 ->157         0.67893
 This state for optimization and/or second-order correction.
 Total Energy, E(TD-HF/TD-DFT) =  -1706.78603624
 Copying the excited state density for this state as the 1-particle RhoCI density.

 The electronic state is 1-A.
 Alpha  occ. eigenvalues --  -19.22888 -19.21020 -10.32010 -10.29471 -10.28322
 Alpha  occ. eigenvalues --  -10.28006 -10.27791 -10.27519 -10.27364 -10.27347
 Alpha  occ. eigenvalues --  -10.27241 -10.27223 -10.27213 -10.27126 -10.27045
 Alpha  occ. eigenvalues --  -10.27022 -10.26805 -10.26794 -10.26770 -10.26708
 Alpha  occ. eigenvalues --  -10.26678 -10.26669 -10.26583 -10.26513 -10.26283
 Alpha  occ. eigenvalues --  -10.26218 -10.25982 -10.25979 -10.25897 -10.25863
 Alpha  occ. eigenvalues --  -10.25847 -10.25824 -10.25436 -10.25426 -10.25357
 Alpha  occ. eigenvalues --  -10.25276 -10.25088 -10.24950 -10.24767 -10.24489
 Alpha  occ. eigenvalues --  -10.24309 -10.23321  -1.11862  -1.03206  -0.94399
 Alpha  occ. eigenvalues --   -0.93497  -0.92079  -0.91732  -0.90454  -0.89907
 Alpha  occ. eigenvalues --   -0.88037  -0.87636  -0.86931  -0.85536  -0.84614
 Alpha  occ. eigenvalues --   -0.83299  -0.82171  -0.80210  -0.80023  -0.78469
 Alpha  occ. eigenvalues --   -0.78053  -0.76687  -0.76410  -0.76186  -0.76093
 Alpha  occ. eigenvalues --   -0.75686  -0.75373  -0.74182  -0.73592  -0.70208
 Alpha  occ. eigenvalues --   -0.68954  -0.67285  -0.65631  -0.65217  -0.64149
 Alpha  occ. eigenvalues --   -0.63236  -0.62428  -0.60871  -0.60685  -0.60025
 Alpha  occ. eigenvalues --   -0.59462  -0.58893  -0.58100  -0.57068  -0.56004
 Alpha  occ. eigenvalues --   -0.55853  -0.55306  -0.54932  -0.54204  -0.53609
 Alpha  occ. eigenvalues --   -0.53081  -0.52104  -0.52041  -0.51964  -0.51268
 Alpha  occ. eigenvalues --   -0.50697  -0.50290  -0.50149  -0.49961  -0.49343
 Alpha  occ. eigenvalues --   -0.48880  -0.48355  -0.48254  -0.47943  -0.47636
 Alpha  occ. eigenvalues --   -0.47463  -0.47231  -0.47157  -0.46977  -0.46426
 Alpha  occ. eigenvalues --   -0.46302  -0.46010  -0.45656  -0.45462  -0.45134
 Alpha  occ. eigenvalues --   -0.44746  -0.44554  -0.43863  -0.43699  -0.43097
 Alpha  occ. eigenvalues --   -0.42675  -0.42310  -0.42212  -0.42171  -0.41726
 Alpha  occ. eigenvalues --   -0.41523  -0.41242  -0.41105  -0.40951  -0.40812
 Alpha  occ. eigenvalues --   -0.40469  -0.40260  -0.39943  -0.39773  -0.39088
 Alpha  occ. eigenvalues --   -0.38978  -0.38313  -0.38099  -0.37863  -0.37632
 Alpha  occ. eigenvalues --   -0.37362  -0.37202  -0.36812  -0.36810  -0.35740
 Alpha  occ. eigenvalues --   -0.35275  -0.34732  -0.33993  -0.32426  -0.31535
 Alpha  occ. eigenvalues --   -0.30833  -0.29972  -0.28198  -0.26173  -0.23296
 Alpha  occ. eigenvalues --   -0.20218
 Alpha virt. eigenvalues --   -0.04585  -0.00910   0.02501   0.05412   0.05920
 Alpha virt. eigenvalues --    0.07987   0.09558   0.10526   0.10733   0.11101
 Alpha virt. eigenvalues --    0.11877   0.12260   0.12444   0.13020   0.13262

 Mulliken charges:
               1
     1  O   -0.547862
     2  O   -0.543425
     3  C   -0.038905
     4  C    0.000044
     5  C   -0.233571
     6  C   -0.188235
     7  C    0.185625
     8  C    0.187749
     9  C    0.095418
    10  C    0.041337
    11  C   -0.218638
    12  C   -0.233149
    13  C    0.017448
    14  C    0.089627
    15  C   -0.278110
    16  C   -0.311225
    17  C   -0.276009
    18  C   -0.296683
    19  C   -0.140568
    20  C   -0.142718
    21  C   -0.345187
    22  C   -0.370069
    23  C   -0.102660
    24  C   -0.103076
    25  C    0.072870
    26  C    0.133483
    27  C   -0.357779
    28  C   -0.371616
    29  C   -0.127535
    30  C   -0.147066
    31  C   -0.092116
    32  C   -0.058444
    33  C   -0.120889
    34  C   -0.112745
    35  C    0.156970
    36  C    0.103414
    37  C   -0.379064
    38  C   -0.371752
    39  C   -0.136645
    40  C   -0.139181
    41  C   -0.084576
    42  C   -0.090443
    43  H    0.101336
    44  H    0.088907
    45  H    0.075200
    46  H    0.090513
    47  H    0.060385
    48  H    0.066567
    49  H    0.127467
    50  H    0.123066
    51  H    0.098403
    52  H    0.107413
    53  H    0.102361
    54  H    0.122129
    55  H    0.088610
    56  H    0.121199
    57  H    0.103863
    58  H    0.102897
    59  H    0.075810
    60  H    0.121685
    61  H    0.075977
    62  H    0.110210
    63  H    0.071097
    64  H    0.099186
    65  H    0.080108
    66  H    0.073151
    67  H    0.131669
    68  H    0.104809
    69  H    0.100983
    70  H    0.097602
    71  H    0.125349
    72  H    0.125406
    73  H    0.270573
    74  H    0.304501
    75  H    0.075036
    76  H    0.082180
    77  H    0.108968
    78  H    0.115658
    79  H    0.120620
    80  H    0.075873
    81  H    0.141528
    82  H    0.085555
    83  H    0.077650
    84  H    0.096851
    85  H    0.081112
    86  H    0.087673
    87  H    0.092891
    88  H    0.072545
    89  H    0.109936
    90  H    0.125881
    91  H    0.096164
    92  H    0.146382
    93  H    0.144660
    94  H    0.064580
    95  H    0.085928
    96  H    0.079427
    97  H    0.086725
    98  H    0.073704
 Sum of Mulliken charges =  -0.00000

 Dipole moment (field-independent basis, Debye):
    X=             -1.2309    Y=             -0.0910    Z=              2.7424  Tot=              3.0073
 Quadrupole moment (field-independent basis, Debye-Ang):
   XX=           -288.1715   YY=           -249.9893   ZZ=           -258.3852
   XY=             16.0969   XZ=              6.7278   YZ=              0.0120

 Normal termination of Gaussian 16 at Wed Jul  3 06:30:11 2019.
