 Gaussian 16, Revision A.03,
 Gaussian 16:  ES64L-G16RevA.03 25-Dec-2016

 -------------------------------------
 # td=(NStates=1) CAM-B3LYP/6-31G(d,p)
 -------------------------------------

 --
 TD
 --
 Symbolic Z-matrix:
 Charge =  0 Multiplicity = 1

                         Standard orientation:
 ---------------------------------------------------------------------
 Center     Atomic      Atomic             Coordinates (Angstroms)
 Number     Number       Type             X           Y           Z
 ---------------------------------------------------------------------
      1          8           0       14.624379   -2.399585   -0.370441
      2          8           0      -14.778302    2.196271    0.700578
      3          6           0       11.592851   -0.867233    1.315112
      4          6           0      -12.358983   -0.913007    0.875933
      5          6           0       13.082086   -1.378581    1.088913
      6          6           0      -13.575071   -0.101476    0.847892
      7          6           0       13.327941   -1.924271   -0.245293
      8          6           0      -13.484253    1.460762    0.725999
      9          6           0       10.972631   -0.263594   -0.011332
     10          6           0      -11.415647   -0.290169   -0.153443
     11          6           0       12.902775   -0.993157   -1.381633
     12          6           0      -12.840606    1.762248   -0.614810
     13          6           0       11.592524   -0.325673   -1.142585
     14          6           0      -11.610378    0.818635   -0.844569
     15          6           0       11.513947    0.105225    2.483735
     16          6           0       10.732353   -2.014905    1.591605
     17          6           0      -11.741588   -0.869787    2.347067
     18          6           0      -12.698261   -2.299406    0.420780
     19          6           0        9.736018    0.436798    0.278301
     20          6           0      -10.129686   -1.140246   -0.418622
     21          6           0       11.126951    0.239186   -2.499385
     22          6           0      -10.715877    1.325344   -1.930319
     23          6           0        9.356961    1.659471   -0.120168
     24          6           0       -8.929443   -0.649939   -0.279696
     25          6           0        7.987571    2.315253    0.018464
     26          6           0       -7.614761   -1.347732   -0.515428
     27          6           0        7.981445    3.748820    0.175743
     28          6           0       -7.579061   -2.798591   -0.693944
     29          6           0        6.830881    1.571456   -0.103800
     30          6           0       -6.410124   -0.629983   -0.392783
     31          6           0        5.498488    2.040436    0.035066
     32          6           0       -5.026201   -1.214732   -0.411229
     33          6           0        4.495344    1.272220   -0.078987
     34          6           0       -3.970675   -0.366618   -0.323743
     35          6           0        3.000129    1.516652    0.090670
     36          6           0       -2.546675   -0.892782   -0.379908
     37          6           0        2.698420    3.020773    0.428440
     38          6           0       -2.189565   -2.324636   -0.851232
     39          6           0        2.101589    0.733850    0.017664
     40          6           0       -1.622202   -0.003143   -0.184796
     41          6           0        0.656477    0.780548   -0.023777
     42          6           0       -0.198840   -0.244311   -0.233448
     43          1           0       13.726254   -0.553510    1.125951
     44          1           0       13.342572   -1.811358    2.034242
     45          1           0      -14.360320   -0.234994    1.765343
     46          1           0      -14.270899   -0.347238   -0.008570
     47          1           0       12.600995   -2.830979   -0.503162
     48          1           0      -12.809131    1.888800    1.375335
     49          1           0       13.637995   -0.223505   -1.306623
     50          1           0       12.881190   -1.623221   -2.277935
     51          1           0      -13.654809    1.483896   -1.368861
     52          1           0      -12.500363    2.600585   -0.749521
     53          1           0       11.808381   -0.432390    3.489262
     54          1           0       10.451007    0.586970    2.720960
     55          1           0       12.263233    0.934607    2.316571
     56          1           0       10.428422   -2.804452    0.753506
     57          1           0       11.292759   -2.560999    2.561835
     58          1           0        9.824469   -1.793728    2.037723
     59          1           0      -11.609287    0.339680    2.713692
     60          1           0      -10.581823   -1.255002    2.091582
     61          1           0      -12.149595   -1.428479    3.241067
     62          1           0      -13.671726   -2.625830    0.770797
     63          1           0      -11.773278   -3.040762    0.492145
     64          1           0      -13.005019   -2.244308   -0.666164
     65          1           0        9.011725   -0.010133    0.974668
     66          1           0      -10.327580   -2.173481   -0.759704
     67          1           0       10.189059    0.651567   -2.448237
     68          1           0       11.866440    0.964544   -3.007237
     69          1           0       11.028478   -0.597248   -3.346357
     70          1           0      -11.361292    1.548294   -2.823565
     71          1           0       -9.855474    0.550787   -2.322152
     72          1           0      -10.123008    2.114175   -1.632975
     73          1           0       14.621952   -3.123609    0.286619
     74          1           0      -15.137441    2.205652    1.631155
     75          1           0        9.952756    2.261506   -0.761201
     76          1           0       -8.769178    0.443883    0.138134
     77          1           0        8.357984    4.531662   -0.766358
     78          1           0        6.916907    4.132736    0.552006
     79          1           0        9.012009    4.074190    0.809279
     80          1           0       -8.031270   -3.427741    0.156834
     81          1           0       -8.163372   -3.092856   -1.648114
     82          1           0       -6.560002   -3.250448   -1.016772
     83          1           0        6.916140    0.516912   -0.171542
     84          1           0       -6.594504    0.487349   -0.163160
     85          1           0        5.238920    3.042178    0.397599
     86          1           0       -5.088733   -2.204975   -0.561772
     87          1           0        4.770907    0.239351   -0.356123
     88          1           0       -3.873266    0.767340   -0.328881
     89          1           0        2.891588    3.414630    1.388115
     90          1           0        1.789334    3.273344    0.346593
     91          1           0        3.395867    3.461038   -0.328729
     92          1           0       -2.540687   -3.029951    0.002740
     93          1           0       -2.938515   -2.438019   -1.652512
     94          1           0       -1.180293   -2.629816   -1.087908
     95          1           0        2.301022   -0.186803   -0.342515
     96          1           0       -1.969916    0.949893    0.265932
     97          1           0        0.165596    1.652840    0.274608
     98          1           0        0.271286   -1.238277   -0.387465
 ---------------------------------------------------------------------

 SCF Done:  E(RCAM-B3LYP) =  -1706.92759728     A.U. after   13 cycles

 Excitation energies and oscillator strengths:

 Excited State   1:      Singlet-A      3.5235 eV  351.88 nm  f=3.6364  <S**2>=0.000
     155 ->158         0.22099
     156 ->157         0.66036
 This state for optimization and/or second-order correction.
 Total Energy, E(TD-HF/TD-DFT) =  -1706.79811136
 Copying the excited state density for this state as the 1-particle RhoCI density.

 The electronic state is 1-A.
 Alpha  occ. eigenvalues --  -19.21592 -19.21502 -10.30510 -10.29974 -10.29061
 Alpha  occ. eigenvalues --  -10.28007 -10.27982 -10.27820 -10.27714 -10.27586
 Alpha  occ. eigenvalues --  -10.27586 -10.27232 -10.27184 -10.26851 -10.26788
 Alpha  occ. eigenvalues --  -10.26775 -10.26725 -10.26549 -10.26500 -10.26228
 Alpha  occ. eigenvalues --  -10.26203 -10.26152 -10.26097 -10.26042 -10.26025
 Alpha  occ. eigenvalues --  -10.25926 -10.25841 -10.25823 -10.25683 -10.25673
 Alpha  occ. eigenvalues --  -10.25671 -10.25655 -10.25562 -10.25454 -10.25251
 Alpha  occ. eigenvalues --  -10.25210 -10.25131 -10.24868 -10.24331 -10.23727
 Alpha  occ. eigenvalues --  -10.23246 -10.23002  -1.11014  -1.06862  -0.94262
 Alpha  occ. eigenvalues --   -0.93907  -0.93030  -0.91747  -0.90686  -0.89878
 Alpha  occ. eigenvalues --   -0.87821  -0.87543  -0.87244  -0.86182  -0.84946
 Alpha  occ. eigenvalues --   -0.84043  -0.82296  -0.80493  -0.80005  -0.78499
 Alpha  occ. eigenvalues --   -0.76630  -0.76374  -0.75911  -0.75872  -0.75338
 Alpha  occ. eigenvalues --   -0.75082  -0.75005  -0.74385  -0.74219  -0.70249
 Alpha  occ. eigenvalues --   -0.68642  -0.67363  -0.65940  -0.64995  -0.64021
 Alpha  occ. eigenvalues --   -0.63538  -0.62687  -0.62178  -0.61655  -0.60798
 Alpha  occ. eigenvalues --   -0.59174  -0.59038  -0.58151  -0.57614  -0.56695
 Alpha  occ. eigenvalues --   -0.56000  -0.55574  -0.54953  -0.54675  -0.54195
 Alpha  occ. eigenvalues --   -0.53469  -0.53174  -0.52735  -0.52394  -0.51221
 Alpha  occ. eigenvalues --   -0.50937  -0.49865  -0.49690  -0.49442  -0.49091
 Alpha  occ. eigenvalues --   -0.49013  -0.48557  -0.48423  -0.48276  -0.48083
 Alpha  occ. eigenvalues --   -0.47755  -0.47362  -0.47203  -0.46341  -0.46149
 Alpha  occ. eigenvalues --   -0.45937  -0.45411  -0.45368  -0.45090  -0.44692
 Alpha  occ. eigenvalues --   -0.44661  -0.44419  -0.44183  -0.43834  -0.43298
 Alpha  occ. eigenvalues --   -0.43007  -0.42492  -0.42410  -0.42016  -0.41636
 Alpha  occ. eigenvalues --   -0.41487  -0.40980  -0.40734  -0.40708  -0.40510
 Alpha  occ. eigenvalues --   -0.40422  -0.40387  -0.40097  -0.39835  -0.39342
 Alpha  occ. eigenvalues --   -0.39276  -0.38894  -0.38597  -0.38440  -0.38090
 Alpha  occ. eigenvalues --   -0.37493  -0.36190  -0.35925  -0.35639  -0.35523
 Alpha  occ. eigenvalues --   -0.35488  -0.34505  -0.33468  -0.32857  -0.32616
 Alpha  occ. eigenvalues --   -0.31669  -0.29722  -0.29069  -0.27639  -0.25028
 Alpha  occ. eigenvalues --   -0.22771
 Alpha virt. eigenvalues --   -0.02401   0.00363   0.03636   0.06225   0.08074
 Alpha virt. eigenvalues --    0.10024   0.11017   0.11791   0.11925   0.12260
 Alpha virt. eigenvalues --    0.12612   0.12796   0.12891   0.13072   0.13309

 Mulliken charges:
               1
     1  O   -0.545252
     2  O   -0.569029
     3  C   -0.022852
     4  C    0.046157
     5  C   -0.184156
     6  C   -0.195096
     7  C    0.156127
     8  C    0.142310
     9  C    0.093796
    10  C    0.030335
    11  C   -0.216385
    12  C   -0.164270
    13  C    0.032067
    14  C    0.034576
    15  C   -0.303020
    16  C   -0.271808
    17  C   -0.285686
    18  C   -0.314837
    19  C   -0.124011
    20  C   -0.153610
    21  C   -0.354911
    22  C   -0.364494
    23  C   -0.109547
    24  C   -0.070278
    25  C    0.094523
    26  C    0.115055
    27  C   -0.362533
    28  C   -0.385634
    29  C   -0.115475
    30  C   -0.138626
    31  C   -0.047667
    32  C   -0.079100
    33  C   -0.115642
    34  C   -0.103865
    35  C    0.140814
    36  C    0.114235
    37  C   -0.363244
    38  C   -0.362754
    39  C   -0.143613
    40  C   -0.150857
    41  C   -0.082820
    42  C   -0.079207
    43  H    0.102866
    44  H    0.091278
    45  H    0.053981
    46  H    0.095297
    47  H    0.040143
    48  H    0.092296
    49  H    0.121256
    50  H    0.119673
    51  H    0.110452
    52  H    0.097917
    53  H    0.085515
    54  H    0.103782
    55  H    0.106058
    56  H    0.098089
    57  H    0.052008
    58  H    0.116025
    59  H    0.067859
    60  H    0.082405
    61  H    0.112752
    62  H    0.111651
    63  H    0.095254
    64  H    0.103684
    65  H    0.090960
    66  H    0.096407
    67  H    0.121594
    68  H    0.107815
    69  H    0.087852
    70  H    0.107599
    71  H    0.099838
    72  H    0.126684
    73  H    0.313095
    74  H    0.306052
    75  H    0.091621
    76  H    0.082478
    77  H    0.088930
    78  H    0.111752
    79  H    0.094970
    80  H    0.120579
    81  H    0.107131
    82  H    0.101983
    83  H    0.084259
    84  H    0.072230
    85  H    0.082184
    86  H    0.083733
    87  H    0.065685
    88  H    0.105903
    89  H    0.115785
    90  H    0.107571
    91  H    0.106153
    92  H    0.108224
    93  H    0.120396
    94  H    0.123209
    95  H    0.056687
    96  H    0.080830
    97  H    0.065839
    98  H    0.084013
 Sum of Mulliken charges =  -0.00000

 Dipole moment (field-independent basis, Debye):
    X=             -0.1782    Y=             -1.1902    Z=              1.8089  Tot=              2.1727
 Quadrupole moment (field-independent basis, Debye-Ang):
   XX=           -289.2786   YY=           -246.8195   ZZ=           -259.8083
   XY=             10.6929   XZ=             -1.5029   YZ=              2.7159

 Normal termination of Gaussian 16 at Thu Jul  4 03:07:38 2019.
