 Gaussian 16, Revision A.03,
 Gaussian 16:  ES64L-G16RevA.03 25-Dec-2016

 -------------------------------------
 # td=(NStates=1) CAM-B3LYP/6-31G(d,p)
 -------------------------------------

 --
 TD
 --
 Symbolic Z-matrix:
 Charge =  0 Multiplicity = 1

                         Standard orientation:
 ---------------------------------------------------------------------
 Center     Atomic      Atomic             Coordinates (Angstroms)
 Number     Number       Type             X           Y           Z
 ---------------------------------------------------------------------
      1          8           0       14.532796   -2.574329   -0.374371
      2          8           0      -14.875326    1.737386    0.816050
      3          6           0       11.328478   -1.113998    1.231822
      4          6           0      -12.185783   -0.947902    0.909048
      5          6           0       12.890804   -1.415459    1.091641
      6          6           0      -13.560486   -0.336717    0.919620
      7          6           0       13.167157   -2.106353   -0.204366
      8          6           0      -13.484999    1.175097    0.741932
      9          6           0       10.871073   -0.337784   -0.106626
     10          6           0      -11.196052   -0.317261   -0.146340
     11          6           0       12.939663   -1.066867   -1.285397
     12          6           0      -12.855048    1.522002   -0.614557
     13          6           0       11.680983   -0.336660   -1.202903
     14          6           0      -11.622427    0.653962   -0.949234
     15          6           0       11.035036   -0.145123    2.426152
     16          6           0       10.618893   -2.438214    1.453137
     17          6           0      -11.394660   -0.755568    2.250755
     18          6           0      -12.361598   -2.413035    0.581272
     19          6           0        9.600766    0.283180    0.141336
     20          6           0      -10.017780   -1.076417   -0.455636
     21          6           0       11.201953    0.356841   -2.473131
     22          6           0      -10.895429    1.338562   -2.043933
     23          6           0        9.429378    1.587719   -0.129391
     24          6           0       -8.813779   -0.506147   -0.466986
     25          6           0        8.061557    2.246864    0.027283
     26          6           0       -7.534241   -1.162069   -0.684203
     27          6           0        8.217634    3.758273    0.457416
     28          6           0       -7.539418   -2.720626   -0.875685
     29          6           0        6.892769    1.657588   -0.070099
     30          6           0       -6.362309   -0.463627   -0.527207
     31          6           0        5.487254    2.187649    0.146214
     32          6           0       -5.085146   -1.043648   -0.438622
     33          6           0        4.461678    1.349398    0.053949
     34          6           0       -3.984445   -0.267805   -0.161425
     35          6           0        3.091610    1.830804    0.148092
     36          6           0       -2.653817   -0.688267   -0.291486
     37          6           0        2.821601    3.281209    0.581065
     38          6           0       -2.358656   -2.118526   -0.802263
     39          6           0        2.126847    0.939497   -0.158570
     40          6           0       -1.640002    0.159242   -0.109717
     41          6           0        0.590561    1.202206   -0.075113
     42          6           0       -0.241485    0.108882   -0.245699
     43          1           0       13.518624   -0.429640    1.453343
     44          1           0       13.194626   -1.963620    2.030195
     45          1           0      -13.981175   -0.585212    1.783381
     46          1           0      -14.075933   -0.827229    0.216559
     47          1           0       12.323486   -2.776449   -0.514718
     48          1           0      -12.810927    1.463416    1.712396
     49          1           0       13.794975   -0.190907   -1.069219
     50          1           0       13.062614   -1.403123   -2.333205
     51          1           0      -13.723680    1.365964   -1.208627
     52          1           0      -12.725692    2.645696   -0.662957
     53          1           0       11.439637   -0.583013    3.367629
     54          1           0       10.063234   -0.042540    2.577427
     55          1           0       11.536823    0.828972    2.320545
     56          1           0       10.806825   -3.062452    0.635338
     57          1           0       10.808307   -3.119789    2.271667
     58          1           0        9.518851   -2.338461    1.211118
     59          1           0      -11.089986    0.316386    2.658794
     60          1           0      -10.445517   -1.268169    2.312283
     61          1           0      -12.045443   -1.058964    3.106743
     62          1           0      -13.140290   -2.906390    1.106434
     63          1           0      -11.406405   -3.025924    0.763979
     64          1           0      -12.499093   -2.532852   -0.511784
     65          1           0        8.826866   -0.333946    0.224708
     66          1           0      -10.017584   -2.127482   -0.970696
     67          1           0       10.283158    0.853412   -2.083437
     68          1           0       11.914826    0.947447   -2.775097
     69          1           0       10.983541   -0.525804   -3.235288
     70          1           0      -11.588889    1.336868   -2.832416
     71          1           0      -10.002123    0.935329   -2.391627
     72          1           0      -10.551182    2.315723   -1.844553
     73          1           0       14.807683   -3.167183    0.263423
     74          1           0      -15.189867    1.479868    1.627040
     75          1           0       10.089349    2.246114   -0.512273
     76          1           0       -8.736316    0.527658   -0.091532
     77          1           0        8.829169    4.321347   -0.383691
     78          1           0        7.241668    4.171524    0.513370
     79          1           0        8.834434    3.930991    1.263609
     80          1           0       -7.685897   -3.258597    0.009661
     81          1           0       -7.931724   -3.085976   -1.701056
     82          1           0       -6.535288   -3.231082   -1.186544
     83          1           0        7.003122    0.756200   -0.287209
     84          1           0       -6.675791    0.535176   -0.327384
     85          1           0        5.207068    3.233559    0.382223
     86          1           0       -4.903139   -2.106624   -0.697252
     87          1           0        4.536048    0.499581   -0.141608
     88          1           0       -4.306609    0.838582   -0.176866
     89          1           0        3.227878    3.475294    1.581725
     90          1           0        1.704122    3.322720    0.641810
     91          1           0        3.203358    3.918376   -0.068905
     92          1           0       -2.748630   -2.760774   -0.112901
     93          1           0       -2.867698   -2.243398   -1.787919
     94          1           0       -1.266228   -2.290016   -0.960596
     95          1           0        2.305287   -0.038913   -0.488566
     96          1           0       -2.036865    1.188609    0.268950
     97          1           0        0.089053    2.183629    0.178139
     98          1           0        0.204773   -0.823769   -0.510859
 ---------------------------------------------------------------------

 SCF Done:  E(RCAM-B3LYP) =  -1706.97137180     A.U. after   13 cycles

 Excitation energies and oscillator strengths:

 Excited State   1:      Singlet-A      2.9661 eV  418.00 nm  f=3.5874  <S**2>=0.000
     155 ->158         0.15570
     156 ->157         0.68458
 This state for optimization and/or second-order correction.
 Total Energy, E(TD-HF/TD-DFT) =  -1706.86236959
 Copying the excited state density for this state as the 1-particle RhoCI density.

 The electronic state is 1-A.
 Alpha  occ. eigenvalues --  -19.20922 -19.20334 -10.31370 -10.31224 -10.27950
 Alpha  occ. eigenvalues --  -10.27838 -10.27420 -10.27404 -10.26963 -10.26639
 Alpha  occ. eigenvalues --  -10.26619 -10.26592 -10.26504 -10.26503 -10.26426
 Alpha  occ. eigenvalues --  -10.26253 -10.26237 -10.26232 -10.26172 -10.25984
 Alpha  occ. eigenvalues --  -10.25981 -10.25839 -10.25700 -10.25695 -10.25606
 Alpha  occ. eigenvalues --  -10.25544 -10.25367 -10.25345 -10.25336 -10.25224
 Alpha  occ. eigenvalues --  -10.25177 -10.25120 -10.25055 -10.24807 -10.24737
 Alpha  occ. eigenvalues --  -10.24293 -10.24210 -10.24060 -10.23507 -10.23309
 Alpha  occ. eigenvalues --  -10.22899 -10.22695  -1.09267  -1.08234  -0.94007
 Alpha  occ. eigenvalues --   -0.93576  -0.92198  -0.91821  -0.90386  -0.89850
 Alpha  occ. eigenvalues --   -0.87801  -0.86986  -0.86859  -0.86046  -0.85154
 Alpha  occ. eigenvalues --   -0.83171  -0.82118  -0.80690  -0.80236  -0.78438
 Alpha  occ. eigenvalues --   -0.77656  -0.77177  -0.76990  -0.76880  -0.75973
 Alpha  occ. eigenvalues --   -0.75885  -0.75420  -0.75006  -0.74646  -0.70722
 Alpha  occ. eigenvalues --   -0.69529  -0.67481  -0.65992  -0.65697  -0.64140
 Alpha  occ. eigenvalues --   -0.63856  -0.63094  -0.61967  -0.61677  -0.60520
 Alpha  occ. eigenvalues --   -0.59723  -0.59063  -0.58432  -0.57752  -0.56497
 Alpha  occ. eigenvalues --   -0.55838  -0.55310  -0.55098  -0.54942  -0.53920
 Alpha  occ. eigenvalues --   -0.53725  -0.53278  -0.52470  -0.51892  -0.51180
 Alpha  occ. eigenvalues --   -0.51019  -0.50562  -0.50142  -0.49907  -0.49738
 Alpha  occ. eigenvalues --   -0.49640  -0.49386  -0.49057  -0.48488  -0.48062
 Alpha  occ. eigenvalues --   -0.47823  -0.47427  -0.47184  -0.47112  -0.46600
 Alpha  occ. eigenvalues --   -0.46493  -0.45712  -0.45474  -0.45229  -0.45060
 Alpha  occ. eigenvalues --   -0.44871  -0.44640  -0.44433  -0.44175  -0.43864
 Alpha  occ. eigenvalues --   -0.43551  -0.43341  -0.42868  -0.42657  -0.42090
 Alpha  occ. eigenvalues --   -0.41679  -0.41334  -0.40966  -0.40581  -0.40297
 Alpha  occ. eigenvalues --   -0.40201  -0.39893  -0.39701  -0.39446  -0.39335
 Alpha  occ. eigenvalues --   -0.39200  -0.39048  -0.38755  -0.38513  -0.38244
 Alpha  occ. eigenvalues --   -0.38099  -0.37963  -0.37083  -0.36237  -0.35685
 Alpha  occ. eigenvalues --   -0.35158  -0.34664  -0.33401  -0.32918  -0.31872
 Alpha  occ. eigenvalues --   -0.31539  -0.29815  -0.28507  -0.26933  -0.24651
 Alpha  occ. eigenvalues --   -0.21142
 Alpha virt. eigenvalues --   -0.03693   0.00502   0.03432   0.06332   0.07779
 Alpha virt. eigenvalues --    0.09084   0.10775   0.12586   0.12878   0.13053
 Alpha virt. eigenvalues --    0.13376   0.13824   0.14278   0.14334   0.14735

 Mulliken charges:
               1
     1  O   -0.564306
     2  O   -0.562231
     3  C   -0.013967
     4  C   -0.011644
     5  C   -0.195425
     6  C   -0.163249
     7  C    0.182151
     8  C    0.132574
     9  C    0.019943
    10  C    0.033420
    11  C   -0.205900
    12  C   -0.222856
    13  C    0.047931
    14  C    0.054955
    15  C   -0.301397
    16  C   -0.311002
    17  C   -0.315199
    18  C   -0.318942
    19  C   -0.104187
    20  C   -0.126494
    21  C   -0.333598
    22  C   -0.357175
    23  C   -0.080138
    24  C   -0.101098
    25  C    0.043281
    26  C    0.087392
    27  C   -0.363004
    28  C   -0.381226
    29  C   -0.076858
    30  C   -0.111908
    31  C   -0.107567
    32  C   -0.085776
    33  C    0.014083
    34  C   -0.120606
    35  C    0.082518
    36  C    0.111522
    37  C   -0.367924
    38  C   -0.369879
    39  C   -0.147306
    40  C   -0.135583
    41  C   -0.102892
    42  C   -0.070298
    43  H    0.080779
    44  H    0.075562
    45  H    0.088897
    46  H    0.105910
    47  H    0.097814
    48  H    0.062285
    49  H    0.089991
    50  H    0.103946
    51  H    0.130590
    52  H    0.112575
    53  H    0.083331
    54  H    0.119573
    55  H    0.101355
    56  H    0.105509
    57  H    0.111592
    58  H    0.086295
    59  H    0.088400
    60  H    0.117780
    61  H    0.085744
    62  H    0.106212
    63  H    0.094996
    64  H    0.108862
    65  H    0.103650
    66  H    0.096337
    67  H    0.110148
    68  H    0.123548
    69  H    0.093006
    70  H    0.116315
    71  H    0.111775
    72  H    0.119793
    73  H    0.298348
    74  H    0.298946
    75  H    0.093389
    76  H    0.082688
    77  H    0.086466
    78  H    0.112437
    79  H    0.131801
    80  H    0.135506
    81  H    0.128815
    82  H    0.078531
    83  H    0.042738
    84  H    0.077828
    85  H    0.082374
    86  H    0.090169
    87  H    0.017688
    88  H    0.086820
    89  H    0.123719
    90  H    0.104366
    91  H    0.137880
    92  H    0.132636
    93  H    0.118947
    94  H    0.104011
    95  H    0.086501
    96  H    0.060852
    97  H    0.095561
    98  H    0.078281
 Sum of Mulliken charges =  -0.00000

 Dipole moment (field-independent basis, Debye):
    X=              0.5268    Y=             -2.0225    Z=              1.4030  Tot=              2.5172
 Quadrupole moment (field-independent basis, Debye-Ang):
   XX=           -289.4710   YY=           -243.5718   ZZ=           -259.1391
   XY=             14.3964   XZ=              3.6043   YZ=              0.7322

 Normal termination of Gaussian 16 at Sat Jul  6 20:50:20 2019.
