 Gaussian 16, Revision A.03,
 Gaussian 16:  ES64L-G16RevA.03 25-Dec-2016

 -------------------------------------
 # td=(NStates=1) CAM-B3LYP/6-31G(d,p)
 -------------------------------------

 --
 TD
 --
 Symbolic Z-matrix:
 Charge =  0 Multiplicity = 1

                         Standard orientation:
 ---------------------------------------------------------------------
 Center     Atomic      Atomic             Coordinates (Angstroms)
 Number     Number       Type             X           Y           Z
 ---------------------------------------------------------------------
      1          8           0       14.879883   -2.012525   -0.241996
      2          8           0      -14.917729    1.843922    0.931218
      3          6           0       11.514434   -1.011437    1.277172
      4          6           0      -12.293584   -0.976854    0.794105
      5          6           0       13.015056   -1.315933    1.242574
      6          6           0      -13.607288   -0.194609    0.933523
      7          6           0       13.443433   -1.801948   -0.164926
      8          6           0      -13.529292    1.329392    0.989376
      9          6           0       11.015220   -0.408699   -0.092820
     10          6           0      -11.302244   -0.277967   -0.138647
     11          6           0       12.977956   -0.883899   -1.264444
     12          6           0      -12.880167    1.723033   -0.287731
     13          6           0       11.669812   -0.292880   -1.192840
     14          6           0      -11.562645    0.968314   -0.729069
     15          6           0       11.294522   -0.100380    2.513785
     16          6           0       10.879073   -2.415813    1.444268
     17          6           0      -11.694754   -1.061366    2.333538
     18          6           0      -12.608520   -2.395537    0.276726
     19          6           0        9.658420    0.171812    0.214810
     20          6           0      -10.127781   -1.051763   -0.412149
     21          6           0       11.157158    0.381761   -2.455839
     22          6           0      -10.680358    1.586786   -1.687083
     23          6           0        9.235625    1.366063   -0.146826
     24          6           0       -8.834027   -0.532123   -0.392026
     25          6           0        8.078149    2.172327    0.032424
     26          6           0       -7.568657   -1.252702   -0.673449
     27          6           0        7.994115    3.687175    0.355358
     28          6           0       -7.591847   -2.747821   -0.904671
     29          6           0        6.871173    1.430421    0.016281
     30          6           0       -6.406846   -0.560821   -0.552051
     31          6           0        5.477461    1.871925    0.075917
     32          6           0       -5.081921   -1.098425   -0.726736
     33          6           0        4.398387    1.179497   -0.091303
     34          6           0       -4.004875   -0.395045   -0.440341
     35          6           0        3.060515    1.679038    0.058560
     36          6           0       -2.610440   -0.788826   -0.704870
     37          6           0        2.797155    3.196466    0.437830
     38          6           0       -2.285194   -2.144208   -1.126350
     39          6           0        2.039514    0.823603   -0.101192
     40          6           0       -1.728792    0.129222   -0.217124
     41          6           0        0.601356    1.069717    0.002137
     42          6           0       -0.304054    0.036125   -0.230437
     43          1           0       13.420612   -0.305892    1.250012
     44          1           0       13.442537   -2.047089    2.059582
     45          1           0      -14.256463   -0.634915    1.719440
     46          1           0      -14.151714   -0.338200   -0.079040
     47          1           0       12.827239   -2.737660   -0.198515
     48          1           0      -13.086381    1.730114    1.846374
     49          1           0       13.613565   -0.006320   -1.236381
     50          1           0       13.018160   -1.286197   -2.120647
     51          1           0      -13.712459    1.490187   -1.012491
     52          1           0      -12.696637    2.754855   -0.484293
     53          1           0       11.790047   -0.508111    3.482514
     54          1           0       10.211231    0.083384    2.647124
     55          1           0       11.787214    0.926728    2.505513
     56          1           0       10.860152   -2.839319    0.605594
     57          1           0       11.469287   -2.807900    2.114976
     58          1           0        9.794821   -2.584320    1.693614
     59          1           0      -11.607394   -0.010650    2.612050
     60          1           0      -10.924884   -1.834515    2.346660
     61          1           0      -12.389548   -1.723008    3.044582
     62          1           0      -13.383559   -2.765471    1.018837
     63          1           0      -11.848948   -3.005719    0.174262
     64          1           0      -12.982491   -2.281260   -0.786745
     65          1           0        8.703054   -0.293676    0.747630
     66          1           0      -10.048892   -2.228147   -0.493244
     67          1           0       10.134853    0.576014   -2.174113
     68          1           0       11.790488    1.133488   -2.680610
     69          1           0       11.244865   -0.366557   -3.203725
     70          1           0      -11.405534    2.006291   -2.534818
     71          1           0       -9.877773    0.991674   -2.251297
     72          1           0      -10.084857    2.473135   -1.158720
     73          1           0       15.093351   -2.597939    0.554177
     74          1           0      -15.474043    1.090976    1.410274
     75          1           0       10.184332    1.833676   -0.747284
     76          1           0       -8.599700    0.513724   -0.267607
     77          1           0        8.931344    4.229381   -0.205412
     78          1           0        6.992827    4.309137   -0.067203
     79          1           0        8.102983    3.839410    1.497759
     80          1           0       -8.182007   -3.145468   -0.025558
     81          1           0       -8.240551   -2.932413   -1.603378
     82          1           0       -6.660614   -3.241497   -0.980424
     83          1           0        6.886754    0.299573    0.034265
     84          1           0       -6.345496    0.561095   -0.441365
     85          1           0        5.379708    3.007639    0.471066
     86          1           0       -5.015072   -2.033172   -1.369902
     87          1           0        4.579320   -0.046704   -0.192347
     88          1           0       -4.175942    0.672535   -0.014302
     89          1           0        3.346253    3.280264    1.312986
     90          1           0        1.696385    3.210320    0.376328
     91          1           0        3.111136    3.898698   -0.394940
     92          1           0       -2.686631   -2.808017   -0.460886
     93          1           0       -2.529870   -2.237256   -2.163618
     94          1           0       -1.204562   -2.482272   -0.963354
     95          1           0        2.328017   -0.207119   -0.280205
     96          1           0       -2.045029    1.066335    0.183523
     97          1           0        0.143777    2.097644    0.134158
     98          1           0        0.184032   -0.952396   -0.357419
 ---------------------------------------------------------------------

 SCF Done:  E(RCAM-B3LYP) =  -1706.96936767     A.U. after   14 cycles

 Excitation energies and oscillator strengths:

 Excited State   1:      Singlet-A      2.8774 eV  430.89 nm  f=3.7006  <S**2>=0.000
     155 ->158         0.19505
     156 ->157         0.67039
 This state for optimization and/or second-order correction.
 Total Energy, E(TD-HF/TD-DFT) =  -1706.86362517
 Copying the excited state density for this state as the 1-particle RhoCI density.

 The electronic state is 1-A.
 Alpha  occ. eigenvalues --  -19.21669 -19.21430 -10.30352 -10.30302 -10.29516
 Alpha  occ. eigenvalues --  -10.28545 -10.27892 -10.27677 -10.27542 -10.27480
 Alpha  occ. eigenvalues --  -10.27440 -10.27251 -10.27213 -10.27061 -10.27019
 Alpha  occ. eigenvalues --  -10.26977 -10.26940 -10.26660 -10.26498 -10.26383
 Alpha  occ. eigenvalues --  -10.26306 -10.26279 -10.26176 -10.26051 -10.26048
 Alpha  occ. eigenvalues --  -10.26045 -10.26002 -10.25965 -10.25924 -10.25887
 Alpha  occ. eigenvalues --  -10.25816 -10.25581 -10.25536 -10.25424 -10.25385
 Alpha  occ. eigenvalues --  -10.25341 -10.25316 -10.24517 -10.24497 -10.23754
 Alpha  occ. eigenvalues --  -10.23142 -10.21734  -1.07729  -1.06654  -0.94528
 Alpha  occ. eigenvalues --   -0.93109  -0.92380  -0.91606  -0.90373  -0.89787
 Alpha  occ. eigenvalues --   -0.88557  -0.87137  -0.86565  -0.85665  -0.84701
 Alpha  occ. eigenvalues --   -0.83624  -0.82379  -0.80327  -0.80176  -0.78638
 Alpha  occ. eigenvalues --   -0.77534  -0.77501  -0.76950  -0.76233  -0.76011
 Alpha  occ. eigenvalues --   -0.75672  -0.75074  -0.74784  -0.73625  -0.70317
 Alpha  occ. eigenvalues --   -0.68704  -0.67352  -0.66113  -0.65015  -0.64135
 Alpha  occ. eigenvalues --   -0.63507  -0.61550  -0.61348  -0.60235  -0.59198
 Alpha  occ. eigenvalues --   -0.58394  -0.58102  -0.57963  -0.57391  -0.56454
 Alpha  occ. eigenvalues --   -0.56110  -0.55465  -0.55087  -0.54691  -0.53639
 Alpha  occ. eigenvalues --   -0.52908  -0.52746  -0.52157  -0.51992  -0.51599
 Alpha  occ. eigenvalues --   -0.51084  -0.50836  -0.50485  -0.49937  -0.49449
 Alpha  occ. eigenvalues --   -0.49424  -0.49267  -0.48418  -0.48343  -0.48187
 Alpha  occ. eigenvalues --   -0.47988  -0.47793  -0.47348  -0.47218  -0.46844
 Alpha  occ. eigenvalues --   -0.46216  -0.45780  -0.45144  -0.44984  -0.44747
 Alpha  occ. eigenvalues --   -0.44558  -0.44372  -0.44125  -0.43889  -0.43757
 Alpha  occ. eigenvalues --   -0.43510  -0.42894  -0.42779  -0.42147  -0.42042
 Alpha  occ. eigenvalues --   -0.41813  -0.41417  -0.41144  -0.41089  -0.40729
 Alpha  occ. eigenvalues --   -0.40663  -0.40360  -0.40295  -0.39633  -0.39505
 Alpha  occ. eigenvalues --   -0.38833  -0.38621  -0.38443  -0.38036  -0.37747
 Alpha  occ. eigenvalues --   -0.37656  -0.37338  -0.36419  -0.36365  -0.35352
 Alpha  occ. eigenvalues --   -0.35153  -0.34787  -0.33979  -0.32937  -0.32233
 Alpha  occ. eigenvalues --   -0.31276  -0.30037  -0.28640  -0.26277  -0.23853
 Alpha  occ. eigenvalues --   -0.21188
 Alpha virt. eigenvalues --   -0.03903  -0.00372   0.02591   0.06547   0.08285
 Alpha virt. eigenvalues --    0.10050   0.10853   0.11280   0.11634   0.11734
 Alpha virt. eigenvalues --    0.12304   0.12415   0.12630   0.13684   0.13930

 Mulliken charges:
               1
     1  O   -0.565017
     2  O   -0.575481
     3  C   -0.019377
     4  C   -0.031127
     5  C   -0.208172
     6  C   -0.217550
     7  C    0.160646
     8  C    0.177899
     9  C    0.037046
    10  C    0.064145
    11  C   -0.189105
    12  C   -0.221021
    13  C    0.022111
    14  C    0.083815
    15  C   -0.299303
    16  C   -0.273378
    17  C   -0.296816
    18  C   -0.290063
    19  C   -0.116359
    20  C   -0.151675
    21  C   -0.345253
    22  C   -0.372067
    23  C   -0.108695
    24  C   -0.086975
    25  C    0.081665
    26  C    0.095391
    27  C   -0.348979
    28  C   -0.369110
    29  C   -0.123138
    30  C   -0.143431
    31  C   -0.087023
    32  C   -0.095251
    33  C   -0.088414
    34  C   -0.106352
    35  C    0.075024
    36  C    0.106140
    37  C   -0.346497
    38  C   -0.376122
    39  C   -0.121270
    40  C   -0.120615
    41  C   -0.097472
    42  C   -0.093823
    43  H    0.101082
    44  H    0.072165
    45  H    0.079900
    46  H    0.093937
    47  H    0.069917
    48  H    0.096855
    49  H    0.117743
    50  H    0.108304
    51  H    0.123228
    52  H    0.106768
    53  H    0.086794
    54  H    0.109023
    55  H    0.098601
    56  H    0.115217
    57  H    0.100785
    58  H    0.083687
    59  H    0.114488
    60  H    0.112032
    61  H    0.072239
    62  H    0.092380
    63  H    0.111249
    64  H    0.097780
    65  H    0.072995
    66  H    0.072648
    67  H    0.132537
    68  H    0.126836
    69  H    0.111065
    70  H    0.093038
    71  H    0.129877
    72  H    0.104912
    73  H    0.308744
    74  H    0.308046
    75  H    0.059125
    76  H    0.080034
    77  H    0.096184
    78  H    0.106987
    79  H    0.130251
    80  H    0.112046
    81  H    0.134408
    82  H    0.116133
    83  H    0.077202
    84  H    0.080664
    85  H    0.064291
    86  H    0.086437
    87  H    0.067662
    88  H    0.078640
    89  H    0.136436
    90  H    0.108130
    91  H    0.116682
    92  H    0.140285
    93  H    0.131699
    94  H    0.104664
    95  H    0.080458
    96  H    0.081529
    97  H    0.088335
    98  H    0.077892
 Sum of Mulliken charges =  -0.00000

 Dipole moment (field-independent basis, Debye):
    X=             -0.6378    Y=             -2.1317    Z=              1.0785  Tot=              2.4727
 Quadrupole moment (field-independent basis, Debye-Ang):
   XX=           -296.4815   YY=           -247.0590   ZZ=           -260.7857
   XY=             21.3827   XZ=              8.5761   YZ=             -1.2594

 Normal termination of Gaussian 16 at Tue Jul  2 14:22:45 2019.
