 Gaussian 16, Revision A.03,
 Gaussian 16:  ES64L-G16RevA.03 25-Dec-2016

 -------------------------------------
 # td=(NStates=1) CAM-B3LYP/6-31G(d,p)
 -------------------------------------

 --
 TD
 --
 Symbolic Z-matrix:
 Charge =  0 Multiplicity = 1

                         Standard orientation:
 ---------------------------------------------------------------------
 Center     Atomic      Atomic             Coordinates (Angstroms)
 Number     Number       Type             X           Y           Z
 ---------------------------------------------------------------------
      1          8           0       14.652624   -2.451602   -0.306032
      2          8           0      -14.728864    2.083310    0.672634
      3          6           0       11.410672   -1.119119    1.218150
      4          6           0      -12.260819   -0.944070    1.050167
      5          6           0       12.850235   -1.487199    1.176560
      6          6           0      -13.658358   -0.123046    0.842201
      7          6           0       13.226044   -2.056065   -0.173647
      8          6           0      -13.482025    1.369534    0.703619
      9          6           0       10.840230   -0.358441   -0.080216
     10          6           0      -11.289565   -0.419145   -0.118471
     11          6           0       13.085915   -0.972375   -1.241441
     12          6           0      -12.872389    1.538357   -0.644435
     13          6           0       11.659317   -0.327781   -1.184321
     14          6           0      -11.574274    0.772470   -0.882348
     15          6           0       11.257436   -0.100146    2.539732
     16          6           0       10.495330   -2.276949    1.387039
     17          6           0      -11.574421   -0.766036    2.250643
     18          6           0      -12.601189   -2.435397    0.787183
     19          6           0        9.516249    0.336128    0.140519
     20          6           0      -10.100414   -1.214352   -0.334656
     21          6           0       11.151178    0.373131   -2.457146
     22          6           0      -10.742875    1.373520   -1.942750
     23          6           0        9.298897    1.621637   -0.188907
     24          6           0       -8.787189   -0.666003   -0.420130
     25          6           0        7.997841    2.347245    0.016442
     26          6           0       -7.536110   -1.274731   -0.632788
     27          6           0        8.260518    3.833212    0.335172
     28          6           0       -7.563209   -2.664194   -0.970002
     29          6           0        6.866473    1.654501   -0.105152
     30          6           0       -6.356652   -0.595169   -0.418614
     31          6           0        5.512276    2.068892    0.193433
     32          6           0       -5.030523   -1.121409   -0.564387
     33          6           0        4.536699    1.268421    0.016039
     34          6           0       -4.006436   -0.369238   -0.184791
     35          6           0        3.097488    1.687984    0.092820
     36          6           0       -2.654544   -0.702179   -0.397788
     37          6           0        2.806635    3.112560    0.749314
     38          6           0       -2.224267   -2.022218   -0.934558
     39          6           0        2.091581    0.765540   -0.193258
     40          6           0       -1.610933    0.251406   -0.165453
     41          6           0        0.695066    1.004472    0.002716
     42          6           0       -0.191050    0.028106   -0.285478
     43          1           0       13.490292   -0.589376    1.057232
     44          1           0       13.217871   -2.223201    1.967416
     45          1           0      -14.179360   -0.534251    1.712073
     46          1           0      -14.095777   -0.586760   -0.054091
     47          1           0       12.498450   -2.738310   -0.552194
     48          1           0      -12.929554    1.704357    1.462869
     49          1           0       13.794728   -0.151314   -1.355566
     50          1           0       13.181708   -1.705032   -2.283895
     51          1           0      -13.653194    1.097943   -1.409814
     52          1           0      -12.690623    2.484436   -0.764781
     53          1           0       11.829636   -0.808955    3.220302
     54          1           0       10.076346   -0.113490    2.642698
     55          1           0       11.705596    0.963252    2.234583
     56          1           0       10.791957   -2.888642    0.567375
     57          1           0       10.800834   -2.693293    2.406196
     58          1           0        9.435573   -2.130040    1.384073
     59          1           0      -11.394028    0.244842    2.653859
     60          1           0      -10.664357   -1.502696    2.450488
     61          1           0      -12.508778   -0.928376    3.028101
     62          1           0      -13.415861   -2.735787    1.386823
     63          1           0      -11.723670   -3.236039    0.790785
     64          1           0      -12.901411   -2.447071   -0.412913
     65          1           0        8.717274   -0.067329    0.523690
     66          1           0      -10.153588   -2.365207   -0.549523
     67          1           0       10.224040    1.028961   -2.138712
     68          1           0       12.053228    1.057594   -2.811022
     69          1           0       11.213978   -0.384662   -3.309252
     70          1           0      -11.426090    1.651081   -2.921844
     71          1           0      -10.086417    0.743705   -2.494569
     72          1           0      -10.215159    2.044499   -1.938939
     73          1           0       14.775914   -3.081108    0.421127
     74          1           0      -15.245656    1.806957    1.392038
     75          1           0        9.999456    2.259756   -0.522020
     76          1           0       -8.929316    0.460055   -0.354101
     77          1           0        8.665300    4.343921   -0.632521
     78          1           0        7.202621    4.265700    0.769118
     79          1           0        9.027239    3.911906    1.177904
     80          1           0       -8.118458   -3.559023   -0.297673
     81          1           0       -8.284240   -2.842771   -1.855723
     82          1           0       -6.654400   -3.353513   -1.216477
     83          1           0        6.978474    0.595728   -0.438136
     84          1           0       -6.594596    0.401130   -0.259821
     85          1           0        5.476441    3.261482    0.399682
     86          1           0       -4.881110   -2.083413   -0.908030
     87          1           0        4.623628    0.415809   -0.471980
     88          1           0       -4.250827    0.702613    0.357524
     89          1           0        3.078837    3.289491    1.672191
     90          1           0        1.697834    3.387843    0.829272
     91          1           0        3.093948    3.924906    0.113824
     92          1           0       -2.445591   -2.851722   -0.148922
     93          1           0       -2.793016   -2.537882   -1.687977
     94          1           0       -1.161737   -2.040430   -1.304763
     95          1           0        2.531632   -0.276237   -0.661471
     96          1           0       -2.036488    1.044388    0.486499
     97          1           0        0.449249    1.988801    0.441359
     98          1           0        0.178113   -1.030006   -0.611262
 ---------------------------------------------------------------------

 SCF Done:  E(RCAM-B3LYP) =  -1706.84645530     A.U. after   15 cycles

 Excitation energies and oscillator strengths:

 Excited State   1:      Singlet-A      2.6401 eV  469.62 nm  f=3.6082  <S**2>=0.000
     155 ->158         0.15760
     156 ->157         0.68498
 This state for optimization and/or second-order correction.
 Total Energy, E(TD-HF/TD-DFT) =  -1706.74943269
 Copying the excited state density for this state as the 1-particle RhoCI density.

 The electronic state is 1-A.
 Alpha  occ. eigenvalues --  -19.21676 -19.20480 -10.30350 -10.29315 -10.28770
 Alpha  occ. eigenvalues --  -10.28297 -10.27879 -10.27734 -10.27649 -10.27609
 Alpha  occ. eigenvalues --  -10.27344 -10.27314 -10.27312 -10.27205 -10.27169
 Alpha  occ. eigenvalues --  -10.27084 -10.27071 -10.26968 -10.26920 -10.26896
 Alpha  occ. eigenvalues --  -10.26759 -10.26726 -10.26688 -10.26687 -10.26651
 Alpha  occ. eigenvalues --  -10.26578 -10.26434 -10.26304 -10.26164 -10.26135
 Alpha  occ. eigenvalues --  -10.25909 -10.25755 -10.25752 -10.25749 -10.25701
 Alpha  occ. eigenvalues --  -10.25516 -10.25352 -10.25169 -10.24846 -10.24442
 Alpha  occ. eigenvalues --  -10.24323 -10.23362  -1.09588  -1.08039  -0.93298
 Alpha  occ. eigenvalues --   -0.93219  -0.92403  -0.91892  -0.90752  -0.89851
 Alpha  occ. eigenvalues --   -0.88000  -0.87800  -0.86051  -0.85559  -0.84836
 Alpha  occ. eigenvalues --   -0.83837  -0.82300  -0.80744  -0.80253  -0.77994
 Alpha  occ. eigenvalues --   -0.76801  -0.76666  -0.76230  -0.75972  -0.75868
 Alpha  occ. eigenvalues --   -0.74765  -0.74348  -0.73939  -0.73612  -0.70778
 Alpha  occ. eigenvalues --   -0.69023  -0.68065  -0.65748  -0.65452  -0.64149
 Alpha  occ. eigenvalues --   -0.63063  -0.61789  -0.61663  -0.60775  -0.60488
 Alpha  occ. eigenvalues --   -0.59294  -0.59130  -0.58689  -0.57699  -0.57088
 Alpha  occ. eigenvalues --   -0.56148  -0.55654  -0.55329  -0.54475  -0.54270
 Alpha  occ. eigenvalues --   -0.53489  -0.52774  -0.52510  -0.51098  -0.51007
 Alpha  occ. eigenvalues --   -0.50391  -0.50030  -0.49817  -0.49584  -0.49228
 Alpha  occ. eigenvalues --   -0.49007  -0.48652  -0.48454  -0.48039  -0.47357
 Alpha  occ. eigenvalues --   -0.47026  -0.46959  -0.46727  -0.46527  -0.46067
 Alpha  occ. eigenvalues --   -0.45988  -0.45782  -0.45725  -0.45121  -0.44836
 Alpha  occ. eigenvalues --   -0.44587  -0.44356  -0.43897  -0.43738  -0.43305
 Alpha  occ. eigenvalues --   -0.42854  -0.42651  -0.42575  -0.42450  -0.42293
 Alpha  occ. eigenvalues --   -0.41718  -0.41655  -0.41034  -0.40938  -0.40608
 Alpha  occ. eigenvalues --   -0.40324  -0.40088  -0.39754  -0.39481  -0.39379
 Alpha  occ. eigenvalues --   -0.39273  -0.38663  -0.38605  -0.38016  -0.37936
 Alpha  occ. eigenvalues --   -0.37496  -0.37285  -0.36896  -0.36604  -0.35219
 Alpha  occ. eigenvalues --   -0.34867  -0.33674  -0.32964  -0.32826  -0.32143
 Alpha  occ. eigenvalues --   -0.31563  -0.29471  -0.27979  -0.26248  -0.24103
 Alpha  occ. eigenvalues --   -0.20510
 Alpha virt. eigenvalues --   -0.04593  -0.00312   0.02502   0.05495   0.07307
 Alpha virt. eigenvalues --    0.09245   0.10465   0.10843   0.11158   0.11518
 Alpha virt. eigenvalues --    0.11962   0.12369   0.12828   0.13301   0.13466

 Mulliken charges:
               1
     1  O   -0.560922
     2  O   -0.562625
     3  C   -0.042709
     4  C   -0.002550
     5  C   -0.182276
     6  C   -0.215061
     7  C    0.142282
     8  C    0.188370
     9  C    0.040428
    10  C    0.023430
    11  C   -0.213672
    12  C   -0.191041
    13  C    0.033202
    14  C    0.047773
    15  C   -0.280716
    16  C   -0.281268
    17  C   -0.270962
    18  C   -0.293953
    19  C   -0.082967
    20  C   -0.131034
    21  C   -0.347570
    22  C   -0.345011
    23  C   -0.099854
    24  C   -0.137348
    25  C    0.061813
    26  C    0.172218
    27  C   -0.357026
    28  C   -0.405685
    29  C   -0.126292
    30  C   -0.118477
    31  C   -0.055223
    32  C   -0.066118
    33  C   -0.094247
    34  C   -0.100059
    35  C    0.067335
    36  C    0.121423
    37  C   -0.376706
    38  C   -0.384446
    39  C   -0.125319
    40  C   -0.144737
    41  C   -0.064362
    42  C   -0.090040
    43  H    0.118069
    44  H    0.078539
    45  H    0.074002
    46  H    0.107688
    47  H    0.097925
    48  H    0.088616
    49  H    0.125975
    50  H    0.076074
    51  H    0.111480
    52  H    0.109796
    53  H    0.098793
    54  H    0.091922
    55  H    0.102081
    56  H    0.106459
    57  H    0.079167
    58  H    0.113756
    59  H    0.112154
    60  H    0.115590
    61  H    0.051747
    62  H    0.111038
    63  H    0.095889
    64  H    0.081384
    65  H    0.078329
    66  H    0.080335
    67  H    0.113113
    68  H    0.083676
    69  H    0.112763
    70  H    0.067972
    71  H    0.118924
    72  H    0.120580
    73  H    0.301411
    74  H    0.298091
    75  H    0.082672
    76  H    0.079726
    77  H    0.123755
    78  H    0.092684
    79  H    0.126409
    80  H    0.088243
    81  H    0.113080
    82  H    0.106042
    83  H    0.082074
    84  H    0.078217
    85  H    0.079977
    86  H    0.087701
    87  H    0.078019
    88  H    0.077923
    89  H    0.138476
    90  H    0.087334
    91  H    0.123515
    92  H    0.108823
    93  H    0.117365
    94  H    0.110653
    95  H    0.071921
    96  H    0.082865
    97  H    0.097197
    98  H    0.093997
 Sum of Mulliken charges =  -0.00000

 Dipole moment (field-independent basis, Debye):
    X=             -0.0945    Y=             -1.0526    Z=              1.9039  Tot=              2.1775
 Quadrupole moment (field-independent basis, Debye-Ang):
   XX=           -288.5014   YY=           -245.3278   ZZ=           -263.3300
   XY=             16.0481   XZ=             -1.5378   YZ=              2.1759

 Normal termination of Gaussian 16 at Thu Jul  4 16:36:43 2019.
