 Gaussian 16, Revision A.03,
 Gaussian 16:  ES64L-G16RevA.03 25-Dec-2016

 -------------------------------------
 # td=(NStates=1) CAM-B3LYP/6-31G(d,p)
 -------------------------------------

 --
 TD
 --
 Symbolic Z-matrix:
 Charge =  0 Multiplicity = 1

                         Standard orientation:
 ---------------------------------------------------------------------
 Center     Atomic      Atomic             Coordinates (Angstroms)
 Number     Number       Type             X           Y           Z
 ---------------------------------------------------------------------
      1          8           0       14.668030   -2.147765   -0.383704
      2          8           0      -14.706085    2.019130    0.699893
      3          6           0       11.584997   -0.970469    1.315349
      4          6           0      -12.297859   -0.857712    0.934949
      5          6           0       12.985893   -1.287160    1.099052
      6          6           0      -13.694622   -0.257717    0.906085
      7          6           0       13.276217   -1.862659   -0.281745
      8          6           0      -13.540257    1.268946    0.802342
      9          6           0       10.959677   -0.411906    0.095041
     10          6           0      -11.270526   -0.344210   -0.153589
     11          6           0       12.936728   -0.953638   -1.423286
     12          6           0      -12.866272    1.651351   -0.459924
     13          6           0       11.623596   -0.351629   -1.108492
     14          6           0      -11.627015    0.795503   -0.840563
     15          6           0       11.377297   -0.187422    2.529339
     16          6           0       10.770393   -2.264764    1.577754
     17          6           0      -11.711277   -0.634833    2.364921
     18          6           0      -12.567393   -2.465251    0.709533
     19          6           0        9.626958    0.306410    0.211017
     20          6           0      -10.035052   -1.004922   -0.364333
     21          6           0       11.138325    0.333246   -2.258899
     22          6           0      -10.784751    1.442517   -1.980394
     23          6           0        9.356409    1.527784   -0.090249
     24          6           0       -8.819023   -0.469831   -0.392858
     25          6           0        7.981637    2.169845    0.135329
     26          6           0       -7.598757   -1.313492   -0.470368
     27          6           0        8.080817    3.739148    0.315529
     28          6           0       -7.756844   -2.715560   -0.892491
     29          6           0        6.827592    1.520334   -0.096319
     30          6           0       -6.341662   -0.697387   -0.443600
     31          6           0        5.485037    2.125682    0.057655
     32          6           0       -5.050504   -1.200724   -0.573341
     33          6           0        4.436988    1.408488   -0.102723
     34          6           0       -4.059952   -0.457749   -0.506302
     35          6           0        3.024125    1.719686    0.155695
     36          6           0       -2.557976   -0.868438   -0.525146
     37          6           0        2.717742    3.149365    0.542057
     38          6           0       -2.252112   -2.274428   -0.998088
     39          6           0        2.154819    0.811970   -0.182562
     40          6           0       -1.607219    0.051871   -0.181191
     41          6           0        0.725891    0.941302   -0.082865
     42          6           0       -0.166652   -0.009341   -0.368895
     43          1           0       13.677571   -0.463457    1.081689
     44          1           0       13.417180   -1.994950    1.775604
     45          1           0      -14.263871   -0.499530    1.851608
     46          1           0      -14.201851   -0.478580   -0.145966
     47          1           0       12.654460   -2.944265   -0.531405
     48          1           0      -12.937481    1.616300    1.668827
     49          1           0       13.888629   -0.277809   -1.550298
     50          1           0       12.993689   -1.504836   -2.352752
     51          1           0      -13.484631    1.527487   -1.282373
     52          1           0      -12.623373    2.751229   -0.305447
     53          1           0       11.716500   -0.705587    3.501350
     54          1           0       10.352531    0.085209    2.944225
     55          1           0       11.894547    0.750634    2.676737
     56          1           0       10.678059   -3.048752    0.740180
     57          1           0       11.114101   -3.017608    2.488541
     58          1           0        9.773488   -2.034554    1.494695
     59          1           0      -11.663829    0.339909    2.683459
     60          1           0      -10.747796   -1.175974    2.421035
     61          1           0      -12.372420   -1.063203    2.982836
     62          1           0      -13.320385   -2.890460    1.332238
     63          1           0      -11.539563   -3.085492    1.092573
     64          1           0      -12.780550   -2.693064   -0.221126
     65          1           0        8.918978   -0.380312    0.643101
     66          1           0      -10.148014   -2.067007   -0.455558
     67          1           0        9.955709    0.628913   -2.284057
     68          1           0       11.893824    1.289509   -2.453432
     69          1           0       11.251917   -0.269619   -3.174135
     70          1           0      -11.435045    1.706870   -2.978764
     71          1           0      -10.121124    0.573774   -2.427477
     72          1           0      -10.433118    2.510518   -1.685686
     73          1           0       14.837758   -2.956581    0.359438
     74          1           0      -15.345598    1.765099    1.402102
     75          1           0       10.049049    2.205487   -0.629982
     76          1           0       -8.846986    0.705814   -0.291293
     77          1           0        8.791973    4.288346   -0.283058
     78          1           0        7.088224    3.975643    0.199295
     79          1           0        8.713176    3.962212    1.389323
     80          1           0       -8.349725   -3.245344   -0.274698
     81          1           0       -8.015295   -2.841079   -1.854667
     82          1           0       -6.746401   -3.421555   -0.807279
     83          1           0        6.893381    0.518746   -0.522354
     84          1           0       -6.423948    0.336534   -0.202714
     85          1           0        5.337988    3.122371    0.638204
     86          1           0       -4.958698   -2.230410   -1.186765
     87          1           0        4.621515    0.415193   -0.448581
     88          1           0       -4.103728    0.594331   -0.293116
     89          1           0        3.206707    3.247739    1.498168
     90          1           0        1.642414    3.148242    0.483338
     91          1           0        3.037795    3.674287   -0.441540
     92          1           0       -2.678864   -3.012130   -0.422294
     93          1           0       -2.990162   -2.574976   -1.968272
     94          1           0       -1.274764   -2.302488   -1.362969
     95          1           0        2.532113   -0.185496   -0.488359
     96          1           0       -2.040544    1.055918    0.016702
     97          1           0        0.247866    1.828930    0.385296
     98          1           0        0.178575   -0.844267   -0.794204
 ---------------------------------------------------------------------

 SCF Done:  E(RCAM-B3LYP) =  -1706.94919839     A.U. after   13 cycles

 Excitation energies and oscillator strengths:

 Excited State   1:      Singlet-A      3.3142 eV  374.10 nm  f=3.5384  <S**2>=0.000
     155 ->158        -0.20086
     156 ->157         0.66698
 This state for optimization and/or second-order correction.
 Total Energy, E(TD-HF/TD-DFT) =  -1706.82740357
 Copying the excited state density for this state as the 1-particle RhoCI density.

 The electronic state is 1-A.
 Alpha  occ. eigenvalues --  -19.22043 -19.21080 -10.30822 -10.29403 -10.28419
 Alpha  occ. eigenvalues --  -10.28022 -10.27511 -10.27376 -10.27313 -10.27086
 Alpha  occ. eigenvalues --  -10.26744 -10.26721 -10.26431 -10.26421 -10.26372
 Alpha  occ. eigenvalues --  -10.26298 -10.26203 -10.26100 -10.26050 -10.26049
 Alpha  occ. eigenvalues --  -10.26012 -10.26001 -10.25952 -10.25920 -10.25883
 Alpha  occ. eigenvalues --  -10.25783 -10.25656 -10.25603 -10.25477 -10.25457
 Alpha  occ. eigenvalues --  -10.25366 -10.25358 -10.25351 -10.25208 -10.25159
 Alpha  occ. eigenvalues --  -10.24824 -10.24696 -10.24660 -10.24651 -10.24133
 Alpha  occ. eigenvalues --  -10.24124 -10.22987  -1.10042  -1.07476  -0.94987
 Alpha  occ. eigenvalues --   -0.92906  -0.92774  -0.91983  -0.90306  -0.89651
 Alpha  occ. eigenvalues --   -0.88550  -0.88072  -0.86392  -0.85608  -0.84784
 Alpha  occ. eigenvalues --   -0.83750  -0.82527  -0.80268  -0.79460  -0.78430
 Alpha  occ. eigenvalues --   -0.77057  -0.76802  -0.76438  -0.76398  -0.76104
 Alpha  occ. eigenvalues --   -0.75334  -0.75101  -0.74745  -0.74282  -0.69945
 Alpha  occ. eigenvalues --   -0.68105  -0.66848  -0.65247  -0.64831  -0.63766
 Alpha  occ. eigenvalues --   -0.63306  -0.62491  -0.61977  -0.60312  -0.60216
 Alpha  occ. eigenvalues --   -0.59856  -0.58326  -0.57719  -0.57503  -0.56259
 Alpha  occ. eigenvalues --   -0.55812  -0.55265  -0.55057  -0.54515  -0.54120
 Alpha  occ. eigenvalues --   -0.53659  -0.53268  -0.52805  -0.51852  -0.51431
 Alpha  occ. eigenvalues --   -0.50929  -0.50803  -0.50128  -0.49959  -0.49626
 Alpha  occ. eigenvalues --   -0.49263  -0.49062  -0.48779  -0.48483  -0.48061
 Alpha  occ. eigenvalues --   -0.47907  -0.47574  -0.47038  -0.46568  -0.46302
 Alpha  occ. eigenvalues --   -0.45890  -0.45709  -0.45384  -0.45041  -0.44925
 Alpha  occ. eigenvalues --   -0.44463  -0.44143  -0.43255  -0.43081  -0.42928
 Alpha  occ. eigenvalues --   -0.42863  -0.42676  -0.42539  -0.42044  -0.41952
 Alpha  occ. eigenvalues --   -0.41520  -0.41192  -0.40817  -0.40558  -0.40525
 Alpha  occ. eigenvalues --   -0.40218  -0.40036  -0.39758  -0.39436  -0.39154
 Alpha  occ. eigenvalues --   -0.38914  -0.38385  -0.38174  -0.38115  -0.38036
 Alpha  occ. eigenvalues --   -0.37781  -0.37205  -0.36581  -0.36310  -0.35707
 Alpha  occ. eigenvalues --   -0.35363  -0.34502  -0.34088  -0.32665  -0.31508
 Alpha  occ. eigenvalues --   -0.31354  -0.29365  -0.28008  -0.26613  -0.24442
 Alpha  occ. eigenvalues --   -0.22151
 Alpha virt. eigenvalues --   -0.02773   0.00638   0.03457   0.05899   0.07635
 Alpha virt. eigenvalues --    0.09133   0.09581   0.11121   0.11703   0.12214
 Alpha virt. eigenvalues --    0.12430   0.13122   0.13318   0.13664   0.13930

 Mulliken charges:
               1
     1  O   -0.567004
     2  O   -0.557873
     3  C    0.030624
     4  C   -0.019328
     5  C   -0.169996
     6  C   -0.191068
     7  C    0.161346
     8  C    0.174262
     9  C    0.026609
    10  C    0.064096
    11  C   -0.220523
    12  C   -0.201790
    13  C    0.092494
    14  C    0.023065
    15  C   -0.313610
    16  C   -0.303021
    17  C   -0.299484
    18  C   -0.305647
    19  C   -0.104873
    20  C   -0.135798
    21  C   -0.369078
    22  C   -0.357523
    23  C   -0.091659
    24  C   -0.086142
    25  C    0.040146
    26  C    0.074845
    27  C   -0.342622
    28  C   -0.369941
    29  C   -0.113543
    30  C   -0.125400
    31  C   -0.106741
    32  C   -0.053230
    33  C   -0.085116
    34  C   -0.088378
    35  C    0.078913
    36  C    0.100481
    37  C   -0.351767
    38  C   -0.363042
    39  C   -0.117603
    40  C   -0.145242
    41  C   -0.093967
    42  C   -0.071595
    43  H    0.111186
    44  H    0.078756
    45  H    0.082261
    46  H    0.087840
    47  H    0.036597
    48  H    0.066826
    49  H    0.109465
    50  H    0.120583
    51  H    0.126177
    52  H    0.106324
    53  H    0.087261
    54  H    0.104083
    55  H    0.105110
    56  H    0.088278
    57  H    0.080345
    58  H    0.111150
    59  H    0.111962
    60  H    0.106600
    61  H    0.103822
    62  H    0.105795
    63  H    0.057841
    64  H    0.121004
    65  H    0.089893
    66  H    0.085030
    67  H    0.099598
    68  H    0.089173
    69  H    0.104590
    70  H    0.079362
    71  H    0.117864
    72  H    0.114118
    73  H    0.301351
    74  H    0.298287
    75  H    0.102013
    76  H    0.095721
    77  H    0.127091
    78  H    0.119286
    79  H    0.081866
    80  H    0.128807
    81  H    0.140715
    82  H    0.074177
    83  H    0.091840
    84  H    0.074576
    85  H    0.086818
    86  H    0.076614
    87  H    0.069286
    88  H    0.079573
    89  H    0.133813
    90  H    0.112656
    91  H    0.127638
    92  H    0.141888
    93  H    0.075188
    94  H    0.122122
    95  H    0.082914
    96  H    0.074600
    97  H    0.082649
    98  H    0.065336
 Sum of Mulliken charges =  -0.00000

 Dipole moment (field-independent basis, Debye):
    X=             -1.2468    Y=             -1.5103    Z=              1.4624  Tot=              2.4442
 Quadrupole moment (field-independent basis, Debye-Ang):
   XX=           -262.9388   YY=           -248.3634   ZZ=           -258.8714
   XY=             10.8285   XZ=             -3.9684   YZ=              1.7872

 Normal termination of Gaussian 16 at Wed Jul 10 18:26:04 2019.
