 Gaussian 16, Revision A.03,
 Gaussian 16:  ES64L-G16RevA.03 25-Dec-2016

 -------------------------------------
 # td=(NStates=1) CAM-B3LYP/6-31G(d,p)
 -------------------------------------

 --
 TD
 --
 Symbolic Z-matrix:
 Charge =  0 Multiplicity = 1

                         Standard orientation:
 ---------------------------------------------------------------------
 Center     Atomic      Atomic             Coordinates (Angstroms)
 Number     Number       Type             X           Y           Z
 ---------------------------------------------------------------------
      1          8           0       14.781546   -2.087320   -0.443668
      2          8           0      -14.777811    2.094375    0.549645
      3          6           0       11.477863   -1.109080    1.198116
      4          6           0      -12.394596   -0.931408    0.663571
      5          6           0       13.025507   -1.401070    0.964902
      6          6           0      -13.708801   -0.098880    0.460306
      7          6           0       13.388061   -1.838889   -0.419788
      8          6           0      -13.488966    1.389373    0.690460
      9          6           0       11.026649   -0.260159   -0.091910
     10          6           0      -11.334025   -0.315645   -0.240581
     11          6           0       13.126526   -0.694472   -1.250549
     12          6           0      -12.629247    1.918874   -0.458109
     13          6           0       11.760297   -0.136208   -1.208011
     14          6           0      -11.525618    0.974662   -0.768239
     15          6           0       11.382368   -0.268097    2.461846
     16          6           0       10.693496   -2.385113    1.290625
     17          6           0      -11.985299   -1.035897    2.146774
     18          6           0      -12.729455   -2.414046    0.124859
     19          6           0        9.658483    0.413036    0.114749
     20          6           0      -10.124298   -1.027834   -0.410456
     21          6           0       11.242545    0.700043   -2.488861
     22          6           0      -10.404844    1.639413   -1.531564
     23          6           0        9.351649    1.597786   -0.130074
     24          6           0       -8.842234   -0.611265   -0.273929
     25          6           0        7.998471    2.255562    0.134987
     26          6           0       -7.583464   -1.361133   -0.410398
     27          6           0        7.942160    3.692122    0.403425
     28          6           0       -7.533029   -2.770523   -0.993272
     29          6           0        6.851020    1.489176    0.006667
     30          6           0       -6.489759   -0.631124   -0.389129
     31          6           0        5.489498    1.884728    0.129511
     32          6           0       -5.143540   -1.091346   -0.372278
     33          6           0        4.384117    1.029477    0.102366
     34          6           0       -4.033201   -0.399400   -0.153672
     35          6           0        3.026513    1.543134    0.166297
     36          6           0       -2.659076   -0.799113   -0.270912
     37          6           0        2.682464    2.913966    0.487767
     38          6           0       -2.371575   -2.253030   -0.726575
     39          6           0        2.057265    0.588906   -0.041963
     40          6           0       -1.622381   -0.032179    0.077418
     41          6           0        0.696355    0.756191    0.222809
     42          6           0       -0.257686   -0.235823   -0.084773
     43          1           0       13.537455   -0.699326    1.217467
     44          1           0       13.228288   -2.110753    1.710183
     45          1           0      -14.408997   -0.383137    1.357250
     46          1           0      -14.241081   -0.347742   -0.502085
     47          1           0       12.726042   -2.686653   -0.838283
     48          1           0      -12.929016    1.719828    1.703867
     49          1           0       13.988622   -0.082094   -1.109105
     50          1           0       13.411074   -1.030469   -2.360547
     51          1           0      -13.205111    1.978243   -1.401086
     52          1           0      -12.313006    2.870301   -0.257375
     53          1           0       11.843962   -0.668870    3.169696
     54          1           0       10.288679   -0.219797    2.752834
     55          1           0       11.919977    0.723003    2.441138
     56          1           0       10.811104   -2.867839    0.434845
     57          1           0       11.166036   -2.671514    2.381732
     58          1           0        9.461173   -2.237201    1.268262
     59          1           0      -11.776111   -0.124732    2.484316
     60          1           0      -11.023108   -1.675606    2.281881
     61          1           0      -12.867517   -1.592016    2.651414
     62          1           0      -13.756505   -2.858778    0.450157
     63          1           0      -11.997316   -2.958303    0.684290
     64          1           0      -12.532591   -2.329373   -1.022135
     65          1           0        9.193244   -0.298704    1.028238
     66          1           0      -10.480507   -2.161837   -0.531717
     67          1           0       10.301822    0.569862   -2.223719
     68          1           0       11.674923    1.836832   -2.496039
     69          1           0       11.520979    0.043909   -3.389975
     70          1           0      -10.841011    2.502919   -2.329471
     71          1           0       -9.651728    0.908227   -2.218034
     72          1           0       -9.784015    2.342465   -0.807530
     73          1           0       14.858363   -2.752615    0.220291
     74          1           0      -15.395471    1.920006    1.327138
     75          1           0       10.178685    2.141666   -0.635599
     76          1           0       -8.788349    0.353194    0.113849
     77          1           0        8.509625    4.329621   -0.328285
     78          1           0        6.858629    4.107119    0.249625
     79          1           0        8.306193    3.959148    1.413519
     80          1           0       -8.328648   -3.473267   -0.469188
     81          1           0       -7.842372   -2.662559   -2.024910
     82          1           0       -6.539420   -3.246252   -0.858192
     83          1           0        7.036724    0.569338   -0.369505
     84          1           0       -6.721073    0.402359    0.142603
     85          1           0        5.328386    2.906227    0.221058
     86          1           0       -5.243240   -2.115239   -0.800835
     87          1           0        4.514699    0.097581   -0.170399
     88          1           0       -4.266192    0.664738    0.378587
     89          1           0        2.742152    3.132138    1.606746
     90          1           0        1.649169    3.267087    0.452123
     91          1           0        3.384600    3.562825   -0.187057
     92          1           0       -2.650582   -3.186544   -0.218517
     93          1           0       -2.904440   -2.390733   -1.742877
     94          1           0       -1.355760   -2.502240   -1.052557
     95          1           0        2.514093   -0.352296   -0.157248
     96          1           0       -1.796113    1.048585    0.527919
     97          1           0        0.068276    1.826825    0.576096
     98          1           0        0.185162   -1.262280   -0.387138
 ---------------------------------------------------------------------

 SCF Done:  E(RCAM-B3LYP) =  -1706.89231051     A.U. after   14 cycles

 Excitation energies and oscillator strengths:

 Excited State   1:      Singlet-A      2.5510 eV  486.01 nm  f=3.7123  <S**2>=0.000
     155 ->158         0.15151
     156 ->157         0.68694
 This state for optimization and/or second-order correction.
 Total Energy, E(TD-HF/TD-DFT) =  -1706.79856119
 Copying the excited state density for this state as the 1-particle RhoCI density.

 The electronic state is 1-A.
 Alpha  occ. eigenvalues --  -19.21583 -19.20911 -10.31574 -10.29981 -10.28358
 Alpha  occ. eigenvalues --  -10.28094 -10.27889 -10.27867 -10.27566 -10.27537
 Alpha  occ. eigenvalues --  -10.27114 -10.27009 -10.26991 -10.26987 -10.26793
 Alpha  occ. eigenvalues --  -10.26707 -10.26544 -10.26510 -10.26417 -10.26395
 Alpha  occ. eigenvalues --  -10.26359 -10.26255 -10.26175 -10.26076 -10.26046
 Alpha  occ. eigenvalues --  -10.25995 -10.25956 -10.25927 -10.25818 -10.25780
 Alpha  occ. eigenvalues --  -10.25777 -10.25725 -10.25707 -10.25691 -10.25535
 Alpha  occ. eigenvalues --  -10.25357 -10.25180 -10.25013 -10.24485 -10.24339
 Alpha  occ. eigenvalues --  -10.23907 -10.22805  -1.11201  -1.06553  -0.93877
 Alpha  occ. eigenvalues --   -0.93393  -0.92408  -0.91886  -0.90830  -0.90228
 Alpha  occ. eigenvalues --   -0.87728  -0.87115  -0.86614  -0.86290  -0.85088
 Alpha  occ. eigenvalues --   -0.83395  -0.81943  -0.81000  -0.79351  -0.78108
 Alpha  occ. eigenvalues --   -0.77902  -0.77232  -0.76697  -0.76533  -0.75886
 Alpha  occ. eigenvalues --   -0.75323  -0.75198  -0.74416  -0.73528  -0.70651
 Alpha  occ. eigenvalues --   -0.68457  -0.67177  -0.65754  -0.64338  -0.63777
 Alpha  occ. eigenvalues --   -0.63062  -0.62680  -0.61493  -0.60584  -0.59906
 Alpha  occ. eigenvalues --   -0.59525  -0.58605  -0.58031  -0.56979  -0.56504
 Alpha  occ. eigenvalues --   -0.56128  -0.54764  -0.54536  -0.54135  -0.53603
 Alpha  occ. eigenvalues --   -0.53442  -0.52910  -0.52489  -0.52063  -0.51366
 Alpha  occ. eigenvalues --   -0.50542  -0.50112  -0.49831  -0.49627  -0.49107
 Alpha  occ. eigenvalues --   -0.48930  -0.48827  -0.48589  -0.48147  -0.48000
 Alpha  occ. eigenvalues --   -0.47657  -0.47136  -0.46650  -0.46495  -0.46390
 Alpha  occ. eigenvalues --   -0.45850  -0.45763  -0.45283  -0.44965  -0.44837
 Alpha  occ. eigenvalues --   -0.44782  -0.43991  -0.43635  -0.43083  -0.42946
 Alpha  occ. eigenvalues --   -0.42796  -0.42378  -0.42243  -0.41980  -0.41562
 Alpha  occ. eigenvalues --   -0.41365  -0.41330  -0.41073  -0.41043  -0.40832
 Alpha  occ. eigenvalues --   -0.40606  -0.40446  -0.40229  -0.39790  -0.39115
 Alpha  occ. eigenvalues --   -0.39002  -0.38757  -0.38459  -0.38387  -0.38015
 Alpha  occ. eigenvalues --   -0.37927  -0.37242  -0.36646  -0.36090  -0.36062
 Alpha  occ. eigenvalues --   -0.35835  -0.34589  -0.33403  -0.32709  -0.32167
 Alpha  occ. eigenvalues --   -0.31833  -0.29797  -0.28206  -0.26456  -0.24049
 Alpha  occ. eigenvalues --   -0.20232
 Alpha virt. eigenvalues --   -0.04852  -0.00343   0.02731   0.05629   0.07504
 Alpha virt. eigenvalues --    0.10146   0.10374   0.10755   0.11661   0.11965
 Alpha virt. eigenvalues --    0.12517   0.12668   0.12927   0.13264   0.13612

 Mulliken charges:
               1
     1  O   -0.547935
     2  O   -0.579787
     3  C   -0.057142
     4  C   -0.020773
     5  C   -0.154977
     6  C   -0.170121
     7  C    0.150532
     8  C    0.158908
     9  C    0.044839
    10  C    0.053164
    11  C   -0.215649
    12  C   -0.204029
    13  C    0.005711
    14  C    0.057411
    15  C   -0.291950
    16  C   -0.257254
    17  C   -0.288363
    18  C   -0.323006
    19  C   -0.093548
    20  C   -0.131664
    21  C   -0.333848
    22  C   -0.353363
    23  C   -0.109091
    24  C   -0.097162
    25  C    0.081901
    26  C    0.104347
    27  C   -0.378920
    28  C   -0.368700
    29  C   -0.095257
    30  C   -0.107202
    31  C   -0.086647
    32  C   -0.070863
    33  C   -0.095041
    34  C   -0.120895
    35  C    0.134734
    36  C    0.123589
    37  C   -0.375333
    38  C   -0.384963
    39  C   -0.136357
    40  C   -0.123563
    41  C   -0.089031
    42  C   -0.067072
    43  H    0.100428
    44  H    0.065294
    45  H    0.057821
    46  H    0.113982
    47  H    0.070523
    48  H    0.072967
    49  H    0.125012
    50  H    0.072117
    51  H    0.127864
    52  H    0.120282
    53  H    0.109250
    54  H    0.097290
    55  H    0.103223
    56  H    0.122189
    57  H    0.088165
    58  H    0.079706
    59  H    0.113354
    60  H    0.098406
    61  H    0.094777
    62  H    0.095652
    63  H    0.112443
    64  H    0.107974
    65  H    0.061271
    66  H    0.068649
    67  H    0.139411
    68  H    0.103109
    69  H    0.103155
    70  H    0.066417
    71  H    0.109206
    72  H    0.106011
    73  H    0.303634
    74  H    0.303549
    75  H    0.099431
    76  H    0.089436
    77  H    0.115842
    78  H    0.099899
    79  H    0.126893
    80  H    0.100369
    81  H    0.140277
    82  H    0.118446
    83  H    0.076717
    84  H    0.056716
    85  H    0.071988
    86  H    0.068633
    87  H    0.075496
    88  H    0.072457
    89  H    0.119484
    90  H    0.119744
    91  H    0.106420
    92  H    0.124211
    93  H    0.100990
    94  H    0.109376
    95  H    0.085352
    96  H    0.069022
    97  H    0.069437
    98  H    0.084602
 Sum of Mulliken charges =  -0.00000

 Dipole moment (field-independent basis, Debye):
    X=              0.6928    Y=             -0.9850    Z=              2.7044  Tot=              2.9604
 Quadrupole moment (field-independent basis, Debye-Ang):
   XX=           -265.7422   YY=           -246.6520   ZZ=           -260.9290
   XY=             10.6775   XZ=             -0.9332   YZ=              3.2097

 Normal termination of Gaussian 16 at Thu Jul 11 08:42:20 2019.
