 Gaussian 16, Revision A.03,
 Gaussian 16:  ES64L-G16RevA.03 25-Dec-2016

 -------------------------------------
 # td=(NStates=1) CAM-B3LYP/6-31G(d,p)
 -------------------------------------

 --
 TD
 --
 Symbolic Z-matrix:
 Charge =  0 Multiplicity = 1

                         Standard orientation:
 ---------------------------------------------------------------------
 Center     Atomic      Atomic             Coordinates (Angstroms)
 Number     Number       Type             X           Y           Z
 ---------------------------------------------------------------------
      1          8           0       14.553980   -2.414630   -0.494910
      2          8           0      -14.805622    1.841869    0.495479
      3          6           0       11.406928   -1.160147    1.237943
      4          6           0      -12.256685   -0.927054    0.820109
      5          6           0       12.876996   -1.574434    1.064249
      6          6           0      -13.628446   -0.200003    0.660044
      7          6           0       13.197857   -2.075304   -0.315886
      8          6           0      -13.559332    1.287721    0.668329
      9          6           0       10.915912   -0.376947    0.032386
     10          6           0      -11.226469   -0.299806   -0.152990
     11          6           0       12.899955   -0.950971   -1.233541
     12          6           0      -12.758172    1.637134   -0.513499
     13          6           0       11.610487   -0.321262   -1.129911
     14          6           0      -11.382641    0.892988   -0.711884
     15          6           0       11.316180   -0.153612    2.454934
     16          6           0       10.500195   -2.352035    1.463786
     17          6           0      -11.749112   -0.848819    2.297841
     18          6           0      -12.437420   -2.442492    0.479554
     19          6           0        9.623142    0.386855    0.236792
     20          6           0      -10.099838   -1.080654   -0.383338
     21          6           0       11.103056    0.404188   -2.360171
     22          6           0      -10.518749    1.574667   -1.671191
     23          6           0        9.435892    1.625078   -0.060901
     24          6           0       -8.795225   -0.551589   -0.209226
     25          6           0        8.110607    2.254711    0.191869
     26          6           0       -7.594119   -1.273402   -0.424394
     27          6           0        8.173560    3.845855    0.354612
     28          6           0       -7.654071   -2.696385   -0.931611
     29          6           0        6.914152    1.617797   -0.029894
     30          6           0       -6.433441   -0.618558   -0.166606
     31          6           0        5.554479    2.142546    0.137643
     32          6           0       -5.093059   -1.174655   -0.469459
     33          6           0        4.457481    1.376535   -0.028915
     34          6           0       -4.015006   -0.456381   -0.109519
     35          6           0        3.067581    1.675995    0.057286
     36          6           0       -2.590869   -0.703137   -0.514223
     37          6           0        2.726711    3.014467    0.552236
     38          6           0       -2.398133   -2.118595   -1.113038
     39          6           0        2.052530    0.816097   -0.268596
     40          6           0       -1.615901    0.157325   -0.280712
     41          6           0        0.694502    0.918092   -0.087539
     42          6           0       -0.186638   -0.010558   -0.415016
     43          1           0       13.673528   -0.768030    1.066729
     44          1           0       13.290905   -2.098121    1.967127
     45          1           0      -14.205571   -0.491793    1.492132
     46          1           0      -14.196146   -0.593204   -0.246620
     47          1           0       12.494145   -2.886465   -0.570860
     48          1           0      -13.069982    1.636495    1.700352
     49          1           0       13.699957   -0.075434   -1.180551
     50          1           0       13.193024   -1.362365   -2.178584
     51          1           0      -13.359441    1.695629   -1.218770
     52          1           0      -12.140736    2.518012   -0.387489
     53          1           0       12.007365   -0.625871    3.401918
     54          1           0       10.503839    0.136485    2.829634
     55          1           0       11.881890    0.876261    1.989610
     56          1           0       10.545530   -2.979792    0.714981
     57          1           0       10.840902   -2.831812    2.406505
     58          1           0        9.545413   -1.858000    1.713314
     59          1           0      -11.959851    0.215378    2.661105
     60          1           0      -10.794395   -1.089521    2.572738
     61          1           0      -12.609434   -1.447632    2.893445
     62          1           0      -13.139200   -2.992046    1.022204
     63          1           0      -11.419888   -2.896876    0.647321
     64          1           0      -12.588660   -2.711173   -0.613385
     65          1           0        8.612396   -0.011242    0.561065
     66          1           0      -10.294997   -2.111113   -0.601164
     67          1           0       10.036173    0.726572   -2.360369
     68          1           0       11.571698    1.439476   -2.577295
     69          1           0       11.388158   -0.079306   -3.241395
     70          1           0      -11.060548    1.991410   -2.517604
     71          1           0       -9.968753    0.588171   -2.050444
     72          1           0       -9.660256    2.282933   -1.364942
     73          1           0       14.964416   -2.962395    0.255336
     74          1           0      -15.326602    1.765853    1.295074
     75          1           0       10.233772    2.272182   -0.575104
     76          1           0       -8.606537    0.473228    0.004766
     77          1           0        8.519642    4.498413   -0.440131
     78          1           0        7.139725    4.207516    0.584782
     79          1           0        8.782984    3.846535    1.427450
     80          1           0       -8.096644   -3.178282    0.097775
     81          1           0       -8.281980   -2.859573   -1.766004
     82          1           0       -6.721835   -3.345766   -1.044330
     83          1           0        6.920341    0.613131   -0.217438
     84          1           0       -6.427100    0.349711    0.368469
     85          1           0        5.496557    3.213713    0.486378
     86          1           0       -4.965703   -2.140785   -1.024953
     87          1           0        4.739076    0.294243   -0.173522
     88          1           0       -4.093426    0.638820    0.097485
     89          1           0        2.707548    3.177984    1.956279
     90          1           0        1.549351    3.021854    0.272905
     91          1           0        3.219007    3.973505   -0.072124
     92          1           0       -2.874576   -2.845217   -0.325467
     93          1           0       -2.939641   -1.853030   -2.114208
     94          1           0       -1.386601   -2.455192   -1.357029
     95          1           0        2.545121   -0.069473   -0.553541
     96          1           0       -2.067762    1.375977   -0.085789
     97          1           0        0.105838    1.835458    0.286509
     98          1           0        0.191838   -1.030846   -0.684148
 ---------------------------------------------------------------------

 SCF Done:  E(RCAM-B3LYP) =  -1706.92318927     A.U. after   14 cycles

 Excitation energies and oscillator strengths:

 Excited State   1:      Singlet-A      2.8458 eV  435.67 nm  f=3.6912  <S**2>=0.000
     155 ->158         0.18888
     156 ->157         0.67456
 This state for optimization and/or second-order correction.
 Total Energy, E(TD-HF/TD-DFT) =  -1706.81860771
 Copying the excited state density for this state as the 1-particle RhoCI density.

 The electronic state is 1-A.
 Alpha  occ. eigenvalues --  -19.21747 -19.21249 -10.30167 -10.30127 -10.28919
 Alpha  occ. eigenvalues --  -10.28035 -10.27972 -10.27482 -10.27350 -10.27347
 Alpha  occ. eigenvalues --  -10.27285 -10.27192 -10.27156 -10.27154 -10.27059
 Alpha  occ. eigenvalues --  -10.26826 -10.26698 -10.26675 -10.26421 -10.26339
 Alpha  occ. eigenvalues --  -10.26336 -10.26249 -10.26170 -10.26147 -10.26085
 Alpha  occ. eigenvalues --  -10.25929 -10.25865 -10.25844 -10.25748 -10.25672
 Alpha  occ. eigenvalues --  -10.25650 -10.25584 -10.25584 -10.25552 -10.24951
 Alpha  occ. eigenvalues --  -10.24905 -10.24884 -10.24759 -10.24452 -10.24118
 Alpha  occ. eigenvalues --  -10.23521 -10.22309  -1.11299  -1.09021  -0.94094
 Alpha  occ. eigenvalues --   -0.94021  -0.92514  -0.91547  -0.90646  -0.89969
 Alpha  occ. eigenvalues --   -0.87751  -0.87244  -0.87016  -0.86139  -0.85242
 Alpha  occ. eigenvalues --   -0.83423  -0.82255  -0.80130  -0.79697  -0.77266
 Alpha  occ. eigenvalues --   -0.76651  -0.76556  -0.76257  -0.75899  -0.75621
 Alpha  occ. eigenvalues --   -0.75177  -0.75066  -0.74602  -0.73653  -0.70391
 Alpha  occ. eigenvalues --   -0.69120  -0.67746  -0.65960  -0.65102  -0.64264
 Alpha  occ. eigenvalues --   -0.64025  -0.62927  -0.61149  -0.60254  -0.60004
 Alpha  occ. eigenvalues --   -0.59620  -0.59279  -0.58956  -0.57345  -0.56529
 Alpha  occ. eigenvalues --   -0.55966  -0.55251  -0.54716  -0.54350  -0.53888
 Alpha  occ. eigenvalues --   -0.53436  -0.52847  -0.51972  -0.51766  -0.51347
 Alpha  occ. eigenvalues --   -0.50872  -0.50554  -0.49855  -0.49507  -0.49225
 Alpha  occ. eigenvalues --   -0.49036  -0.48961  -0.48709  -0.48486  -0.47810
 Alpha  occ. eigenvalues --   -0.47725  -0.47346  -0.46911  -0.46697  -0.46532
 Alpha  occ. eigenvalues --   -0.46211  -0.45700  -0.45541  -0.45168  -0.44894
 Alpha  occ. eigenvalues --   -0.44635  -0.44245  -0.44155  -0.43585  -0.43022
 Alpha  occ. eigenvalues --   -0.42841  -0.42188  -0.41969  -0.41752  -0.41627
 Alpha  occ. eigenvalues --   -0.41137  -0.40920  -0.40698  -0.40562  -0.40452
 Alpha  occ. eigenvalues --   -0.39604  -0.39381  -0.39213  -0.38934  -0.38874
 Alpha  occ. eigenvalues --   -0.38707  -0.38471  -0.38241  -0.37825  -0.37353
 Alpha  occ. eigenvalues --   -0.37225  -0.37017  -0.36639  -0.36608  -0.35947
 Alpha  occ. eigenvalues --   -0.35605  -0.34573  -0.33816  -0.32487  -0.32125
 Alpha  occ. eigenvalues --   -0.31531  -0.29608  -0.28217  -0.26741  -0.23901
 Alpha  occ. eigenvalues --   -0.21204
 Alpha virt. eigenvalues --   -0.04162  -0.00522   0.03057   0.06009   0.07761
 Alpha virt. eigenvalues --    0.09518   0.10736   0.10851   0.11580   0.11971
 Alpha virt. eigenvalues --    0.12025   0.12712   0.12826   0.13036   0.13335

 Mulliken charges:
               1
     1  O   -0.577514
     2  O   -0.550671
     3  C   -0.022533
     4  C   -0.009558
     5  C   -0.202243
     6  C   -0.179707
     7  C    0.185720
     8  C    0.165536
     9  C    0.028721
    10  C    0.108017
    11  C   -0.232240
    12  C   -0.177738
    13  C    0.102702
    14  C    0.022418
    15  C   -0.263920
    16  C   -0.275603
    17  C   -0.290766
    18  C   -0.320590
    19  C   -0.122182
    20  C   -0.185310
    21  C   -0.375799
    22  C   -0.379139
    23  C   -0.066160
    24  C   -0.100399
    25  C    0.015187
    26  C    0.141036
    27  C   -0.351167
    28  C   -0.364677
    29  C   -0.094242
    30  C   -0.159204
    31  C   -0.073302
    32  C   -0.081206
    33  C   -0.125401
    34  C   -0.112385
    35  C    0.129915
    36  C    0.083278
    37  C   -0.337278
    38  C   -0.354438
    39  C   -0.108283
    40  C   -0.136932
    41  C   -0.072630
    42  C   -0.076357
    43  H    0.095324
    44  H    0.069750
    45  H    0.071292
    46  H    0.096842
    47  H    0.075418
    48  H    0.052743
    49  H    0.103297
    50  H    0.112781
    51  H    0.113905
    52  H    0.106043
    53  H    0.054917
    54  H    0.117073
    55  H    0.075764
    56  H    0.111700
    57  H    0.092867
    58  H    0.106452
    59  H    0.090260
    60  H    0.123877
    61  H    0.078264
    62  H    0.108516
    63  H    0.095955
    64  H    0.095951
    65  H    0.087905
    66  H    0.099120
    67  H    0.126179
    68  H    0.095527
    69  H    0.114597
    70  H    0.117946
    71  H    0.110563
    72  H    0.113395
    73  H    0.313986
    74  H    0.305616
    75  H    0.094446
    76  H    0.091075
    77  H    0.129754
    78  H    0.104888
    79  H    0.098507
    80  H    0.104201
    81  H    0.130090
    82  H    0.110652
    83  H    0.075134
    84  H    0.087549
    85  H    0.084797
    86  H    0.100163
    87  H    0.069802
    88  H    0.078424
    89  H    0.062169
    90  H    0.087867
    91  H    0.096735
    92  H    0.116370
    93  H    0.125442
    94  H    0.109947
    95  H    0.076596
    96  H    0.045965
    97  H    0.097491
    98  H    0.085156
 Sum of Mulliken charges =  -0.00000

 Dipole moment (field-independent basis, Debye):
    X=             -1.3016    Y=             -1.8507    Z=              1.1849  Tot=              2.5541
 Quadrupole moment (field-independent basis, Debye-Ang):
   XX=           -253.8229   YY=           -249.5121   ZZ=           -260.5343
   XY=              7.1317   XZ=             -4.6543   YZ=             -0.1944

 Normal termination of Gaussian 16 at Wed Jun 26 18:14:56 2019.
