 Gaussian 16, Revision A.03,
 Gaussian 16:  ES64L-G16RevA.03 25-Dec-2016

 -------------------------------------
 # td=(NStates=1) CAM-B3LYP/6-31G(d,p)
 -------------------------------------

 --
 TD
 --
 Symbolic Z-matrix:
 Charge =  0 Multiplicity = 1

                         Standard orientation:
 ---------------------------------------------------------------------
 Center     Atomic      Atomic             Coordinates (Angstroms)
 Number     Number       Type             X           Y           Z
 ---------------------------------------------------------------------
      1          8           0       14.718587   -2.237477   -0.302632
      2          8           0      -14.700454    2.122055    0.581694
      3          6           0       11.541952   -0.983421    1.263323
      4          6           0      -12.307422   -0.885030    0.864955
      5          6           0       12.990165   -1.225900    1.168712
      6          6           0      -13.729039   -0.107394    0.811966
      7          6           0       13.288159   -1.839672   -0.130909
      8          6           0      -13.528588    1.333451    0.741421
      9          6           0       11.022062   -0.236351   -0.028538
     10          6           0      -11.264595   -0.195905   -0.141564
     11          6           0       12.916801   -0.903252   -1.307873
     12          6           0      -12.720310    1.708475   -0.466940
     13          6           0       11.617324   -0.238065   -1.153602
     14          6           0      -11.478567    0.865375   -0.728374
     15          6           0       11.358005   -0.099455    2.490296
     16          6           0       10.755777   -2.314700    1.421723
     17          6           0      -11.769077   -0.836271    2.311914
     18          6           0      -12.579722   -2.328268    0.511860
     19          6           0        9.670001    0.262139    0.127573
     20          6           0      -10.071472   -1.014576   -0.353031
     21          6           0       11.062448    0.306708   -2.424289
     22          6           0      -10.612733    1.454405   -1.826401
     23          6           0        9.273324    1.626325   -0.193708
     24          6           0       -8.820763   -0.619943   -0.221290
     25          6           0        8.018270    2.251203    0.018312
     26          6           0       -7.610550   -1.340967   -0.486743
     27          6           0        8.055209    3.769693    0.304207
     28          6           0       -7.654647   -2.709182   -1.124892
     29          6           0        6.853323    1.482226   -0.090881
     30          6           0       -6.446385   -0.760985   -0.281963
     31          6           0        5.515440    2.008794    0.169536
     32          6           0       -5.097002   -1.246380   -0.459760
     33          6           0        4.384490    1.277165    0.005786
     34          6           0       -3.955615   -0.555084   -0.336017
     35          6           0        2.965486    1.678874    0.065093
     36          6           0       -2.616981   -0.950610   -0.540869
     37          6           0        2.770460    3.179159    0.402451
     38          6           0       -2.279847   -2.457902   -0.750616
     39          6           0        2.030351    0.798852    0.012951
     40          6           0       -1.679989    0.059433   -0.387488
     41          6           0        0.601166    0.913919    0.013323
     42          6           0       -0.229986   -0.130238   -0.330995
     43          1           0       13.619040   -0.201607    1.306006
     44          1           0       13.250579   -1.936684    1.979254
     45          1           0      -14.249831   -0.585765    1.767266
     46          1           0      -14.177057   -0.260871   -0.218861
     47          1           0       12.824687   -2.798097   -0.237893
     48          1           0      -12.988178    1.756186    1.500304
     49          1           0       13.726105   -0.017930   -1.366007
     50          1           0       12.923218   -1.595974   -2.287245
     51          1           0      -13.306567    1.622025   -1.351143
     52          1           0      -12.417930    2.630348   -0.536958
     53          1           0       11.692398   -0.576945    3.414199
     54          1           0       10.337416    0.103411    2.786436
     55          1           0       11.671144    0.872576    2.135963
     56          1           0       11.074906   -3.036977    0.545965
     57          1           0       11.104726   -2.883745    2.340842
     58          1           0        9.756155   -2.153560    1.621097
     59          1           0      -11.543679    0.186166    2.626704
     60          1           0      -10.837402   -1.198731    2.136285
     61          1           0      -12.406687   -1.583684    2.954154
     62          1           0      -13.139896   -2.852710    1.124612
     63          1           0      -11.521296   -2.676116    0.828681
     64          1           0      -12.747746   -2.641051   -0.486735
     65          1           0        8.931846   -0.285817    0.716169
     66          1           0      -10.460376   -2.011043   -0.666308
     67          1           0       10.015399    0.460578   -2.609046
     68          1           0       11.639530    1.119044   -2.740014
     69          1           0       11.312986   -0.352915   -3.310326
     70          1           0      -11.181831    1.429435   -2.702855
     71          1           0       -9.586667    0.862693   -1.830605
     72          1           0      -10.551119    2.550219   -1.406431
     73          1           0       14.832799   -2.825657    0.411052
     74          1           0      -15.142749    2.205701    1.496712
     75          1           0       10.096693    2.238593   -0.564827
     76          1           0       -8.565246    0.390081    0.169953
     77          1           0        8.490498    4.248341   -0.677097
     78          1           0        6.993854    4.095361    0.620919
     79          1           0        8.655203    3.906952    1.274536
     80          1           0       -8.318896   -3.430437   -0.526239
     81          1           0       -7.843654   -2.695407   -2.095305
     82          1           0       -6.608872   -3.146566   -0.948997
     83          1           0        6.847242    0.486362   -0.440825
     84          1           0       -6.514446    0.256583   -0.037564
     85          1           0        5.324264    3.105934    0.507994
     86          1           0       -4.928343   -2.254706   -1.103707
     87          1           0        4.599584    0.333248   -0.437990
     88          1           0       -3.968065    0.401030    0.194048
     89          1           0        3.131502    3.348238    1.446515
     90          1           0        1.555174    3.605860    0.450375
     91          1           0        3.345999    3.623858   -0.309625
     92          1           0       -2.915080   -2.944426    0.019019
     93          1           0       -2.705874   -2.782565   -1.755521
     94          1           0       -1.213514   -2.694903   -0.774465
     95          1           0        2.283274   -0.224933   -0.115678
     96          1           0       -2.032292    0.983378   -0.177115
     97          1           0        0.098349    1.892935    0.275105
     98          1           0        0.172106   -1.121808   -0.799236
 ---------------------------------------------------------------------

 SCF Done:  E(RCAM-B3LYP) =  -1707.02565463     A.U. after   14 cycles

 Excitation energies and oscillator strengths:

 Excited State   1:      Singlet-A      2.8437 eV  435.99 nm  f=3.6114  <S**2>=0.000
     155 ->158         0.21022
     156 ->157         0.66752
 This state for optimization and/or second-order correction.
 Total Energy, E(TD-HF/TD-DFT) =  -1706.92115016
 Copying the excited state density for this state as the 1-particle RhoCI density.

 The electronic state is 1-A.
 Alpha  occ. eigenvalues --  -19.20698 -19.19979 -10.30110 -10.28384 -10.27977
 Alpha  occ. eigenvalues --  -10.27666 -10.27538 -10.27514 -10.27428 -10.27419
 Alpha  occ. eigenvalues --  -10.27183 -10.26990 -10.26920 -10.26906 -10.26844
 Alpha  occ. eigenvalues --  -10.26797 -10.26790 -10.26625 -10.26492 -10.26234
 Alpha  occ. eigenvalues --  -10.26137 -10.25878 -10.25836 -10.25789 -10.25770
 Alpha  occ. eigenvalues --  -10.25742 -10.25695 -10.25591 -10.25478 -10.25334
 Alpha  occ. eigenvalues --  -10.25324 -10.25121 -10.25036 -10.24776 -10.24725
 Alpha  occ. eigenvalues --  -10.24414 -10.24378 -10.24175 -10.24124 -10.23646
 Alpha  occ. eigenvalues --  -10.23550 -10.22568  -1.08135  -1.07931  -0.95193
 Alpha  occ. eigenvalues --   -0.94008  -0.92185  -0.91687  -0.90647  -0.89895
 Alpha  occ. eigenvalues --   -0.88565  -0.87698  -0.86849  -0.85766  -0.84821
 Alpha  occ. eigenvalues --   -0.83400  -0.81978  -0.80287  -0.79737  -0.78145
 Alpha  occ. eigenvalues --   -0.77078  -0.76873  -0.76829  -0.76686  -0.76444
 Alpha  occ. eigenvalues --   -0.75549  -0.75367  -0.75068  -0.74274  -0.70771
 Alpha  occ. eigenvalues --   -0.69534  -0.67406  -0.66030  -0.65529  -0.64353
 Alpha  occ. eigenvalues --   -0.63483  -0.62101  -0.61394  -0.60104  -0.59535
 Alpha  occ. eigenvalues --   -0.59425  -0.58754  -0.58163  -0.58097  -0.56253
 Alpha  occ. eigenvalues --   -0.55949  -0.55314  -0.54862  -0.54094  -0.53812
 Alpha  occ. eigenvalues --   -0.52980  -0.52546  -0.52141  -0.52022  -0.51492
 Alpha  occ. eigenvalues --   -0.50905  -0.50036  -0.49995  -0.49857  -0.49695
 Alpha  occ. eigenvalues --   -0.49305  -0.48991  -0.48857  -0.48715  -0.48558
 Alpha  occ. eigenvalues --   -0.48395  -0.47614  -0.47383  -0.47190  -0.46614
 Alpha  occ. eigenvalues --   -0.46397  -0.45725  -0.45239  -0.45060  -0.45008
 Alpha  occ. eigenvalues --   -0.44581  -0.44300  -0.43745  -0.43579  -0.43467
 Alpha  occ. eigenvalues --   -0.42837  -0.42553  -0.42456  -0.42265  -0.41971
 Alpha  occ. eigenvalues --   -0.41875  -0.41842  -0.41538  -0.41379  -0.41142
 Alpha  occ. eigenvalues --   -0.40792  -0.40142  -0.39807  -0.39659  -0.39367
 Alpha  occ. eigenvalues --   -0.39338  -0.39066  -0.38765  -0.38253  -0.37952
 Alpha  occ. eigenvalues --   -0.37800  -0.37177  -0.36766  -0.36377  -0.35939
 Alpha  occ. eigenvalues --   -0.35302  -0.33982  -0.33293  -0.32531  -0.32230
 Alpha  occ. eigenvalues --   -0.31726  -0.30723  -0.29348  -0.26986  -0.23774
 Alpha  occ. eigenvalues --   -0.21116
 Alpha virt. eigenvalues --   -0.03923  -0.00684   0.03128   0.06737   0.09144
 Alpha virt. eigenvalues --    0.10469   0.11449   0.11884   0.11929   0.12413
 Alpha virt. eigenvalues --    0.12601   0.12913   0.13178   0.13465   0.13669

 Mulliken charges:
               1
     1  O   -0.572419
     2  O   -0.569006
     3  C   -0.016398
     4  C   -0.045787
     5  C   -0.169111
     6  C   -0.159977
     7  C    0.150110
     8  C    0.173779
     9  C    0.048233
    10  C    0.053385
    11  C   -0.222575
    12  C   -0.205808
    13  C    0.098450
    14  C    0.023455
    15  C   -0.301622
    16  C   -0.303080
    17  C   -0.297532
    18  C   -0.299390
    19  C   -0.134194
    20  C   -0.159843
    21  C   -0.369701
    22  C   -0.338091
    23  C   -0.117456
    24  C   -0.108199
    25  C    0.068857
    26  C    0.137454
    27  C   -0.349509
    28  C   -0.366620
    29  C   -0.115282
    30  C   -0.127431
    31  C   -0.084492
    32  C   -0.111259
    33  C   -0.126305
    34  C   -0.108268
    35  C    0.106905
    36  C    0.109956
    37  C   -0.353783
    38  C   -0.366160
    39  C   -0.122366
    40  C   -0.123245
    41  C   -0.084256
    42  C   -0.091248
    43  H    0.091628
    44  H    0.079036
    45  H    0.069131
    46  H    0.091942
    47  H    0.092860
    48  H    0.076237
    49  H    0.107139
    50  H    0.100184
    51  H    0.112625
    52  H    0.102015
    53  H    0.100705
    54  H    0.097034
    55  H    0.111306
    56  H    0.094068
    57  H    0.088167
    58  H    0.118671
    59  H    0.105354
    60  H    0.120506
    61  H    0.091441
    62  H    0.108631
    63  H    0.081956
    64  H    0.112750
    65  H    0.092103
    66  H    0.103236
    67  H    0.129871
    68  H    0.122492
    69  H    0.093197
    70  H    0.125288
    71  H    0.110211
    72  H    0.090746
    73  H    0.294869
    74  H    0.300391
    75  H    0.081544
    76  H    0.084708
    77  H    0.122053
    78  H    0.108589
    79  H    0.121308
    80  H    0.101184
    81  H    0.137497
    82  H    0.099456
    83  H    0.090131
    84  H    0.074177
    85  H    0.071623
    86  H    0.069856
    87  H    0.074532
    88  H    0.081430
    89  H    0.127798
    90  H    0.074920
    91  H    0.135133
    92  H    0.130241
    93  H    0.115756
    94  H    0.113347
    95  H    0.075557
    96  H    0.076781
    97  H    0.081521
    98  H    0.084903
 Sum of Mulliken charges =  -0.00000

 Dipole moment (field-independent basis, Debye):
    X=              0.1895    Y=             -0.8801    Z=              2.0047  Tot=              2.1975
 Quadrupole moment (field-independent basis, Debye-Ang):
   XX=           -295.2696   YY=           -246.5885   ZZ=           -256.3825
   XY=              8.9515   XZ=             -1.1162   YZ=              2.3050

 Normal termination of Gaussian 16 at Sat Jun 29 12:57:30 2019.
