 Gaussian 16, Revision A.03,
 Gaussian 16:  ES64L-G16RevA.03 25-Dec-2016

 -------------------------------------
 # td=(NStates=1) CAM-B3LYP/6-31G(d,p)
 -------------------------------------

 --
 TD
 --
 Symbolic Z-matrix:
 Charge =  0 Multiplicity = 1

                         Standard orientation:
 ---------------------------------------------------------------------
 Center     Atomic      Atomic             Coordinates (Angstroms)
 Number     Number       Type             X           Y           Z
 ---------------------------------------------------------------------
      1          8           0       14.629648   -2.277762   -0.408132
      2          8           0      -14.757081    2.056767    0.615586
      3          6           0       11.447185   -1.071690    1.248377
      4          6           0      -12.337713   -0.823310    0.839480
      5          6           0       12.927926   -1.395297    1.058428
      6          6           0      -13.611776   -0.144350    0.695963
      7          6           0       13.273160   -1.982497   -0.254470
      8          6           0      -13.423438    1.385764    0.687540
      9          6           0       11.032130   -0.155548   -0.082189
     10          6           0      -11.316059   -0.273895   -0.217477
     11          6           0       12.994508   -0.815786   -1.361105
     12          6           0      -12.710968    1.799079   -0.648126
     13          6           0       11.689322   -0.134659   -1.256012
     14          6           0      -11.536867    0.877714   -0.853605
     15          6           0       11.312000   -0.239894    2.474897
     16          6           0       10.566502   -2.350624    1.307246
     17          6           0      -11.654851   -0.715408    2.196393
     18          6           0      -12.466402   -2.404975    0.568331
     19          6           0        9.663275    0.409340    0.154690
     20          6           0      -10.032515   -1.099443   -0.438772
     21          6           0       11.290642    0.508679   -2.495456
     22          6           0      -10.710983    1.352930   -1.951279
     23          6           0        9.330561    1.699489   -0.140434
     24          6           0       -8.853740   -0.545060   -0.243208
     25          6           0        7.998533    2.292871    0.089617
     26          6           0       -7.598938   -1.319835   -0.416863
     27          6           0        8.125330    3.757268    0.463383
     28          6           0       -7.792082   -2.793555   -0.746527
     29          6           0        6.884939    1.587791   -0.062178
     30          6           0       -6.444997   -0.640710   -0.319288
     31          6           0        5.508569    1.958551    0.326278
     32          6           0       -5.110502   -1.198340   -0.456612
     33          6           0        4.436957    1.162779    0.092357
     34          6           0       -4.041529   -0.434809   -0.237911
     35          6           0        3.093648    1.560853    0.189692
     36          6           0       -2.617095   -0.859281   -0.414779
     37          6           0        2.867140    3.020250    0.637229
     38          6           0       -2.448104   -2.242597   -0.886273
     39          6           0        2.031362    0.672187   -0.143321
     40          6           0       -1.626185    0.022638   -0.188836
     41          6           0        0.609051    0.772706   -0.111878
     42          6           0       -0.215789   -0.283411   -0.184196
     43          1           0       13.763339   -0.654151    0.982949
     44          1           0       13.278739   -1.898456    1.972410
     45          1           0      -14.375373   -0.403872    1.395375
     46          1           0      -14.054045   -0.385740   -0.169649
     47          1           0       12.509613   -2.694081   -0.618969
     48          1           0      -12.933602    1.891706    1.452440
     49          1           0       13.809380    0.134907   -1.115503
     50          1           0       13.292524   -1.334113   -2.162734
     51          1           0      -13.434415    1.642458   -1.407225
     52          1           0      -12.446019    2.794344   -0.661665
     53          1           0       11.623957   -0.844453    3.283788
     54          1           0       10.277434    0.101382    2.679718
     55          1           0       11.920413    0.647949    2.502519
     56          1           0       10.523513   -3.084401    0.508172
     57          1           0       10.877389   -3.066774    2.333440
     58          1           0        9.446891   -2.056073    1.610313
     59          1           0      -11.375594    0.279489    2.506798
     60          1           0      -10.744982   -1.019889    2.324259
     61          1           0      -12.222023   -1.176969    3.130667
     62          1           0      -13.287061   -2.647292    1.144211
     63          1           0      -11.582866   -2.966330    0.944970
     64          1           0      -12.709287   -2.540043   -0.426764
     65          1           0        8.940137   -0.237957    0.813483
     66          1           0      -10.205110   -2.045845   -0.594360
     67          1           0       10.217932    0.771861   -2.563352
     68          1           0       11.611131    1.605599   -2.560992
     69          1           0       11.624213    0.038626   -3.341246
     70          1           0      -11.355783    1.695759   -2.848967
     71          1           0       -9.769248    0.575630   -2.243040
     72          1           0      -10.278252    2.234441   -1.436960
     73          1           0       14.794710   -3.179081   -0.019036
     74          1           0      -15.009797    2.198290    1.586856
     75          1           0       10.014831    2.343474   -0.620936
     76          1           0       -8.800310    0.595705   -0.032907
     77          1           0        8.558147    4.658688   -0.085414
     78          1           0        7.218169    4.218933    0.491666
     79          1           0        8.428852    3.931041    1.364276
     80          1           0       -8.380311   -3.454610   -0.117182
     81          1           0       -8.479689   -2.877867   -1.642162
     82          1           0       -6.951924   -3.131766   -0.703793
     83          1           0        7.033508    0.522226   -0.619764
     84          1           0       -6.377470    0.471988   -0.171038
     85          1           0        5.333652    2.874869    0.825133
     86          1           0       -5.077783   -2.155517   -0.813295
     87          1           0        4.553729    0.231427   -0.477802
     88          1           0       -4.211041    0.524876   -0.014758
     89          1           0        3.294381    3.146156    1.580324
     90          1           0        1.656610    3.092550    0.561346
     91          1           0        3.339434    3.748889    0.197101
     92          1           0       -3.024820   -2.943697   -0.318483
     93          1           0       -2.719403   -2.396055   -1.791483
     94          1           0       -1.378460   -2.523997   -0.782628
     95          1           0        2.414690   -0.446042   -0.557562
     96          1           0       -1.778975    0.951816    0.060861
     97          1           0        0.279444    1.805530   -0.050683
     98          1           0        0.153113   -1.293071   -0.457000
 ---------------------------------------------------------------------

 SCF Done:  E(RCAM-B3LYP) =  -1706.93765067     A.U. after   14 cycles

 Excitation energies and oscillator strengths:

 Excited State   1:      Singlet-A      2.8759 eV  431.11 nm  f=3.5121  <S**2>=0.000
     155 ->158         0.16283
     156 ->157         0.68204
 This state for optimization and/or second-order correction.
 Total Energy, E(TD-HF/TD-DFT) =  -1706.83196270
 Copying the excited state density for this state as the 1-particle RhoCI density.

 The electronic state is 1-A.
 Alpha  occ. eigenvalues --  -19.22450 -19.20484 -10.30314 -10.29788 -10.28351
 Alpha  occ. eigenvalues --  -10.27928 -10.27873 -10.27818 -10.27110 -10.26944
 Alpha  occ. eigenvalues --  -10.26889 -10.26861 -10.26717 -10.26590 -10.26565
 Alpha  occ. eigenvalues --  -10.26459 -10.26245 -10.26242 -10.26129 -10.25960
 Alpha  occ. eigenvalues --  -10.25893 -10.25584 -10.25508 -10.25263 -10.25160
 Alpha  occ. eigenvalues --  -10.25138 -10.25077 -10.25043 -10.24931 -10.24836
 Alpha  occ. eigenvalues --  -10.24706 -10.24441 -10.24332 -10.24326 -10.24112
 Alpha  occ. eigenvalues --  -10.23931 -10.23756 -10.23584 -10.23568 -10.23506
 Alpha  occ. eigenvalues --  -10.23392 -10.23178  -1.10336  -1.05991  -0.93500
 Alpha  occ. eigenvalues --   -0.92747  -0.92435  -0.91457  -0.90782  -0.89670
 Alpha  occ. eigenvalues --   -0.88001  -0.87590  -0.87346  -0.85507  -0.84139
 Alpha  occ. eigenvalues --   -0.83263  -0.82124  -0.80645  -0.80355  -0.79370
 Alpha  occ. eigenvalues --   -0.77813  -0.77444  -0.77188  -0.76233  -0.76089
 Alpha  occ. eigenvalues --   -0.75616  -0.75326  -0.74535  -0.73892  -0.70843
 Alpha  occ. eigenvalues --   -0.68587  -0.67273  -0.66385  -0.64747  -0.63963
 Alpha  occ. eigenvalues --   -0.63503  -0.63333  -0.62872  -0.62114  -0.60451
 Alpha  occ. eigenvalues --   -0.59752  -0.59127  -0.58472  -0.57752  -0.56913
 Alpha  occ. eigenvalues --   -0.55878  -0.55368  -0.54794  -0.54406  -0.53923
 Alpha  occ. eigenvalues --   -0.53316  -0.52844  -0.52293  -0.51882  -0.50990
 Alpha  occ. eigenvalues --   -0.50830  -0.50489  -0.50035  -0.49871  -0.49327
 Alpha  occ. eigenvalues --   -0.49178  -0.48837  -0.48602  -0.48349  -0.47995
 Alpha  occ. eigenvalues --   -0.47891  -0.47511  -0.47250  -0.46874  -0.46664
 Alpha  occ. eigenvalues --   -0.46326  -0.46087  -0.45401  -0.45372  -0.44998
 Alpha  occ. eigenvalues --   -0.44481  -0.44282  -0.44085  -0.43860  -0.43706
 Alpha  occ. eigenvalues --   -0.43278  -0.43074  -0.42593  -0.42503  -0.42407
 Alpha  occ. eigenvalues --   -0.42342  -0.42021  -0.41676  -0.41562  -0.41005
 Alpha  occ. eigenvalues --   -0.40698  -0.40624  -0.40011  -0.39523  -0.39361
 Alpha  occ. eigenvalues --   -0.39269  -0.38887  -0.38797  -0.38393  -0.37751
 Alpha  occ. eigenvalues --   -0.37271  -0.37048  -0.36659  -0.35633  -0.35254
 Alpha  occ. eigenvalues --   -0.34436  -0.33848  -0.33012  -0.32656  -0.31763
 Alpha  occ. eigenvalues --   -0.31358  -0.29629  -0.27859  -0.26278  -0.24400
 Alpha  occ. eigenvalues --   -0.21069
 Alpha virt. eigenvalues --   -0.03890   0.00421   0.03239   0.06393   0.08607
 Alpha virt. eigenvalues --    0.10077   0.11621   0.12042   0.12113   0.12272
 Alpha virt. eigenvalues --    0.12536   0.13039   0.13756   0.13878   0.14239

 Mulliken charges:
               1
     1  O   -0.548867
     2  O   -0.581235
     3  C    0.002112
     4  C   -0.000821
     5  C   -0.161798
     6  C   -0.164761
     7  C    0.128832
     8  C    0.123139
     9  C    0.015637
    10  C    0.012455
    11  C   -0.210922
    12  C   -0.209005
    13  C    0.099376
    14  C    0.049424
    15  C   -0.298634
    16  C   -0.289261
    17  C   -0.296857
    18  C   -0.319357
    19  C   -0.116548
    20  C   -0.116683
    21  C   -0.373182
    22  C   -0.348044
    23  C   -0.109312
    24  C   -0.074545
    25  C    0.080409
    26  C    0.076997
    27  C   -0.386272
    28  C   -0.335079
    29  C   -0.126486
    30  C   -0.130989
    31  C   -0.093760
    32  C   -0.070198
    33  C   -0.091405
    34  C   -0.099521
    35  C    0.095537
    36  C    0.091287
    37  C   -0.356646
    38  C   -0.371516
    39  C   -0.148399
    40  C   -0.097007
    41  C   -0.074986
    42  C   -0.082250
    43  H    0.105058
    44  H    0.067145
    45  H    0.086839
    46  H    0.112721
    47  H    0.076611
    48  H    0.094899
    49  H    0.077256
    50  H    0.108860
    51  H    0.128564
    52  H    0.107563
    53  H    0.101160
    54  H    0.098943
    55  H    0.114925
    56  H    0.122262
    57  H    0.057818
    58  H    0.095233
    59  H    0.087425
    60  H    0.119521
    61  H    0.068561
    62  H    0.106199
    63  H    0.103476
    64  H    0.108775
    65  H    0.089031
    66  H    0.073409
    67  H    0.119227
    68  H    0.110617
    69  H    0.117843
    70  H    0.099821
    71  H    0.095226
    72  H    0.106734
    73  H    0.312446
    74  H    0.300798
    75  H    0.089414
    76  H    0.085667
    77  H    0.108535
    78  H    0.107435
    79  H    0.136217
    80  H    0.119342
    81  H    0.121788
    82  H    0.094986
    83  H    0.083791
    84  H    0.082026
    85  H    0.079067
    86  H    0.077982
    87  H    0.079625
    88  H    0.066562
    89  H    0.127475
    90  H    0.081088
    91  H    0.133189
    92  H    0.117514
    93  H    0.140501
    94  H    0.095601
    95  H    0.055810
    96  H    0.068120
    97  H    0.089075
    98  H    0.093367
 Sum of Mulliken charges =  -0.00000

 Dipole moment (field-independent basis, Debye):
    X=              0.8029    Y=             -1.3016    Z=              1.4078  Tot=              2.0786
 Quadrupole moment (field-independent basis, Debye-Ang):
   XX=           -289.2176   YY=           -235.6105   ZZ=           -259.2543
   XY=             -0.2047   XZ=            -10.0217   YZ=              6.2022

 Normal termination of Gaussian 16 at Thu Jun 27 23:04:37 2019.
