 Gaussian 16, Revision A.03,
 Gaussian 16:  ES64L-G16RevA.03 25-Dec-2016

 -------------------------------------
 # td=(NStates=1) CAM-B3LYP/6-31G(d,p)
 -------------------------------------

 --
 TD
 --
 Symbolic Z-matrix:
 Charge =  0 Multiplicity = 1

                         Standard orientation:
 ---------------------------------------------------------------------
 Center     Atomic      Atomic             Coordinates (Angstroms)
 Number     Number       Type             X           Y           Z
 ---------------------------------------------------------------------
      1          8           0       14.544977   -2.455625   -0.247052
      2          8           0      -14.920048    1.768646    0.750118
      3          6           0       11.372296   -1.104741    1.235478
      4          6           0      -12.301316   -0.947531    0.747662
      5          6           0       12.771074   -1.553406    1.221464
      6          6           0      -13.679829   -0.356532    0.722048
      7          6           0       13.214888   -2.018366   -0.236328
      8          6           0      -13.620169    1.223702    0.876982
      9          6           0       10.978034   -0.176702    0.003420
     10          6           0      -11.357122   -0.317291   -0.150023
     11          6           0       13.045485   -0.939215   -1.240927
     12          6           0      -12.786825    1.780369   -0.317879
     13          6           0       11.752241   -0.173998   -1.087712
     14          6           0      -11.597543    0.973139   -0.666375
     15          6           0       11.152435   -0.414958    2.564946
     16          6           0       10.315400   -2.325447    1.240069
     17          6           0      -11.771547   -0.872088    2.225399
     18          6           0      -12.436742   -2.503814    0.378893
     19          6           0        9.616160    0.441488    0.228402
     20          6           0      -10.089507   -0.908449   -0.306992
     21          6           0       11.359150    0.610472   -2.280397
     22          6           0      -10.680450    1.646626   -1.717296
     23          6           0        9.414009    1.738384   -0.199518
     24          6           0       -8.750986   -0.566335   -0.217430
     25          6           0        8.115450    2.396181    0.088509
     26          6           0       -7.470670   -1.222792   -0.600726
     27          6           0        8.151899    3.806889    0.556239
     28          6           0       -7.590540   -2.700683   -1.030686
     29          6           0        6.949723    1.738955   -0.170208
     30          6           0       -6.371271   -0.530258   -0.409475
     31          6           0        5.521956    2.035822    0.142840
     32          6           0       -5.059541   -1.011924   -0.628285
     33          6           0        4.485325    1.225288   -0.092742
     34          6           0       -3.911116   -0.295332   -0.376852
     35          6           0        3.105351    1.620737    0.094869
     36          6           0       -2.544308   -0.768239   -0.532271
     37          6           0        2.669173    2.937575    0.694516
     38          6           0       -2.230422   -2.073720   -1.049332
     39          6           0        2.146905    0.678794   -0.227738
     40          6           0       -1.582801    0.079787   -0.219533
     41          6           0        0.709835    0.815580   -0.154418
     42          6           0       -0.178829   -0.173482   -0.476392
     43          1           0       13.348179   -0.704367    1.492936
     44          1           0       12.972885   -2.391553    2.075454
     45          1           0      -14.300095   -0.915725    1.406885
     46          1           0      -14.154131   -0.443376   -0.121519
     47          1           0       12.796874   -2.914204   -0.690475
     48          1           0      -12.940087    1.653350    1.737314
     49          1           0       14.073013   -0.340003   -1.275888
     50          1           0       13.057269   -1.275925   -2.329552
     51          1           0      -13.486632    1.799480   -1.250372
     52          1           0      -12.527154    2.764366   -0.124820
     53          1           0       11.618133   -0.682962    3.572582
     54          1           0       10.008984   -0.351358    2.742587
     55          1           0       11.531439    0.749740    2.411092
     56          1           0       10.508217   -3.019775    0.506090
     57          1           0       10.279055   -2.869168    2.287822
     58          1           0        9.326087   -1.768062    1.189239
     59          1           0      -11.777857    0.027775    2.964214
     60          1           0      -10.755964   -1.217410    2.268605
     61          1           0      -12.590003   -1.447090    2.983981
     62          1           0      -13.022408   -3.121271    1.077598
     63          1           0      -11.648337   -2.844508    0.592945
     64          1           0      -12.668194   -2.799321   -0.498129
     65          1           0        8.853172   -0.160792    0.894662
     66          1           0      -10.231900   -1.883099   -0.965022
     67          1           0       10.222188    1.088090   -2.298901
     68          1           0       12.054016    1.439331   -2.611591
     69          1           0       11.482536   -0.216349   -3.137084
     70          1           0      -11.157394    1.991434   -2.625892
     71          1           0       -9.913644    1.071822   -2.149089
     72          1           0      -10.198088    2.640669   -1.355896
     73          1           0       14.600638   -3.304357    0.270691
     74          1           0      -15.213455    1.392971    1.585028
     75          1           0       10.234037    2.340181   -0.659510
     76          1           0       -8.562303    0.342461    0.200680
     77          1           0        8.708809    4.446322   -0.238133
     78          1           0        7.109425    4.157280    0.519714
     79          1           0        8.685842    3.782302    1.534109
     80          1           0       -8.139311   -3.328203   -0.228761
     81          1           0       -8.311298   -2.701003   -1.925660
     82          1           0       -6.417978   -3.091995   -1.223211
     83          1           0        7.017302    0.747772   -0.620103
     84          1           0       -6.279081    0.445113   -0.146138
     85          1           0        5.409493    2.946080    0.443047
     86          1           0       -4.935513   -2.015294   -1.158209
     87          1           0        4.754741    0.041188   -0.446126
     88          1           0       -4.118694    0.855863   -0.169466
     89          1           0        3.335447    3.118633    1.531051
     90          1           0        1.555498    2.972649    0.734446
     91          1           0        2.908718    3.558029   -0.149178
     92          1           0       -2.920863   -2.672597   -0.523371
     93          1           0       -2.624337   -2.102482   -2.108996
     94          1           0       -1.129821   -2.607737   -0.967452
     95          1           0        2.560834   -0.109492   -0.937544
     96          1           0       -1.756487    0.926987    0.174210
     97          1           0        0.473167    1.869557    0.595646
     98          1           0        0.284068   -1.141044   -0.674279
 ---------------------------------------------------------------------

 SCF Done:  E(RCAM-B3LYP) =  -1706.88442467     A.U. after   14 cycles

 Excitation energies and oscillator strengths:

 Excited State   1:      Singlet-A      2.8457 eV  435.69 nm  f=3.6215  <S**2>=0.000
     155 ->158         0.17385
     156 ->157         0.67804
 This state for optimization and/or second-order correction.
 Total Energy, E(TD-HF/TD-DFT) =  -1706.77984827
 Copying the excited state density for this state as the 1-particle RhoCI density.

 The electronic state is 1-A.
 Alpha  occ. eigenvalues --  -19.21823 -19.20543 -10.31099 -10.30186 -10.28272
 Alpha  occ. eigenvalues --  -10.28066 -10.28033 -10.27826 -10.27618 -10.27573
 Alpha  occ. eigenvalues --  -10.27560 -10.27500 -10.27287 -10.27266 -10.27124
 Alpha  occ. eigenvalues --  -10.27051 -10.26994 -10.26964 -10.26640 -10.26634
 Alpha  occ. eigenvalues --  -10.26529 -10.26473 -10.26454 -10.26372 -10.26362
 Alpha  occ. eigenvalues --  -10.26357 -10.26328 -10.26232 -10.25967 -10.25893
 Alpha  occ. eigenvalues --  -10.25878 -10.25798 -10.25787 -10.25660 -10.25253
 Alpha  occ. eigenvalues --  -10.25215 -10.25062 -10.24784 -10.24752 -10.23929
 Alpha  occ. eigenvalues --  -10.23459 -10.21191  -1.10817  -1.09359  -0.93970
 Alpha  occ. eigenvalues --   -0.93413  -0.92886  -0.91754  -0.90982  -0.90062
 Alpha  occ. eigenvalues --   -0.87268  -0.86872  -0.86508  -0.85491  -0.84519
 Alpha  occ. eigenvalues --   -0.83171  -0.82205  -0.79743  -0.79660  -0.78578
 Alpha  occ. eigenvalues --   -0.77630  -0.76468  -0.76202  -0.75950  -0.75807
 Alpha  occ. eigenvalues --   -0.75256  -0.75043  -0.74152  -0.73877  -0.70286
 Alpha  occ. eigenvalues --   -0.68707  -0.67324  -0.65958  -0.65017  -0.64652
 Alpha  occ. eigenvalues --   -0.63134  -0.62329  -0.61670  -0.61058  -0.60578
 Alpha  occ. eigenvalues --   -0.59520  -0.58309  -0.57935  -0.56793  -0.55984
 Alpha  occ. eigenvalues --   -0.55315  -0.55136  -0.54741  -0.54307  -0.53463
 Alpha  occ. eigenvalues --   -0.53381  -0.53095  -0.52600  -0.51744  -0.50669
 Alpha  occ. eigenvalues --   -0.50396  -0.50152  -0.50036  -0.49845  -0.49496
 Alpha  occ. eigenvalues --   -0.49322  -0.49073  -0.48837  -0.48245  -0.47963
 Alpha  occ. eigenvalues --   -0.47724  -0.47397  -0.47106  -0.46288  -0.46221
 Alpha  occ. eigenvalues --   -0.45777  -0.45621  -0.45344  -0.45235  -0.44968
 Alpha  occ. eigenvalues --   -0.44695  -0.44452  -0.43791  -0.43663  -0.43579
 Alpha  occ. eigenvalues --   -0.43068  -0.42935  -0.42730  -0.42548  -0.42067
 Alpha  occ. eigenvalues --   -0.42033  -0.41965  -0.41332  -0.41143  -0.40986
 Alpha  occ. eigenvalues --   -0.40485  -0.40067  -0.39888  -0.39624  -0.39445
 Alpha  occ. eigenvalues --   -0.39265  -0.38887  -0.38469  -0.37997  -0.37329
 Alpha  occ. eigenvalues --   -0.37266  -0.36719  -0.36688  -0.36105  -0.35709
 Alpha  occ. eigenvalues --   -0.35611  -0.34417  -0.33209  -0.31974  -0.31617
 Alpha  occ. eigenvalues --   -0.31154  -0.29542  -0.27540  -0.26226  -0.24429
 Alpha  occ. eigenvalues --   -0.21022
 Alpha virt. eigenvalues --   -0.03907  -0.00308   0.02440   0.05051   0.07160
 Alpha virt. eigenvalues --    0.09370   0.09913   0.10876   0.11524   0.11617
 Alpha virt. eigenvalues --    0.12337   0.12659   0.12879   0.13097   0.13363

 Mulliken charges:
               1
     1  O   -0.578556
     2  O   -0.529617
     3  C   -0.008965
     4  C   -0.034435
     5  C   -0.186629
     6  C   -0.167153
     7  C    0.187722
     8  C    0.116191
     9  C    0.050607
    10  C    0.076455
    11  C   -0.228212
    12  C   -0.227143
    13  C    0.087958
    14  C    0.065255
    15  C   -0.292560
    16  C   -0.290642
    17  C   -0.299612
    18  C   -0.290226
    19  C   -0.092750
    20  C   -0.152045
    21  C   -0.367831
    22  C   -0.366984
    23  C   -0.135006
    24  C   -0.091430
    25  C    0.058109
    26  C    0.103178
    27  C   -0.357608
    28  C   -0.349264
    29  C   -0.118270
    30  C   -0.082754
    31  C   -0.067854
    32  C   -0.104948
    33  C   -0.096570
    34  C   -0.131835
    35  C    0.083254
    36  C    0.133088
    37  C   -0.352153
    38  C   -0.379187
    39  C   -0.135985
    40  C   -0.083671
    41  C   -0.085027
    42  C   -0.102238
    43  H    0.112995
    44  H    0.065906
    45  H    0.081518
    46  H    0.112510
    47  H    0.080355
    48  H    0.073306
    49  H    0.112099
    50  H    0.101208
    51  H    0.105772
    52  H    0.119293
    53  H    0.107205
    54  H    0.081261
    55  H    0.072807
    56  H    0.111614
    57  H    0.082168
    58  H    0.086823
    59  H    0.099344
    60  H    0.117611
    61  H    0.059669
    62  H    0.085020
    63  H    0.110566
    64  H    0.109580
    65  H    0.112785
    66  H    0.058928
    67  H    0.109472
    68  H    0.114830
    69  H    0.083648
    70  H    0.111445
    71  H    0.123669
    72  H    0.093511
    73  H    0.305953
    74  H    0.308384
    75  H    0.112760
    76  H    0.071861
    77  H    0.108435
    78  H    0.112328
    79  H    0.128161
    80  H    0.123763
    81  H    0.121311
    82  H    0.085713
    83  H    0.069517
    84  H    0.077908
    85  H    0.056764
    86  H    0.073539
    87  H    0.077111
    88  H    0.081986
    89  H    0.127710
    90  H    0.108596
    91  H    0.136226
    92  H    0.126946
    93  H    0.120362
    94  H    0.104576
    95  H    0.076070
    96  H    0.058176
    97  H    0.056504
    98  H    0.097762
 Sum of Mulliken charges =  -0.00000

 Dipole moment (field-independent basis, Debye):
    X=              0.8963    Y=             -0.9753    Z=              1.2753  Tot=              1.8387
 Quadrupole moment (field-independent basis, Debye-Ang):
   XX=           -291.8593   YY=           -245.2314   ZZ=           -258.7717
   XY=              9.7090   XZ=             -4.4110   YZ=              1.6865

 Normal termination of Gaussian 16 at Wed Jul 10 08:26:27 2019.
