 Gaussian 16, Revision A.03,
 Gaussian 16:  ES64L-G16RevA.03 25-Dec-2016

 -------------------------------------
 # td=(NStates=1) CAM-B3LYP/6-31G(d,p)
 -------------------------------------

 --
 TD
 --
 Symbolic Z-matrix:
 Charge =  0 Multiplicity = 1

                         Standard orientation:
 ---------------------------------------------------------------------
 Center     Atomic      Atomic             Coordinates (Angstroms)
 Number     Number       Type             X           Y           Z
 ---------------------------------------------------------------------
      1          8           0       14.644136   -2.359611   -0.468791
      2          8           0      -14.789683    2.047299    0.699692
      3          6           0       11.336417   -1.191607    1.178391
      4          6           0      -12.380292   -0.957537    0.689152
      5          6           0       12.824669   -1.556774    1.037884
      6          6           0      -13.709539   -0.139520    0.632994
      7          6           0       13.316689   -1.928534   -0.454238
      8          6           0      -13.500782    1.352379    0.601168
      9          6           0       10.922382   -0.218550   -0.033392
     10          6           0      -11.304101   -0.276637   -0.254786
     11          6           0       12.997573   -0.782762   -1.314951
     12          6           0      -12.633567    1.780646   -0.572422
     13          6           0       11.674421   -0.081739   -1.090554
     14          6           0      -11.433857    0.938155   -0.828027
     15          6           0       11.133055   -0.505742    2.588799
     16          6           0       10.610846   -2.408333    1.135828
     17          6           0      -11.876863   -0.876836    2.180786
     18          6           0      -12.435848   -2.365297    0.222506
     19          6           0        9.529683    0.340179    0.191701
     20          6           0      -10.115531   -1.097741   -0.451597
     21          6           0       11.401771    0.775016   -2.302257
     22          6           0      -10.525005    1.561243   -1.813479
     23          6           0        9.286046    1.651951   -0.020520
     24          6           0       -8.779409   -0.706828   -0.140133
     25          6           0        8.051329    2.377979    0.094055
     26          6           0       -7.551870   -1.411853   -0.405335
     27          6           0        8.080494    3.724044    0.576344
     28          6           0       -7.574946   -2.820725   -0.890843
     29          6           0        6.842452    1.705885   -0.100366
     30          6           0       -6.366813   -0.643428   -0.255754
     31          6           0        5.470723    2.050606    0.150045
     32          6           0       -5.026397   -1.226112   -0.407667
     33          6           0        4.478556    1.322413   -0.097021
     34          6           0       -3.977442   -0.396288   -0.155411
     35          6           0        3.004898    1.621405    0.118283
     36          6           0       -2.647998   -0.832057   -0.269563
     37          6           0        2.785718    2.977442    0.609599
     38          6           0       -2.324225   -2.203829   -0.772432
     39          6           0        2.026001    0.747581   -0.063313
     40          6           0       -1.666544    0.143902   -0.131431
     41          6           0        0.644625    0.810383    0.015300
     42          6           0       -0.266232   -0.089519   -0.158791
     43          1           0       13.391452   -0.649527    1.510439
     44          1           0       13.009190   -2.323399    1.485700
     45          1           0      -14.338252   -0.350766    1.424008
     46          1           0      -14.546281   -0.484337    0.037611
     47          1           0       12.911849   -2.773347   -0.741368
     48          1           0      -12.898088    1.783458    1.538639
     49          1           0       13.763313    0.073939   -1.482020
     50          1           0       13.105510   -1.146608   -2.571699
     51          1           0      -13.446708    1.537338   -1.379826
     52          1           0      -12.401744    2.889853   -0.434746
     53          1           0       11.498019   -1.180523    3.362004
     54          1           0       10.062994   -0.419200    2.901715
     55          1           0       11.710344    0.540076    2.541642
     56          1           0       10.717841   -2.926426    0.146174
     57          1           0       10.920216   -3.057809    1.885762
     58          1           0        9.543809   -2.148866    1.354397
     59          1           0      -11.351529    0.145748    2.412011
     60          1           0      -10.949601   -1.441890    2.318345
     61          1           0      -12.683465   -1.254397    2.922651
     62          1           0      -13.396028   -2.849608    0.512429
     63          1           0      -11.621111   -2.852599    0.603392
     64          1           0      -12.524204   -2.490755   -0.888914
     65          1           0        8.921481   -0.320802    0.439009
     66          1           0      -10.186516   -2.195425   -0.915185
     67          1           0       10.380904    1.102532   -2.231333
     68          1           0       12.015439    1.749932   -2.359309
     69          1           0       11.649809    0.334825   -3.297657
     70          1           0      -11.033741    1.832536   -2.740927
     71          1           0       -9.597036    0.934126   -1.901835
     72          1           0       -9.968458    2.453297   -1.594340
     73          1           0       14.885942   -3.080884    0.055936
     74          1           0      -15.184385    1.487476    1.466787
     75          1           0       10.264737    2.233996   -0.305579
     76          1           0       -8.624013    0.400146    0.325748
     77          1           0        8.880495    4.394894    0.093402
     78          1           0        7.085129    4.320894    0.372994
     79          1           0        8.430323    3.986071    1.459748
     80          1           0       -8.199576   -3.241307   -0.041643
     81          1           0       -7.979765   -2.722341   -1.885299
     82          1           0       -6.668236   -3.316048   -0.942320
     83          1           0        7.058139    0.573338   -0.427422
     84          1           0       -6.414593    0.397128   -0.146434
     85          1           0        5.347719    2.999438    0.615560
     86          1           0       -4.814293   -2.319011   -0.801503
     87          1           0        4.789295    0.219692   -0.107179
     88          1           0       -4.189237    0.570094    0.359701
     89          1           0        3.364962    3.116972    1.584327
     90          1           0        1.648287    3.172133    1.017716
     91          1           0        3.070523    3.716982   -0.271654
     92          1           0       -2.736127   -2.976941   -0.246518
     93          1           0       -2.710484   -2.283082   -1.698094
     94          1           0       -1.229656   -2.179301   -0.908115
     95          1           0        2.456848   -0.276199   -0.485693
     96          1           0       -2.090245    1.100235    0.072652
     97          1           0        0.082591    1.823775    0.181420
     98          1           0        0.054079   -1.108820   -0.273804
 ---------------------------------------------------------------------

 SCF Done:  E(RCAM-B3LYP) =  -1706.93289901     A.U. after   14 cycles

 Excitation energies and oscillator strengths:

 Excited State   1:      Singlet-A      2.7821 eV  445.65 nm  f=3.7010  <S**2>=0.000
     155 ->158         0.17912
     156 ->157         0.67720
 This state for optimization and/or second-order correction.
 Total Energy, E(TD-HF/TD-DFT) =  -1706.83065972
 Copying the excited state density for this state as the 1-particle RhoCI density.

 The electronic state is 1-A.
 Alpha  occ. eigenvalues --  -19.21456 -19.19777 -10.30854 -10.29456 -10.28388
 Alpha  occ. eigenvalues --  -10.27846 -10.27654 -10.27596 -10.27342 -10.27314
 Alpha  occ. eigenvalues --  -10.27280 -10.27162 -10.27153 -10.26871 -10.26803
 Alpha  occ. eigenvalues --  -10.26693 -10.26643 -10.26642 -10.26390 -10.26321
 Alpha  occ. eigenvalues --  -10.26312 -10.26263 -10.26041 -10.25901 -10.25897
 Alpha  occ. eigenvalues --  -10.25893 -10.25885 -10.25848 -10.25705 -10.25683
 Alpha  occ. eigenvalues --  -10.25612 -10.25357 -10.25274 -10.25074 -10.25051
 Alpha  occ. eigenvalues --  -10.24867 -10.24793 -10.24332 -10.24324 -10.24043
 Alpha  occ. eigenvalues --  -10.23895 -10.23326  -1.10105  -1.07360  -0.93711
 Alpha  occ. eigenvalues --   -0.93471  -0.92900  -0.92198  -0.90913  -0.90203
 Alpha  occ. eigenvalues --   -0.88542  -0.87814  -0.87481  -0.85756  -0.84798
 Alpha  occ. eigenvalues --   -0.84229  -0.82881  -0.80918  -0.79880  -0.78956
 Alpha  occ. eigenvalues --   -0.77346  -0.77077  -0.76520  -0.76050  -0.75995
 Alpha  occ. eigenvalues --   -0.75553  -0.75327  -0.74916  -0.73968  -0.70789
 Alpha  occ. eigenvalues --   -0.69639  -0.67661  -0.66829  -0.65144  -0.64069
 Alpha  occ. eigenvalues --   -0.63598  -0.62734  -0.61730  -0.60548  -0.60090
 Alpha  occ. eigenvalues --   -0.59858  -0.58774  -0.57845  -0.56604  -0.55932
 Alpha  occ. eigenvalues --   -0.55745  -0.55267  -0.55105  -0.54941  -0.53886
 Alpha  occ. eigenvalues --   -0.53378  -0.52877  -0.52512  -0.51933  -0.51384
 Alpha  occ. eigenvalues --   -0.50993  -0.50929  -0.50838  -0.50583  -0.50140
 Alpha  occ. eigenvalues --   -0.49935  -0.49543  -0.49168  -0.48562  -0.48281
 Alpha  occ. eigenvalues --   -0.47860  -0.47736  -0.47508  -0.47345  -0.47175
 Alpha  occ. eigenvalues --   -0.46560  -0.46007  -0.45891  -0.45534  -0.44999
 Alpha  occ. eigenvalues --   -0.44916  -0.44352  -0.44166  -0.43650  -0.43063
 Alpha  occ. eigenvalues --   -0.42842  -0.42736  -0.42555  -0.42205  -0.41667
 Alpha  occ. eigenvalues --   -0.41421  -0.41201  -0.40872  -0.40639  -0.40426
 Alpha  occ. eigenvalues --   -0.40269  -0.40130  -0.39802  -0.39388  -0.39215
 Alpha  occ. eigenvalues --   -0.39177  -0.38749  -0.38496  -0.38331  -0.38112
 Alpha  occ. eigenvalues --   -0.37816  -0.36738  -0.36536  -0.35688  -0.35488
 Alpha  occ. eigenvalues --   -0.35285  -0.34483  -0.33312  -0.32073  -0.31531
 Alpha  occ. eigenvalues --   -0.30820  -0.29517  -0.28728  -0.26779  -0.24226
 Alpha  occ. eigenvalues --   -0.20874
 Alpha virt. eigenvalues --   -0.04209  -0.00741   0.02717   0.06321   0.07722
 Alpha virt. eigenvalues --    0.09187   0.11096   0.11179   0.11960   0.12445
 Alpha virt. eigenvalues --    0.12724   0.13035   0.13340   0.13468   0.13602

 Mulliken charges:
               1
     1  O   -0.580704
     2  O   -0.568457
     3  C   -0.023997
     4  C    0.020948
     5  C   -0.166976
     6  C   -0.213694
     7  C    0.213116
     8  C    0.166000
     9  C    0.009390
    10  C    0.038316
    11  C   -0.212309
    12  C   -0.223415
    13  C    0.088678
    14  C    0.093102
    15  C   -0.302433
    16  C   -0.288031
    17  C   -0.304008
    18  C   -0.314294
    19  C   -0.040248
    20  C   -0.174422
    21  C   -0.371992
    22  C   -0.375225
    23  C   -0.138981
    24  C   -0.105272
    25  C    0.128522
    26  C    0.079988
    27  C   -0.386786
    28  C   -0.349801
    29  C   -0.138977
    30  C   -0.130189
    31  C   -0.045661
    32  C   -0.099377
    33  C   -0.111955
    34  C   -0.110303
    35  C    0.124638
    36  C    0.097641
    37  C   -0.372177
    38  C   -0.370132
    39  C   -0.136845
    40  C   -0.131529
    41  C   -0.077895
    42  C   -0.061776
    43  H    0.082931
    44  H    0.062497
    45  H    0.077664
    46  H    0.101258
    47  H    0.087106
    48  H    0.063241
    49  H    0.118219
    50  H    0.051023
    51  H    0.107051
    52  H    0.108608
    53  H    0.101684
    54  H    0.098952
    55  H    0.096734
    56  H    0.101204
    57  H    0.104014
    58  H    0.087441
    59  H    0.102218
    60  H    0.106122
    61  H    0.097483
    62  H    0.088056
    63  H    0.122152
    64  H    0.108887
    65  H    0.069703
    66  H    0.092070
    67  H    0.121492
    68  H    0.101304
    69  H    0.111200
    70  H    0.117761
    71  H    0.110478
    72  H    0.115363
    73  H    0.301218
    74  H    0.307819
    75  H    0.086702
    76  H    0.077339
    77  H    0.094898
    78  H    0.101292
    79  H    0.141964
    80  H    0.118612
    81  H    0.137183
    82  H    0.114144
    83  H    0.061589
    84  H    0.088073
    85  H    0.083940
    86  H    0.084838
    87  H    0.078146
    88  H    0.089150
    89  H    0.119090
    90  H    0.090444
    91  H    0.115899
    92  H    0.124508
    93  H    0.137617
    94  H    0.105254
    95  H    0.066487
    96  H    0.076520
    97  H    0.069020
    98  H    0.081865
 Sum of Mulliken charges =  -0.00000

 Dipole moment (field-independent basis, Debye):
    X=              0.0719    Y=             -2.6141    Z=              1.9152  Tot=              3.2415
 Quadrupole moment (field-independent basis, Debye-Ang):
   XX=           -288.1871   YY=           -244.4372   ZZ=           -261.1812
   XY=             19.2132   XZ=              7.0035   YZ=              0.7473

 Normal termination of Gaussian 16 at Tue Jul  9 12:04:28 2019.
