 Gaussian 16, Revision A.03,
 Gaussian 16:  ES64L-G16RevA.03 25-Dec-2016

 -------------------------------------
 # td=(NStates=1) CAM-B3LYP/6-31G(d,p)
 -------------------------------------

 --
 TD
 --
 Symbolic Z-matrix:
 Charge =  0 Multiplicity = 1

                         Standard orientation:
 ---------------------------------------------------------------------
 Center     Atomic      Atomic             Coordinates (Angstroms)
 Number     Number       Type             X           Y           Z
 ---------------------------------------------------------------------
      1          8           0       14.678093   -2.315980   -0.617630
      2          8           0      -14.835348    1.841814    0.694334
      3          6           0       11.526235   -1.091028    1.084605
      4          6           0      -12.311831   -0.966040    0.724046
      5          6           0       13.000910   -1.485593    0.897518
      6          6           0      -13.689674   -0.306675    0.702327
      7          6           0       13.271226   -1.999704   -0.491469
      8          6           0      -13.517428    1.263641    0.601737
      9          6           0       10.943747   -0.239656   -0.000371
     10          6           0      -11.374159   -0.235714   -0.275593
     11          6           0       12.881456   -0.930825   -1.488658
     12          6           0      -12.944504    1.555728   -0.717109
     13          6           0       11.619361   -0.221044   -1.220399
     14          6           0      -11.692376    0.907339   -1.049542
     15          6           0       11.442032   -0.284089    2.424174
     16          6           0       10.699135   -2.409991    1.337350
     17          6           0      -11.641423   -0.749085    2.090997
     18          6           0      -12.376816   -2.409055    0.405220
     19          6           0        9.726788    0.401372    0.233980
     20          6           0      -10.079671   -1.038288   -0.457205
     21          6           0       11.001969    0.383500   -2.409445
     22          6           0      -10.790145    1.451643   -1.976688
     23          6           0        9.285683    1.651912   -0.197343
     24          6           0       -8.828184   -0.558718   -0.378079
     25          6           0        8.088575    2.347121    0.018895
     26          6           0       -7.572160   -1.190206   -0.408490
     27          6           0        8.190393    3.882639    0.409195
     28          6           0       -7.674173   -2.745602   -0.610779
     29          6           0        6.966681    1.625952    0.117111
     30          6           0       -6.394057   -0.567736   -0.265626
     31          6           0        5.597630    2.062708    0.263142
     32          6           0       -5.076158   -1.093002   -0.329127
     33          6           0        4.526694    1.306648   -0.015450
     34          6           0       -3.984061   -0.277461   -0.149671
     35          6           0        3.135027    1.667751    0.123207
     36          6           0       -2.648568   -0.733267   -0.301583
     37          6           0        2.711931    3.038946    0.885461
     38          6           0       -2.411294   -2.143892   -0.569240
     39          6           0        2.169200    0.743204   -0.048034
     40          6           0       -1.639595    0.157500   -0.023819
     41          6           0        0.736346    0.843926    0.119865
     42          6           0       -0.199965   -0.084630   -0.190075
     43          1           0       13.723014   -0.661600    1.334400
     44          1           0       13.326112   -2.293264    1.570942
     45          1           0      -14.358867   -0.716957    1.445406
     46          1           0      -14.360715   -0.554597   -0.130902
     47          1           0       12.505940   -2.890236   -0.613869
     48          1           0      -12.997784    1.661429    1.424225
     49          1           0       13.651239   -0.216603   -1.529343
     50          1           0       12.820224   -1.276169   -2.560559
     51          1           0      -13.542499    1.325972   -1.504972
     52          1           0      -12.713262    2.685205   -0.926871
     53          1           0       11.701247   -0.822526    3.285063
     54          1           0       10.338154   -0.260212    2.780550
     55          1           0       12.077109    0.577399    2.571441
     56          1           0       10.656434   -3.223467    0.583591
     57          1           0       11.048084   -2.929189    2.256493
     58          1           0        9.606869   -2.044263    1.539466
     59          1           0      -11.322900    0.333477    2.176772
     60          1           0      -10.815286   -1.267726    2.270046
     61          1           0      -12.443515   -1.397049    2.714505
     62          1           0      -13.250219   -2.883128    1.066078
     63          1           0      -11.431775   -2.889139    0.774643
     64          1           0      -12.632707   -2.583169   -0.636747
     65          1           0        8.970001    0.024705    0.803094
     66          1           0      -10.205171   -2.089919   -0.756980
     67          1           0        9.937733    0.669110   -2.387300
     68          1           0       11.369821    1.436468   -2.559995
     69          1           0       11.289145   -0.279630   -3.217048
     70          1           0      -11.365684    1.772009   -2.806405
     71          1           0       -9.779131    0.950940   -2.080309
     72          1           0      -10.408828    2.501043   -1.746648
     73          1           0       14.670665   -3.070471   -0.005477
     74          1           0      -15.192221    1.839219    1.554244
     75          1           0       10.022661    2.360920   -0.667959
     76          1           0       -8.989701    0.436028   -0.124098
     77          1           0        8.719424    4.306979   -0.443151
     78          1           0        7.182595    4.281215    0.651086
     79          1           0        9.137473    3.983101    1.205894
     80          1           0       -8.257329   -3.139610    0.259203
     81          1           0       -8.369910   -2.991350   -1.487194
     82          1           0       -6.748949   -3.284539   -0.757579
     83          1           0        6.954470    0.431988    0.042688
     84          1           0       -6.470446    0.478804   -0.186448
     85          1           0        5.139171    3.062255    0.624852
     86          1           0       -5.055762   -2.031443   -0.598463
     87          1           0        4.677072    0.202514   -0.137630
     88          1           0       -4.002494    0.876127    0.045222
     89          1           0        3.235467    3.117767    1.936761
     90          1           0        1.639104    3.227152    0.962378
     91          1           0        3.048601    4.013389    0.223697
     92          1           0       -2.919153   -2.834325    0.165430
     93          1           0       -2.804357   -2.440075   -1.387243
     94          1           0       -1.469905   -2.558494   -0.562313
     95          1           0        2.765510   -0.150540   -0.407849
     96          1           0       -1.799752    1.082966    0.455938
     97          1           0        0.378977    1.703609    0.210049
     98          1           0        0.325390   -0.950151   -0.514659
 ---------------------------------------------------------------------

 SCF Done:  E(RCAM-B3LYP) =  -1706.99398145     A.U. after   14 cycles

 Excitation energies and oscillator strengths:

 Excited State   1:      Singlet-A      2.7239 eV  455.17 nm  f=3.8134  <S**2>=0.000
     155 ->158         0.19740
     156 ->157         0.66973
 This state for optimization and/or second-order correction.
 Total Energy, E(TD-HF/TD-DFT) =  -1706.89388046
 Copying the excited state density for this state as the 1-particle RhoCI density.

 The electronic state is 1-A.
 Alpha  occ. eigenvalues --  -19.22078 -19.19809 -10.31428 -10.30457 -10.27917
 Alpha  occ. eigenvalues --  -10.27868 -10.27830 -10.27580 -10.27170 -10.27125
 Alpha  occ. eigenvalues --  -10.26987 -10.26921 -10.26683 -10.26595 -10.26584
 Alpha  occ. eigenvalues --  -10.26534 -10.26380 -10.26267 -10.26264 -10.26129
 Alpha  occ. eigenvalues --  -10.26091 -10.26041 -10.26000 -10.25892 -10.25881
 Alpha  occ. eigenvalues --  -10.25709 -10.25687 -10.25508 -10.25487 -10.25390
 Alpha  occ. eigenvalues --  -10.25269 -10.25046 -10.24998 -10.24760 -10.24743
 Alpha  occ. eigenvalues --  -10.24732 -10.24608 -10.24554 -10.24461 -10.24414
 Alpha  occ. eigenvalues --  -10.24255 -10.23523  -1.09795  -1.08711  -0.94081
 Alpha  occ. eigenvalues --   -0.94005  -0.92666  -0.91595  -0.90846  -0.90153
 Alpha  occ. eigenvalues --   -0.88887  -0.87666  -0.87402  -0.85893  -0.85147
 Alpha  occ. eigenvalues --   -0.83367  -0.82542  -0.80293  -0.80035  -0.78677
 Alpha  occ. eigenvalues --   -0.76385  -0.76351  -0.76175  -0.76053  -0.76006
 Alpha  occ. eigenvalues --   -0.75457  -0.75171  -0.75053  -0.74241  -0.71280
 Alpha  occ. eigenvalues --   -0.69615  -0.68691  -0.66349  -0.65436  -0.64490
 Alpha  occ. eigenvalues --   -0.63794  -0.63190  -0.63014  -0.61753  -0.60214
 Alpha  occ. eigenvalues --   -0.59369  -0.59261  -0.59059  -0.57678  -0.56862
 Alpha  occ. eigenvalues --   -0.56206  -0.56006  -0.54784  -0.54260  -0.53967
 Alpha  occ. eigenvalues --   -0.53346  -0.52853  -0.52082  -0.51643  -0.51297
 Alpha  occ. eigenvalues --   -0.51094  -0.50281  -0.50064  -0.49739  -0.49675
 Alpha  occ. eigenvalues --   -0.49038  -0.48935  -0.48653  -0.48363  -0.47960
 Alpha  occ. eigenvalues --   -0.47889  -0.47373  -0.47091  -0.46650  -0.46366
 Alpha  occ. eigenvalues --   -0.46179  -0.45915  -0.45285  -0.45193  -0.44912
 Alpha  occ. eigenvalues --   -0.44888  -0.44567  -0.44305  -0.43743  -0.43259
 Alpha  occ. eigenvalues --   -0.42887  -0.42837  -0.42692  -0.42340  -0.42151
 Alpha  occ. eigenvalues --   -0.42056  -0.41773  -0.41720  -0.40910  -0.40601
 Alpha  occ. eigenvalues --   -0.40456  -0.40373  -0.40155  -0.39957  -0.39452
 Alpha  occ. eigenvalues --   -0.39318  -0.39203  -0.38705  -0.38166  -0.38141
 Alpha  occ. eigenvalues --   -0.37824  -0.37820  -0.36463  -0.36292  -0.36126
 Alpha  occ. eigenvalues --   -0.35469  -0.35000  -0.34045  -0.32396  -0.32095
 Alpha  occ. eigenvalues --   -0.31283  -0.29679  -0.27412  -0.25770  -0.23351
 Alpha  occ. eigenvalues --   -0.20841
 Alpha virt. eigenvalues --   -0.04368  -0.00716   0.02693   0.05745   0.07646
 Alpha virt. eigenvalues --    0.09536   0.11039   0.11636   0.11994   0.12080
 Alpha virt. eigenvalues --    0.12927   0.13372   0.13541   0.13758   0.14058

 Mulliken charges:
               1
     1  O   -0.546813
     2  O   -0.578140
     3  C   -0.033560
     4  C    0.000228
     5  C   -0.177480
     6  C   -0.195214
     7  C    0.143575
     8  C    0.170237
     9  C    0.129652
    10  C   -0.026964
    11  C   -0.217861
    12  C   -0.210517
    13  C    0.043493
    14  C    0.125358
    15  C   -0.316132
    16  C   -0.309881
    17  C   -0.279215
    18  C   -0.303052
    19  C   -0.097771
    20  C   -0.141493
    21  C   -0.365482
    22  C   -0.392059
    23  C   -0.130607
    24  C   -0.100773
    25  C    0.085637
    26  C    0.115582
    27  C   -0.347515
    28  C   -0.382821
    29  C   -0.135957
    30  C   -0.119725
    31  C   -0.087339
    32  C   -0.067174
    33  C   -0.118950
    34  C   -0.115177
    35  C    0.110258
    36  C    0.144038
    37  C   -0.367717
    38  C   -0.377647
    39  C   -0.129905
    40  C   -0.162379
    41  C   -0.066169
    42  C   -0.066310
    43  H    0.089830
    44  H    0.074801
    45  H    0.079971
    46  H    0.100164
    47  H    0.074444
    48  H    0.091629
    49  H    0.137031
    50  H    0.098180
    51  H    0.133741
    52  H    0.089345
    53  H    0.100068
    54  H    0.086794
    55  H    0.112302
    56  H    0.104735
    57  H    0.102981
    58  H    0.089445
    59  H    0.104006
    60  H    0.119630
    61  H    0.073004
    62  H    0.073226
    63  H    0.104453
    64  H    0.116338
    65  H    0.079881
    66  H    0.083494
    67  H    0.127415
    68  H    0.110709
    69  H    0.100671
    70  H    0.112642
    71  H    0.130081
    72  H    0.101035
    73  H    0.308634
    74  H    0.300267
    75  H    0.062331
    76  H    0.078746
    77  H    0.125225
    78  H    0.127670
    79  H    0.107817
    80  H    0.119818
    81  H    0.112776
    82  H    0.107938
    83  H    0.081002
    84  H    0.070977
    85  H    0.078360
    86  H    0.070578
    87  H    0.075270
    88  H    0.087216
    89  H    0.116860
    90  H    0.118826
    91  H    0.086896
    92  H    0.112603
    93  H    0.131819
    94  H    0.118155
    95  H    0.069477
    96  H    0.088474
    97  H    0.059497
    98  H    0.080465
 Sum of Mulliken charges =  -0.00000

 Dipole moment (field-independent basis, Debye):
    X=             -0.3069    Y=             -1.2535    Z=              1.8785  Tot=              2.2791
 Quadrupole moment (field-independent basis, Debye-Ang):
   XX=           -283.6126   YY=           -242.4541   ZZ=           -260.5091
   XY=              1.7680   XZ=              3.3234   YZ=              0.7721

 Normal termination of Gaussian 16 at Wed Jul  3 19:41:24 2019.
