 Gaussian 16, Revision A.03,
 Gaussian 16:  ES64L-G16RevA.03 25-Dec-2016

 -------------------------------------
 # td=(NStates=1) CAM-B3LYP/6-31G(d,p)
 -------------------------------------

 --
 TD
 --
 Symbolic Z-matrix:
 Charge =  0 Multiplicity = 1

                         Standard orientation:
 ---------------------------------------------------------------------
 Center     Atomic      Atomic             Coordinates (Angstroms)
 Number     Number       Type             X           Y           Z
 ---------------------------------------------------------------------
      1          8           0       14.940951   -2.018435   -0.315808
      2          8           0      -14.766560    2.001299    0.924248
      3          6           0       11.620840   -1.010073    1.275331
      4          6           0      -12.352133   -0.940252    0.639588
      5          6           0       13.073541   -1.279212    1.108070
      6          6           0      -13.646185   -0.074253    0.739881
      7          6           0       13.515069   -1.856269   -0.224616
      8          6           0      -13.531337    1.389071    0.821091
      9          6           0       11.016413   -0.321345   -0.074345
     10          6           0      -11.364653   -0.197416   -0.220326
     11          6           0       13.082332   -0.829563   -1.290485
     12          6           0      -12.760927    1.836190   -0.366084
     13          6           0       11.863873   -0.216141   -1.156408
     14          6           0      -11.478237    1.073832   -0.680900
     15          6           0       11.248246   -0.210624    2.509629
     16          6           0       10.854905   -2.363479    1.345728
     17          6           0      -11.779063   -1.178932    2.166385
     18          6           0      -12.594661   -2.344510   -0.087182
     19          6           0        9.736415    0.373480    0.109673
     20          6           0      -10.104912   -1.044141   -0.411058
     21          6           0       11.384029    0.410189   -2.436669
     22          6           0      -10.573728    1.717931   -1.683302
     23          6           0        9.342503    1.654861   -0.183423
     24          6           0       -8.860378   -0.594575   -0.346680
     25          6           0        7.954521    2.127898    0.010285
     26          6           0       -7.729251   -1.341611   -0.620290
     27          6           0        7.984793    3.628620    0.182277
     28          6           0       -7.767075   -2.813480   -0.923710
     29          6           0        6.827816    1.449841   -0.083321
     30          6           0       -6.489774   -0.714851   -0.398600
     31          6           0        5.486346    2.057351    0.045512
     32          6           0       -5.183859   -1.219666   -0.416637
     33          6           0        4.379908    1.287439   -0.032497
     34          6           0       -4.077804   -0.350251   -0.206694
     35          6           0        2.949035    1.492582    0.145420
     36          6           0       -2.681972   -0.855598   -0.372209
     37          6           0        2.689835    2.927675    0.614385
     38          6           0       -2.382863   -2.254491   -0.695805
     39          6           0        2.008080    0.571021    0.009288
     40          6           0       -1.692082    0.150343   -0.132824
     41          6           0        0.548669    0.897248    0.101117
     42          6           0       -0.335192   -0.162395   -0.092043
     43          1           0       13.644243   -0.475428    1.242759
     44          1           0       13.372574   -1.964897    1.998344
     45          1           0      -14.367347   -0.380490    1.448283
     46          1           0      -14.064067   -0.295840   -0.295219
     47          1           0       12.733729   -2.737743   -0.419204
     48          1           0      -12.985508    1.721202    1.709099
     49          1           0       13.936023   -0.219531   -1.347059
     50          1           0       13.085565   -1.341204   -2.342544
     51          1           0      -13.484412    1.701212   -1.290612
     52          1           0      -12.492150    2.980986   -0.313920
     53          1           0       11.822744   -0.736261    3.288682
     54          1           0       10.160406   -0.021424    2.558269
     55          1           0       11.487139    0.969467    2.202960
     56          1           0       10.742155   -2.999075    0.462118
     57          1           0       11.048293   -3.127981    2.384609
     58          1           0        9.744296   -2.038530    1.706110
     59          1           0      -11.741731   -0.258227    2.788074
     60          1           0      -10.724785   -1.797599    2.258193
     61          1           0      -12.627721   -1.934761    2.851448
     62          1           0      -13.394304   -2.716150    0.521817
     63          1           0      -11.591885   -2.886390   -0.072986
     64          1           0      -12.824877   -2.109907   -1.174661
     65          1           0        8.939785   -0.283946    0.409060
     66          1           0      -10.311618   -2.093537   -0.909543
     67          1           0       10.265857    0.497622   -2.421239
     68          1           0       11.617425    1.723168   -2.435686
     69          1           0       11.651466   -0.281137   -3.234912
     70          1           0      -11.110056    2.116084   -2.525803
     71          1           0       -9.645020    0.820054   -2.218188
     72          1           0       -9.925241    2.447894   -1.141006
     73          1           0       15.077170   -2.512171    0.445566
     74          1           0      -15.213329    1.603032    1.604518
     75          1           0       10.191964    2.283974   -0.568941
     76          1           0       -8.697666    0.461100   -0.133861
     77          1           0        8.427425    4.181715   -0.825367
     78          1           0        7.226126    4.254120    0.389131
     79          1           0        8.785321    3.911146    1.070786
     80          1           0       -8.453887   -3.516370   -0.305650
     81          1           0       -8.026199   -2.999125   -2.074627
     82          1           0       -6.737411   -3.240327   -0.791005
     83          1           0        6.891991    0.370318   -0.339177
     84          1           0       -6.518356    0.290460   -0.005694
     85          1           0        5.521819    3.042401    0.499964
     86          1           0       -5.021022   -2.255489   -0.886046
     87          1           0        4.570437    0.152848   -0.180948
     88          1           0       -4.258452    0.648395    0.143070
     89          1           0        3.319134    3.270847    1.402301
     90          1           0        1.611310    3.204698    0.931017
     91          1           0        2.720465    3.664814   -0.111230
     92          1           0       -2.807973   -2.792651    0.244988
     93          1           0       -3.106571   -2.585039   -1.708907
     94          1           0       -1.365390   -2.391617   -0.886243
     95          1           0        2.238941   -0.263935   -0.391239
     96          1           0       -2.075576    0.986287    0.102306
     97          1           0        0.149177    1.795204    0.250713
     98          1           0        0.107956   -0.939856   -0.555503
 ---------------------------------------------------------------------

 SCF Done:  E(RCAM-B3LYP) =  -1706.89603898     A.U. after   14 cycles

 Excitation energies and oscillator strengths:

 Excited State   1:      Singlet-A      2.5560 eV  485.06 nm  f=3.5619  <S**2>=0.000
     155 ->158        -0.14879
     156 ->157         0.68795
 This state for optimization and/or second-order correction.
 Total Energy, E(TD-HF/TD-DFT) =  -1706.80210648
 Copying the excited state density for this state as the 1-particle RhoCI density.

 The electronic state is 1-A.
 Alpha  occ. eigenvalues --  -19.22611 -19.20652 -10.31560 -10.29623 -10.28503
 Alpha  occ. eigenvalues --  -10.28300 -10.27995 -10.27959 -10.27822 -10.27567
 Alpha  occ. eigenvalues --  -10.27426 -10.27335 -10.27298 -10.27290 -10.27207
 Alpha  occ. eigenvalues --  -10.27203 -10.27016 -10.26997 -10.26979 -10.26912
 Alpha  occ. eigenvalues --  -10.26854 -10.26817 -10.26701 -10.26511 -10.26435
 Alpha  occ. eigenvalues --  -10.26294 -10.26253 -10.26228 -10.26211 -10.26199
 Alpha  occ. eigenvalues --  -10.25868 -10.25855 -10.25838 -10.25700 -10.25576
 Alpha  occ. eigenvalues --  -10.25355 -10.25168 -10.24839 -10.24827 -10.24709
 Alpha  occ. eigenvalues --  -10.24649 -10.24594  -1.12174  -1.11623  -0.94227
 Alpha  occ. eigenvalues --   -0.93295  -0.92394  -0.91649  -0.91069  -0.90189
 Alpha  occ. eigenvalues --   -0.88321  -0.87341  -0.85882  -0.85739  -0.84981
 Alpha  occ. eigenvalues --   -0.83420  -0.82436  -0.80287  -0.79354  -0.78707
 Alpha  occ. eigenvalues --   -0.76431  -0.76087  -0.75812  -0.75455  -0.75209
 Alpha  occ. eigenvalues --   -0.75103  -0.74306  -0.73899  -0.73342  -0.70720
 Alpha  occ. eigenvalues --   -0.69274  -0.67755  -0.66327  -0.65630  -0.64881
 Alpha  occ. eigenvalues --   -0.63534  -0.62395  -0.62095  -0.60700  -0.60276
 Alpha  occ. eigenvalues --   -0.59708  -0.59419  -0.59105  -0.58828  -0.56877
 Alpha  occ. eigenvalues --   -0.56169  -0.55734  -0.55089  -0.54944  -0.54551
 Alpha  occ. eigenvalues --   -0.53356  -0.53075  -0.52500  -0.51373  -0.51246
 Alpha  occ. eigenvalues --   -0.50737  -0.50076  -0.49787  -0.49473  -0.49252
 Alpha  occ. eigenvalues --   -0.49055  -0.48594  -0.48312  -0.47804  -0.47686
 Alpha  occ. eigenvalues --   -0.47380  -0.47322  -0.47185  -0.46871  -0.46347
 Alpha  occ. eigenvalues --   -0.46059  -0.45736  -0.45630  -0.45226  -0.44901
 Alpha  occ. eigenvalues --   -0.44595  -0.44473  -0.44337  -0.43607  -0.43118
 Alpha  occ. eigenvalues --   -0.42964  -0.42584  -0.42175  -0.41976  -0.41918
 Alpha  occ. eigenvalues --   -0.41861  -0.41399  -0.40939  -0.40623  -0.40493
 Alpha  occ. eigenvalues --   -0.40298  -0.39940  -0.39902  -0.39680  -0.39206
 Alpha  occ. eigenvalues --   -0.39010  -0.38978  -0.38829  -0.38122  -0.37466
 Alpha  occ. eigenvalues --   -0.37350  -0.37094  -0.36853  -0.36243  -0.35739
 Alpha  occ. eigenvalues --   -0.34930  -0.34551  -0.33527  -0.33247  -0.32549
 Alpha  occ. eigenvalues --   -0.31833  -0.29077  -0.28126  -0.26543  -0.24282
 Alpha  occ. eigenvalues --   -0.20318
 Alpha virt. eigenvalues --   -0.04916  -0.00736   0.02336   0.05122   0.07297
 Alpha virt. eigenvalues --    0.08599   0.10486   0.10761   0.11273   0.11694
 Alpha virt. eigenvalues --    0.11904   0.12590   0.12764   0.13320   0.13676

 Mulliken charges:
               1
     1  O   -0.535852
     2  O   -0.538170
     3  C   -0.006445
     4  C   -0.006704
     5  C   -0.177110
     6  C   -0.205907
     7  C    0.141745
     8  C    0.200113
     9  C    0.030080
    10  C    0.054882
    11  C   -0.244052
    12  C   -0.228899
    13  C    0.098830
    14  C    0.064368
    15  C   -0.288233
    16  C   -0.282026
    17  C   -0.281249
    18  C   -0.300925
    19  C   -0.137338
    20  C   -0.150793
    21  C   -0.349892
    22  C   -0.343725
    23  C   -0.097068
    24  C   -0.085280
    25  C    0.090852
    26  C    0.130356
    27  C   -0.355144
    28  C   -0.375239
    29  C   -0.109645
    30  C   -0.128160
    31  C   -0.083695
    32  C   -0.097325
    33  C   -0.127057
    34  C   -0.120195
    35  C    0.139874
    36  C    0.083092
    37  C   -0.389378
    38  C   -0.346659
    39  C   -0.121472
    40  C   -0.076642
    41  C   -0.075017
    42  C   -0.077613
    43  H    0.110700
    44  H    0.063439
    45  H    0.072786
    46  H    0.093734
    47  H    0.067918
    48  H    0.071377
    49  H    0.138721
    50  H    0.093402
    51  H    0.101351
    52  H    0.088322
    53  H    0.107896
    54  H    0.120903
    55  H    0.079924
    56  H    0.118023
    57  H    0.049946
    58  H    0.079248
    59  H    0.112027
    60  H    0.095891
    61  H    0.040012
    62  H    0.111062
    63  H    0.110651
    64  H    0.105621
    65  H    0.089958
    66  H    0.087916
    67  H    0.123070
    68  H    0.075005
    69  H    0.110752
    70  H    0.122775
    71  H    0.066574
    72  H    0.118863
    73  H    0.306789
    74  H    0.296631
    75  H    0.095700
    76  H    0.086846
    77  H    0.091653
    78  H    0.121382
    79  H    0.088519
    80  H    0.114042
    81  H    0.102708
    82  H    0.107533
    83  H    0.083443
    84  H    0.074575
    85  H    0.091933
    86  H    0.082988
    87  H    0.066552
    88  H    0.093143
    89  H    0.121907
    90  H    0.087106
    91  H    0.131525
    92  H    0.128473
    93  H    0.089594
    94  H    0.118508
    95  H    0.069340
    96  H    0.059684
    97  H    0.082371
    98  H    0.087901
 Sum of Mulliken charges =  -0.00000

 Dipole moment (field-independent basis, Debye):
    X=             -0.0362    Y=             -0.7880    Z=              1.2672  Tot=              1.4926
 Quadrupole moment (field-independent basis, Debye-Ang):
   XX=           -293.9089   YY=           -250.2937   ZZ=           -262.9297
   XY=             12.0887   XZ=              3.0074   YZ=              2.0662

 Normal termination of Gaussian 16 at Mon Jul  1 20:39:06 2019.
