 Gaussian 16, Revision A.03,
 Gaussian 16:  ES64L-G16RevA.03 25-Dec-2016

 -------------------------------------
 # td=(NStates=1) CAM-B3LYP/6-31G(d,p)
 -------------------------------------

 --
 TD
 --
 Symbolic Z-matrix:
 Charge =  0 Multiplicity = 1

                         Standard orientation:
 ---------------------------------------------------------------------
 Center     Atomic      Atomic             Coordinates (Angstroms)
 Number     Number       Type             X           Y           Z
 ---------------------------------------------------------------------
      1          8           0       14.757886   -2.065069   -0.413033
      2          8           0      -14.807239    1.923089    0.889490
      3          6           0       11.510986   -1.118288    1.162719
      4          6           0      -12.336668   -0.936330    0.781097
      5          6           0       12.997697   -1.376767    1.147272
      6          6           0      -13.660856   -0.226731    0.761702
      7          6           0       13.358308   -1.817799   -0.318523
      8          6           0      -13.541774    1.269293    0.806434
      9          6           0       11.025884   -0.327660    0.076120
     10          6           0      -11.402015   -0.323867   -0.388956
     11          6           0       13.084727   -0.762765   -1.347431
     12          6           0      -12.853910    1.753800   -0.383679
     13          6           0       11.754039   -0.237407   -1.086871
     14          6           0      -11.598463    0.950610   -0.737637
     15          6           0       11.085011   -0.472269    2.612568
     16          6           0       10.722153   -2.430570    1.308244
     17          6           0      -11.610128   -0.930988    2.167484
     18          6           0      -12.571542   -2.396910    0.420061
     19          6           0        9.651240    0.266081    0.107600
     20          6           0      -10.105099   -1.054069   -0.545346
     21          6           0       11.339591    0.558905   -2.310401
     22          6           0      -10.576676    1.622887   -1.678618
     23          6           0        9.346605    1.615030    0.065380
     24          6           0       -8.898457   -0.502194   -0.312789
     25          6           0        8.075121    2.221091    0.254704
     26          6           0       -7.624812   -1.192315   -0.558369
     27          6           0        8.064072    3.707317    0.599179
     28          6           0       -7.788193   -2.663492   -1.055265
     29          6           0        6.899916    1.638981   -0.137217
     30          6           0       -6.499913   -0.562222   -0.267503
     31          6           0        5.517032    2.108980    0.061685
     32          6           0       -5.129933   -1.060693   -0.371329
     33          6           0        4.502813    1.272778   -0.159331
     34          6           0       -4.005169   -0.338435   -0.263046
     35          6           0        3.047000    1.629073    0.070633
     36          6           0       -2.644730   -0.831530   -0.428953
     37          6           0        2.691815    3.085889    0.421191
     38          6           0       -2.432966   -2.230326   -0.930091
     39          6           0        2.131434    0.642023   -0.189469
     40          6           0       -1.631001   -0.009124   -0.292891
     41          6           0        0.673260    0.765237   -0.058813
     42          6           0       -0.172358   -0.163363   -0.402896
     43          1           0       13.610182   -0.403624    1.349369
     44          1           0       13.360188   -2.071436    1.930440
     45          1           0      -14.236560   -0.520922    1.604052
     46          1           0      -14.111515   -0.662256   -0.088937
     47          1           0       12.892039   -2.878081   -0.528676
     48          1           0      -12.951510    1.507149    1.655872
     49          1           0       13.721872    0.012141   -1.267549
     50          1           0       13.072108   -1.167832   -2.444420
     51          1           0      -13.672365    1.834676   -1.306535
     52          1           0      -12.673886    2.756065   -0.096375
     53          1           0       11.540492   -1.074209    3.346683
     54          1           0       10.060080   -0.489384    2.796387
     55          1           0       11.442020    0.489341    2.674253
     56          1           0       11.085129   -3.173553    0.660403
     57          1           0       11.062602   -2.897690    2.266744
     58          1           0        9.743008   -2.488762    1.284580
     59          1           0      -11.662326    0.186461    2.521135
     60          1           0      -10.535294   -1.239622    2.196049
     61          1           0      -12.184666   -1.355488    2.925076
     62          1           0      -13.302925   -2.806963    1.252690
     63          1           0      -11.727124   -2.940740    0.480515
     64          1           0      -13.219067   -2.529997   -0.647843
     65          1           0        8.674368   -0.521166    0.295131
     66          1           0      -10.403202   -2.162236   -0.856624
     67          1           0       10.320909    0.889949   -2.389842
     68          1           0       12.162598    1.448729   -2.302272
     69          1           0       11.502030   -0.020514   -3.238291
     70          1           0      -11.192457    2.168529   -2.437500
     71          1           0       -9.820000    0.857430   -2.176575
     72          1           0      -10.153850    2.529944   -1.168886
     73          1           0       15.161122   -2.374736    0.409678
     74          1           0      -15.139168    1.314571    1.564884
     75          1           0       10.313819    2.212844   -0.102694
     76          1           0       -8.732560    0.551771    0.213817
     77          1           0        9.095911    3.934788    0.154320
     78          1           0        7.055390    4.244806    0.018492
     79          1           0        8.126485    3.905981    1.711882
     80          1           0       -8.301843   -3.202921   -0.354063
     81          1           0       -8.250920   -2.636284   -1.888164
     82          1           0       -6.741508   -3.111737   -1.280874
     83          1           0        7.005538    0.612292   -0.659259
     84          1           0       -6.547532    0.387318    0.112068
     85          1           0        5.707291    3.001988    0.395554
     86          1           0       -4.982644   -2.249034   -0.475351
     87          1           0        4.493046    0.325032   -0.746358
     88          1           0       -4.080230    0.771925   -0.102401
     89          1           0        2.932917    3.143556    1.533969
     90          1           0        1.672169    3.041429    0.426298
     91          1           0        3.222664    3.780504   -0.259112
     92          1           0       -2.913047   -2.923837   -0.242983
     93          1           0       -2.870606   -2.370856   -1.764632
     94          1           0       -1.452507   -2.541493   -1.095058
     95          1           0        2.515980   -0.408339   -0.438935
     96          1           0       -1.992710    1.066660   -0.089047
     97          1           0        0.223440    1.802448    0.016615
     98          1           0        0.107204   -1.269949   -0.751233
 ---------------------------------------------------------------------

 SCF Done:  E(RCAM-B3LYP) =  -1706.98905227     A.U. after   13 cycles

 Excitation energies and oscillator strengths:

 Excited State   1:      Singlet-A      3.1819 eV  389.66 nm  f=3.4915  <S**2>=0.000
     155 ->158         0.22136
     156 ->157         0.65833
 This state for optimization and/or second-order correction.
 Total Energy, E(TD-HF/TD-DFT) =  -1706.87212038
 Copying the excited state density for this state as the 1-particle RhoCI density.

 The electronic state is 1-A.
 Alpha  occ. eigenvalues --  -19.21351 -19.19787 -10.31090 -10.29196 -10.28168
 Alpha  occ. eigenvalues --  -10.27990 -10.27654 -10.27626 -10.27509 -10.27344
 Alpha  occ. eigenvalues --  -10.27218 -10.27170 -10.27110 -10.27106 -10.27082
 Alpha  occ. eigenvalues --  -10.26936 -10.26862 -10.26753 -10.26751 -10.26704
 Alpha  occ. eigenvalues --  -10.26688 -10.26639 -10.26588 -10.26120 -10.25973
 Alpha  occ. eigenvalues --  -10.25931 -10.25902 -10.25829 -10.25790 -10.25751
 Alpha  occ. eigenvalues --  -10.25705 -10.25608 -10.25496 -10.25437 -10.25400
 Alpha  occ. eigenvalues --  -10.25317 -10.24712 -10.24362 -10.24103 -10.23328
 Alpha  occ. eigenvalues --  -10.22850 -10.22663  -1.10415  -1.08340  -0.94348
 Alpha  occ. eigenvalues --   -0.93601  -0.92264  -0.91453  -0.90834  -0.89860
 Alpha  occ. eigenvalues --   -0.87853  -0.87368  -0.86870  -0.85712  -0.84659
 Alpha  occ. eigenvalues --   -0.83268  -0.82516  -0.79671  -0.79485  -0.78810
 Alpha  occ. eigenvalues --   -0.78167  -0.76852  -0.76777  -0.76361  -0.76274
 Alpha  occ. eigenvalues --   -0.75785  -0.75465  -0.74838  -0.73996  -0.70261
 Alpha  occ. eigenvalues --   -0.68854  -0.67393  -0.66070  -0.64796  -0.64520
 Alpha  occ. eigenvalues --   -0.63571  -0.62892  -0.60958  -0.60356  -0.59988
 Alpha  occ. eigenvalues --   -0.58730  -0.58412  -0.57687  -0.56822  -0.56073
 Alpha  occ. eigenvalues --   -0.55857  -0.55231  -0.54722  -0.54007  -0.53758
 Alpha  occ. eigenvalues --   -0.52955  -0.52342  -0.52254  -0.52091  -0.51437
 Alpha  occ. eigenvalues --   -0.51173  -0.50793  -0.50232  -0.49892  -0.49676
 Alpha  occ. eigenvalues --   -0.49510  -0.49119  -0.48681  -0.48435  -0.48141
 Alpha  occ. eigenvalues --   -0.47451  -0.47213  -0.47098  -0.46584  -0.46429
 Alpha  occ. eigenvalues --   -0.46014  -0.45695  -0.45611  -0.45290  -0.45134
 Alpha  occ. eigenvalues --   -0.44820  -0.44668  -0.44518  -0.44006  -0.43983
 Alpha  occ. eigenvalues --   -0.43675  -0.43564  -0.42833  -0.42318  -0.42273
 Alpha  occ. eigenvalues --   -0.42002  -0.41763  -0.41596  -0.41378  -0.40941
 Alpha  occ. eigenvalues --   -0.40744  -0.40557  -0.40006  -0.39865  -0.39637
 Alpha  occ. eigenvalues --   -0.39153  -0.38730  -0.38290  -0.37872  -0.37769
 Alpha  occ. eigenvalues --   -0.37664  -0.37189  -0.36900  -0.36793  -0.36370
 Alpha  occ. eigenvalues --   -0.34708  -0.34533  -0.33760  -0.32750  -0.31752
 Alpha  occ. eigenvalues --   -0.31091  -0.29586  -0.27984  -0.26847  -0.24384
 Alpha  occ. eigenvalues --   -0.22038
 Alpha virt. eigenvalues --   -0.03137  -0.00289   0.03130   0.06105   0.07245
 Alpha virt. eigenvalues --    0.08817   0.10602   0.11557   0.11979   0.12500
 Alpha virt. eigenvalues --    0.12724   0.12970   0.13148   0.13579   0.13688

 Mulliken charges:
               1
     1  O   -0.584351
     2  O   -0.551021
     3  C   -0.040924
     4  C   -0.005469
     5  C   -0.218140
     6  C   -0.196810
     7  C    0.179479
     8  C    0.161465
     9  C    0.080486
    10  C    0.044749
    11  C   -0.177763
    12  C   -0.210113
    13  C    0.029825
    14  C    0.051694
    15  C   -0.304680
    16  C   -0.292536
    17  C   -0.309931
    18  C   -0.287292
    19  C   -0.128953
    20  C   -0.168415
    21  C   -0.344249
    22  C   -0.360654
    23  C   -0.107524
    24  C   -0.090563
    25  C    0.090063
    26  C    0.101397
    27  C   -0.358373
    28  C   -0.347128
    29  C   -0.137266
    30  C   -0.124860
    31  C   -0.021269
    32  C   -0.103436
    33  C   -0.116017
    34  C   -0.109298
    35  C    0.070626
    36  C    0.130174
    37  C   -0.344288
    38  C   -0.369648
    39  C   -0.133484
    40  C   -0.154675
    41  C   -0.096988
    42  C   -0.063673
    43  H    0.092475
    44  H    0.090224
    45  H    0.071194
    46  H    0.110334
    47  H    0.078890
    48  H    0.087587
    49  H    0.133657
    50  H    0.108175
    51  H    0.099170
    52  H    0.113657
    53  H    0.094598
    54  H    0.113220
    55  H    0.098841
    56  H    0.094018
    57  H    0.083680
    58  H    0.115983
    59  H    0.079327
    60  H    0.117213
    61  H    0.111285
    62  H    0.076495
    63  H    0.111786
    64  H    0.073915
    65  H    0.072799
    66  H    0.097927
    67  H    0.120886
    68  H    0.087435
    69  H    0.103730
    70  H    0.100348
    71  H    0.120415
    72  H    0.106252
    73  H    0.298617
    74  H    0.301813
    75  H    0.090172
    76  H    0.097703
    77  H    0.112624
    78  H    0.091663
    79  H    0.124572
    80  H    0.129147
    81  H    0.136139
    82  H    0.090536
    83  H    0.065161
    84  H    0.075591
    85  H    0.059736
    86  H    0.071977
    87  H    0.096421
    88  H    0.081550
    89  H    0.121315
    90  H    0.113726
    91  H    0.127428
    92  H    0.112279
    93  H    0.137704
    94  H    0.106663
    95  H    0.081965
    96  H    0.059446
    97  H    0.094622
    98  H    0.075749
 Sum of Mulliken charges =  -0.00000

 Dipole moment (field-independent basis, Debye):
    X=              0.4854    Y=             -1.4275    Z=              1.8971  Tot=              2.4233
 Quadrupole moment (field-independent basis, Debye-Ang):
   XX=           -282.6546   YY=           -251.4966   ZZ=           -259.7786
   XY=             22.4868   XZ=              4.8987   YZ=              0.1541

 Normal termination of Gaussian 16 at Sun Jul  7 11:22:59 2019.
