 Gaussian 16, Revision A.03,
 Gaussian 16:  ES64L-G16RevA.03 25-Dec-2016

 -------------------------------------
 # td=(NStates=1) CAM-B3LYP/6-31G(d,p)
 -------------------------------------

 --
 TD
 --
 Symbolic Z-matrix:
 Charge =  0 Multiplicity = 1

                         Standard orientation:
 ---------------------------------------------------------------------
 Center     Atomic      Atomic             Coordinates (Angstroms)
 Number     Number       Type             X           Y           Z
 ---------------------------------------------------------------------
      1          8           0       14.621938   -2.446463   -0.307051
      2          8           0      -14.724478    1.891195    0.826642
      3          6           0       11.358182   -1.139062    1.163258
      4          6           0      -12.216927   -1.110717    0.659682
      5          6           0       12.889333   -1.504380    1.161969
      6          6           0      -13.543794   -0.276690    0.653082
      7          6           0       13.281357   -2.035181   -0.251156
      8          6           0      -13.413688    1.204859    0.816237
      9          6           0       10.954947   -0.270664   -0.076343
     10          6           0      -11.226439   -0.314284   -0.249454
     11          6           0       13.038350   -0.971443   -1.293157
     12          6           0      -12.734277    1.765519   -0.404318
     13          6           0       11.676970   -0.254876   -1.131942
     14          6           0      -11.449557    0.973687   -0.647820
     15          6           0       11.181037   -0.340628    2.462041
     16          6           0       10.518116   -2.440183    1.217380
     17          6           0      -11.760295   -1.045691    2.107268
     18          6           0      -12.460884   -2.342212    0.122059
     19          6           0        9.633693    0.373195    0.120226
     20          6           0      -10.011596   -1.132327   -0.519816
     21          6           0       11.337156    0.632833   -2.295776
     22          6           0      -10.545376    1.715934   -1.656045
     23          6           0        9.276020    1.700997   -0.190461
     24          6           0       -8.837747   -0.504904   -0.397110
     25          6           0        7.969390    2.321313   -0.004691
     26          6           0       -7.594881   -1.267248   -0.494275
     27          6           0        8.076142    3.799162    0.258008
     28          6           0       -7.636213   -2.813200   -0.840812
     29          6           0        6.865815    1.558145   -0.087441
     30          6           0       -6.401774   -0.613288   -0.259492
     31          6           0        5.511596    1.900738    0.247900
     32          6           0       -5.103402   -1.081907   -0.476293
     33          6           0        4.415022    1.264789   -0.137557
     34          6           0       -4.065842   -0.314847   -0.198168
     35          6           0        3.030962    1.807676    0.097725
     36          6           0       -2.629462   -0.740634   -0.538327
     37          6           0        2.826878    3.104809    0.710232
     38          6           0       -2.353682   -2.201032   -0.770982
     39          6           0        1.985550    0.813776   -0.018806
     40          6           0       -1.670038    0.196983   -0.130809
     41          6           0        0.593558    1.070438    0.086123
     42          6           0       -0.311649    0.086188   -0.339021
     43          1           0       13.646823   -0.617630    1.214278
     44          1           0       13.189062   -2.209559    1.903512
     45          1           0      -14.028093   -0.654099    1.582006
     46          1           0      -13.981616   -0.655038   -0.248256
     47          1           0       12.585318   -2.820320   -0.511862
     48          1           0      -12.773968    1.426336    1.718136
     49          1           0       13.918439   -0.230790   -0.997998
     50          1           0       13.216386   -1.407744   -2.247029
     51          1           0      -13.562082    1.737935   -1.181935
     52          1           0      -12.338321    2.801494   -0.250286
     53          1           0       11.284357   -1.178675    3.225515
     54          1           0       10.288456    0.295240    2.571308
     55          1           0       12.042144    0.469509    2.510643
     56          1           0       10.745375   -3.212591    0.438792
     57          1           0       10.762001   -3.073801    2.058710
     58          1           0        9.344898   -2.125677    1.258805
     59          1           0      -11.719082   -0.134827    2.618022
     60          1           0      -10.798023   -1.712528    2.047009
     61          1           0      -12.539054   -1.517722    2.720349
     62          1           0      -13.106340   -2.925690    0.744774
     63          1           0      -11.798543   -3.163701    0.111705
     64          1           0      -12.726278   -2.490940   -1.060992
     65          1           0        8.897362   -0.065402    0.827586
     66          1           0       -9.986192   -2.189200   -0.683019
     67          1           0       10.091226    0.670387   -2.472470
     68          1           0       11.780590    1.648817   -2.003079
     69          1           0       11.801815    0.429436   -3.447400
     70          1           0      -11.311327    1.914764   -2.375925
     71          1           0       -9.923872    1.163927   -2.296166
     72          1           0      -10.124489    2.483480   -1.258303
     73          1           0       14.994305   -3.109459    0.146005
     74          1           0      -15.152933    1.766440    1.713930
     75          1           0       10.100757    2.310973   -0.613470
     76          1           0       -8.772171    0.480900   -0.042154
     77          1           0        8.478106    4.287316   -0.652633
     78          1           0        7.140881    4.221959    0.587894
     79          1           0        9.047696    4.102963    1.149834
     80          1           0       -8.394476   -3.193310   -0.210406
     81          1           0       -8.221101   -3.011568   -1.916344
     82          1           0       -6.602440   -3.324969   -0.776770
     83          1           0        6.885287    0.621285   -0.522809
     84          1           0       -6.754500    0.608330   -0.274416
     85          1           0        5.401127    2.847396    0.744648
     86          1           0       -4.954270   -2.126687   -0.956929
     87          1           0        4.313993    0.284031   -0.594022
     88          1           0       -4.176529    0.744224    0.084705
     89          1           0        3.165137    3.084873    1.930700
     90          1           0        1.776254    3.400067    0.856663
     91          1           0        3.406120    3.922537    0.269693
     92          1           0       -2.907145   -2.876689   -0.060800
     93          1           0       -2.750937   -2.359802   -1.723507
     94          1           0       -1.094138   -2.411598   -0.597722
     95          1           0        2.385844   -0.190061   -0.205592
     96          1           0       -2.181940    1.177807    0.154298
     97          1           0        0.087267    1.836621    0.705379
     98          1           0        0.007846   -0.760681   -0.708037
 ---------------------------------------------------------------------

 SCF Done:  E(RCAM-B3LYP) =  -1706.94713566     A.U. after   14 cycles

 Excitation energies and oscillator strengths:

 Excited State   1:      Singlet-A      2.5695 eV  482.53 nm  f=3.4937  <S**2>=0.000
     155 ->158        -0.15906
     156 ->157         0.68445
 This state for optimization and/or second-order correction.
 Total Energy, E(TD-HF/TD-DFT) =  -1706.85270903
 Copying the excited state density for this state as the 1-particle RhoCI density.

 The electronic state is 1-A.
 Alpha  occ. eigenvalues --  -19.21102 -19.19743 -10.30450 -10.29816 -10.27940
 Alpha  occ. eigenvalues --  -10.27769 -10.27762 -10.27697 -10.27691 -10.27572
 Alpha  occ. eigenvalues --  -10.27538 -10.27334 -10.27111 -10.26874 -10.26861
 Alpha  occ. eigenvalues --  -10.26801 -10.26797 -10.26654 -10.26430 -10.26386
 Alpha  occ. eigenvalues --  -10.26374 -10.26285 -10.26223 -10.26191 -10.26163
 Alpha  occ. eigenvalues --  -10.26107 -10.25885 -10.25745 -10.25516 -10.25490
 Alpha  occ. eigenvalues --  -10.25346 -10.25304 -10.25302 -10.25116 -10.25084
 Alpha  occ. eigenvalues --  -10.25075 -10.25054 -10.24969 -10.24967 -10.24597
 Alpha  occ. eigenvalues --  -10.24037 -10.22567  -1.10152  -1.07012  -0.94486
 Alpha  occ. eigenvalues --   -0.93308  -0.91800  -0.91338  -0.90422  -0.89403
 Alpha  occ. eigenvalues --   -0.88054  -0.87396  -0.86386  -0.85414  -0.84618
 Alpha  occ. eigenvalues --   -0.83320  -0.82282  -0.80251  -0.79316  -0.78269
 Alpha  occ. eigenvalues --   -0.77938  -0.76146  -0.76027  -0.75598  -0.75220
 Alpha  occ. eigenvalues --   -0.75125  -0.74669  -0.74225  -0.73400  -0.70301
 Alpha  occ. eigenvalues --   -0.68685  -0.67264  -0.65757  -0.65383  -0.64378
 Alpha  occ. eigenvalues --   -0.63279  -0.62556  -0.61590  -0.60473  -0.59676
 Alpha  occ. eigenvalues --   -0.59317  -0.59122  -0.58510  -0.57464  -0.56008
 Alpha  occ. eigenvalues --   -0.55568  -0.55448  -0.54942  -0.54258  -0.53776
 Alpha  occ. eigenvalues --   -0.53041  -0.52532  -0.52343  -0.51842  -0.51396
 Alpha  occ. eigenvalues --   -0.50897  -0.50460  -0.50118  -0.49878  -0.49643
 Alpha  occ. eigenvalues --   -0.49065  -0.48563  -0.48121  -0.47867  -0.47385
 Alpha  occ. eigenvalues --   -0.47020  -0.46728  -0.46608  -0.46188  -0.46088
 Alpha  occ. eigenvalues --   -0.45735  -0.45376  -0.44871  -0.44780  -0.44480
 Alpha  occ. eigenvalues --   -0.44031  -0.43889  -0.43692  -0.43387  -0.42901
 Alpha  occ. eigenvalues --   -0.42832  -0.42784  -0.42458  -0.42312  -0.42196
 Alpha  occ. eigenvalues --   -0.41648  -0.41271  -0.41113  -0.40703  -0.40322
 Alpha  occ. eigenvalues --   -0.40245  -0.40021  -0.39509  -0.39483  -0.39028
 Alpha  occ. eigenvalues --   -0.38621  -0.38576  -0.38440  -0.37850  -0.37809
 Alpha  occ. eigenvalues --   -0.37702  -0.37016  -0.36084  -0.35909  -0.35705
 Alpha  occ. eigenvalues --   -0.34837  -0.33495  -0.33085  -0.32337  -0.31884
 Alpha  occ. eigenvalues --   -0.31305  -0.29739  -0.28510  -0.25919  -0.23798
 Alpha  occ. eigenvalues --   -0.20278
 Alpha virt. eigenvalues --   -0.04617  -0.00257   0.02143   0.06043   0.07959
 Alpha virt. eigenvalues --    0.09208   0.10010   0.11018   0.11647   0.12188
 Alpha virt. eigenvalues --    0.12482   0.12728   0.12916   0.13060   0.13373

 Mulliken charges:
               1
     1  O   -0.566674
     2  O   -0.573356
     3  C   -0.024322
     4  C    0.004733
     5  C   -0.182865
     6  C   -0.166784
     7  C    0.174549
     8  C    0.151414
     9  C    0.106003
    10  C    0.062108
    11  C   -0.201844
    12  C   -0.197656
    13  C    0.048362
    14  C   -0.025362
    15  C   -0.285305
    16  C   -0.300862
    17  C   -0.294945
    18  C   -0.327500
    19  C   -0.135561
    20  C   -0.128503
    21  C   -0.355664
    22  C   -0.349381
    23  C   -0.112370
    24  C   -0.068559
    25  C    0.092949
    26  C    0.100096
    27  C   -0.345108
    28  C   -0.366063
    29  C   -0.108237
    30  C   -0.141246
    31  C   -0.096703
    32  C   -0.091995
    33  C   -0.097722
    34  C   -0.091473
    35  C    0.114598
    36  C    0.064103
    37  C   -0.372800
    38  C   -0.354771
    39  C   -0.143487
    40  C   -0.116180
    41  C   -0.095595
    42  C   -0.047882
    43  H    0.086405
    44  H    0.084219
    45  H    0.065549
    46  H    0.102284
    47  H    0.072900
    48  H    0.079236
    49  H    0.099990
    50  H    0.115535
    51  H    0.125546
    52  H    0.101345
    53  H    0.090866
    54  H    0.105987
    55  H    0.088665
    56  H    0.103510
    57  H    0.101095
    58  H    0.090697
    59  H    0.116045
    60  H    0.092630
    61  H    0.092663
    62  H    0.099013
    63  H    0.105916
    64  H    0.096364
    65  H    0.094168
    66  H    0.085015
    67  H    0.102896
    68  H    0.117820
    69  H    0.077055
    70  H    0.115029
    71  H    0.118617
    72  H    0.120750
    73  H    0.292180
    74  H    0.302662
    75  H    0.083219
    76  H    0.093390
    77  H    0.133222
    78  H    0.116625
    79  H    0.066884
    80  H    0.130151
    81  H    0.095401
    82  H    0.107989
    83  H    0.083290
    84  H    0.060303
    85  H    0.074814
    86  H    0.086883
    87  H    0.081414
    88  H    0.088160
    89  H    0.091409
    90  H    0.116882
    91  H    0.120886
    92  H    0.128162
    93  H    0.135365
    94  H    0.084770
    95  H    0.089446
    96  H    0.074610
    97  H    0.095786
    98  H    0.066145
 Sum of Mulliken charges =  -0.00000

 Dipole moment (field-independent basis, Debye):
    X=             -0.4377    Y=             -1.9519    Z=              1.7910  Tot=              2.6850
 Quadrupole moment (field-independent basis, Debye-Ang):
   XX=           -273.9274   YY=           -241.9573   ZZ=           -260.9349
   XY=              7.4668   XZ=             -6.4797   YZ=              2.9866

 Normal termination of Gaussian 16 at Sun Jun 30 03:07:21 2019.
