 Gaussian 16, Revision A.03,
 Gaussian 16:  ES64L-G16RevA.03 25-Dec-2016

 -------------------------------------
 # td=(NStates=1) CAM-B3LYP/6-31G(d,p)
 -------------------------------------

 --
 TD
 --
 Symbolic Z-matrix:
 Charge =  0 Multiplicity = 1

                         Standard orientation:
 ---------------------------------------------------------------------
 Center     Atomic      Atomic             Coordinates (Angstroms)
 Number     Number       Type             X           Y           Z
 ---------------------------------------------------------------------
      1          8           0       14.518425   -2.478775   -0.435184
      2          8           0      -14.761547    1.925538    0.908743
      3          6           0       11.373600   -1.193856    1.317877
      4          6           0      -12.257099   -0.989370    1.023924
      5          6           0       12.869001   -1.567160    1.209316
      6          6           0      -13.689202   -0.261477    1.065107
      7          6           0       13.175793   -2.141173   -0.193630
      8          6           0      -13.471532    1.322519    0.936407
      9          6           0       10.936763   -0.314017    0.101110
     10          6           0      -11.269507   -0.389292   -0.082089
     11          6           0       12.902100   -0.925013   -1.163337
     12          6           0      -12.747443    1.544988   -0.402108
     13          6           0       11.568956   -0.208028   -1.091739
     14          6           0      -11.542305    0.760143   -0.741700
     15          6           0       11.276971   -0.393296    2.591094
     16          6           0       10.493730   -2.478496    1.349282
     17          6           0      -11.533643   -0.935208    2.335706
     18          6           0      -12.583227   -2.398351    0.656802
     19          6           0        9.608708    0.365122    0.336098
     20          6           0      -10.037138   -1.073531   -0.361632
     21          6           0       11.139635    0.343180   -2.340250
     22          6           0      -10.807084    1.428279   -1.905178
     23          6           0        9.401147    1.709916    0.026051
     24          6           0       -8.846746   -0.570405   -0.331790
     25          6           0        8.099149    2.307382    0.112995
     26          6           0       -7.612429   -1.311711   -0.666941
     27          6           0        8.267374    3.878100    0.406987
     28          6           0       -7.686303   -2.706604   -1.229859
     29          6           0        6.970391    1.623899   -0.007237
     30          6           0       -6.454093   -0.598016   -0.570142
     31          6           0        5.614577    2.188025    0.169695
     32          6           0       -5.061452   -0.976887   -0.666038
     33          6           0        4.550591    1.390202   -0.114519
     34          6           0       -4.003875   -0.197838   -0.394831
     35          6           0        3.168848    1.775019   -0.000649
     36          6           0       -2.608132   -0.676330   -0.596832
     37          6           0        2.808076    3.202070    0.443987
     38          6           0       -2.349117   -2.194480   -1.052461
     39          6           0        2.167646    0.883262   -0.220703
     40          6           0       -1.644270    0.256944   -0.446420
     41          6           0        0.696418    1.064503   -0.129285
     42          6           0       -0.201174    0.014391   -0.540326
     43          1           0       13.420814   -0.778392    1.305837
     44          1           0       12.814308   -2.385445    2.093873
     45          1           0      -14.313985   -0.463897    1.905028
     46          1           0      -14.335619   -0.542513    0.040101
     47          1           0       12.434903   -2.991977   -0.583482
     48          1           0      -12.926054    1.558415    1.847000
     49          1           0       13.661968   -0.255002   -0.983606
     50          1           0       13.227253   -1.383008   -2.203497
     51          1           0      -13.443334    1.505911   -1.203649
     52          1           0      -12.498858    2.645195   -0.477124
     53          1           0       11.796347   -1.172583    3.455943
     54          1           0       10.210913   -0.224705    2.712232
     55          1           0       11.957318    0.469116    2.745500
     56          1           0       10.224928   -2.839857    0.390276
     57          1           0       10.759515   -3.168073    2.154152
     58          1           0        9.387927   -2.043751    1.431210
     59          1           0      -11.523119    0.194009    2.782007
     60          1           0      -10.509369   -1.415450    2.310113
     61          1           0      -12.261243   -1.477280    2.971399
     62          1           0      -13.371976   -2.816498    1.297565
     63          1           0      -11.674196   -3.096920    0.798361
     64          1           0      -12.876751   -2.479214   -0.489718
     65          1           0        8.853827   -0.202850    0.690258
     66          1           0      -10.382983   -2.125363   -0.853550
     67          1           0       10.075655    0.671213   -2.445397
     68          1           0       11.650429    1.244957   -2.545768
     69          1           0       11.272979   -0.257332   -3.369411
     70          1           0      -11.387409    1.518867   -2.818820
     71          1           0       -9.792129    0.653610   -2.247323
     72          1           0      -10.384952    2.479394   -1.535999
     73          1           0       14.799080   -2.958178    0.713402
     74          1           0      -15.053159    1.661564    1.931084
     75          1           0       10.236899    2.139929   -0.445154
     76          1           0       -8.890997    0.427949   -0.146653
     77          1           0        8.560240    4.440336   -0.368877
     78          1           0        7.374481    4.456686    0.349016
     79          1           0        8.904939    4.028975    1.220483
     80          1           0       -8.134122   -3.461836   -0.449661
     81          1           0       -8.231909   -2.767122   -2.108621
     82          1           0       -6.538530   -2.861933   -1.812522
     83          1           0        6.968669    0.672916   -0.195478
     84          1           0       -6.775005    0.494337   -0.252418
     85          1           0        5.533598    3.320225    0.374247
     86          1           0       -4.990871   -2.154988   -0.830071
     87          1           0        4.838169    0.553955   -0.760416
     88          1           0       -4.116863    0.736856   -0.196568
     89          1           0        3.095779    3.454532    1.645133
     90          1           0        1.926224    3.683405    0.117631
     91          1           0        3.538047    3.959877   -0.098192
     92          1           0       -2.816432   -2.973249   -0.394709
     93          1           0       -2.396013   -2.451662   -1.975346
     94          1           0       -1.216746   -2.319641   -0.993042
     95          1           0        2.457855   -0.206650   -0.450702
     96          1           0       -1.992296    1.269165   -0.441052
     97          1           0        0.379727    2.004116    0.448811
     98          1           0        0.314880   -0.888677   -0.838759
 ---------------------------------------------------------------------

 SCF Done:  E(RCAM-B3LYP) =  -1706.86115554     A.U. after   14 cycles

 Excitation energies and oscillator strengths:

 Excited State   1:      Singlet-A      2.8704 eV  431.94 nm  f=3.5000  <S**2>=0.000
     155 ->158         0.18034
     156 ->157         0.67718
 This state for optimization and/or second-order correction.
 Total Energy, E(TD-HF/TD-DFT) =  -1706.75566942
 Copying the excited state density for this state as the 1-particle RhoCI density.

 The electronic state is 1-A.
 Alpha  occ. eigenvalues --  -19.23427 -19.22483 -10.30890 -10.30629 -10.28043
 Alpha  occ. eigenvalues --  -10.27947 -10.27912 -10.27746 -10.27709 -10.27691
 Alpha  occ. eigenvalues --  -10.27517 -10.27510 -10.27417 -10.27411 -10.27114
 Alpha  occ. eigenvalues --  -10.27070 -10.26721 -10.26715 -10.26698 -10.26595
 Alpha  occ. eigenvalues --  -10.26482 -10.26255 -10.26228 -10.26170 -10.26169
 Alpha  occ. eigenvalues --  -10.26136 -10.25944 -10.25901 -10.25845 -10.25720
 Alpha  occ. eigenvalues --  -10.25598 -10.25561 -10.25517 -10.25468 -10.25443
 Alpha  occ. eigenvalues --  -10.25314 -10.25288 -10.24774 -10.24740 -10.24569
 Alpha  occ. eigenvalues --  -10.24485 -10.24138  -1.08054  -1.06882  -0.93539
 Alpha  occ. eigenvalues --   -0.93340  -0.91396  -0.91164  -0.90097  -0.89507
 Alpha  occ. eigenvalues --   -0.87721  -0.87334  -0.86332  -0.85042  -0.83815
 Alpha  occ. eigenvalues --   -0.82542  -0.81066  -0.79964  -0.79308  -0.78131
 Alpha  occ. eigenvalues --   -0.77275  -0.76802  -0.76254  -0.75686  -0.75531
 Alpha  occ. eigenvalues --   -0.75397  -0.74459  -0.74145  -0.73727  -0.70055
 Alpha  occ. eigenvalues --   -0.68552  -0.66822  -0.65244  -0.64278  -0.63448
 Alpha  occ. eigenvalues --   -0.63266  -0.62136  -0.61550  -0.61313  -0.61075
 Alpha  occ. eigenvalues --   -0.59347  -0.58505  -0.58186  -0.57330  -0.55877
 Alpha  occ. eigenvalues --   -0.55350  -0.55025  -0.54116  -0.53679  -0.53384
 Alpha  occ. eigenvalues --   -0.52744  -0.52330  -0.51996  -0.51581  -0.51243
 Alpha  occ. eigenvalues --   -0.50501  -0.50049  -0.49580  -0.49235  -0.49050
 Alpha  occ. eigenvalues --   -0.48844  -0.48569  -0.48399  -0.48322  -0.47849
 Alpha  occ. eigenvalues --   -0.47481  -0.47453  -0.46659  -0.46537  -0.46489
 Alpha  occ. eigenvalues --   -0.46318  -0.45573  -0.45337  -0.45098  -0.45001
 Alpha  occ. eigenvalues --   -0.44907  -0.44449  -0.43823  -0.43514  -0.43338
 Alpha  occ. eigenvalues --   -0.42966  -0.42455  -0.42319  -0.41997  -0.41655
 Alpha  occ. eigenvalues --   -0.41485  -0.41273  -0.40716  -0.40502  -0.40406
 Alpha  occ. eigenvalues --   -0.40237  -0.39685  -0.39602  -0.39275  -0.39165
 Alpha  occ. eigenvalues --   -0.39034  -0.38951  -0.38109  -0.37889  -0.37706
 Alpha  occ. eigenvalues --   -0.37360  -0.37286  -0.36877  -0.35750  -0.35618
 Alpha  occ. eigenvalues --   -0.34965  -0.34548  -0.33586  -0.31922  -0.31531
 Alpha  occ. eigenvalues --   -0.30568  -0.29572  -0.28210  -0.26611  -0.24265
 Alpha  occ. eigenvalues --   -0.21147
 Alpha virt. eigenvalues --   -0.03839  -0.00100   0.02828   0.04840   0.06182
 Alpha virt. eigenvalues --    0.07695   0.09067   0.09205   0.10411   0.11147
 Alpha virt. eigenvalues --    0.11367   0.11967   0.12523   0.12627   0.13061

 Mulliken charges:
               1
     1  O   -0.539476
     2  O   -0.547911
     3  C   -0.027529
     4  C    0.004925
     5  C   -0.170556
     6  C   -0.192346
     7  C    0.188487
     8  C    0.156906
     9  C    0.007962
    10  C    0.012244
    11  C   -0.256793
    12  C   -0.227624
    13  C    0.114668
    14  C    0.077253
    15  C   -0.263981
    16  C   -0.297974
    17  C   -0.283340
    18  C   -0.296642
    19  C   -0.111186
    20  C   -0.131539
    21  C   -0.388718
    22  C   -0.346438
    23  C   -0.109166
    24  C   -0.080820
    25  C    0.062059
    26  C    0.110558
    27  C   -0.366962
    28  C   -0.358596
    29  C   -0.088459
    30  C   -0.123415
    31  C   -0.077216
    32  C   -0.096222
    33  C   -0.134362
    34  C   -0.075334
    35  C    0.121232
    36  C    0.098231
    37  C   -0.365725
    38  C   -0.366370
    39  C   -0.136535
    40  C   -0.131533
    41  C   -0.094476
    42  C   -0.101012
    43  H    0.106020
    44  H    0.061134
    45  H    0.078357
    46  H    0.082013
    47  H    0.063636
    48  H    0.082587
    49  H    0.123562
    50  H    0.092273
    51  H    0.124651
    52  H    0.094137
    53  H    0.046901
    54  H    0.110249
    55  H    0.114536
    56  H    0.128218
    57  H    0.114130
    58  H    0.074654
    59  H    0.080289
    60  H    0.117889
    61  H    0.093296
    62  H    0.103442
    63  H    0.086263
    64  H    0.095378
    65  H    0.085113
    66  H    0.077919
    67  H    0.117378
    68  H    0.127088
    69  H    0.102631
    70  H    0.125324
    71  H    0.074601
    72  H    0.104590
    73  H    0.279440
    74  H    0.303922
    75  H    0.090503
    76  H    0.091389
    77  H    0.125709
    78  H    0.095766
    79  H    0.130590
    80  H    0.115338
    81  H    0.140279
    82  H    0.075561
    83  H    0.065574
    84  H    0.067511
    85  H    0.087031
    86  H    0.084286
    87  H    0.096370
    88  H    0.069252
    89  H    0.098358
    90  H    0.125671
    91  H    0.090775
    92  H    0.117706
    93  H    0.141234
    94  H    0.090369
    95  H    0.071931
    96  H    0.096974
    97  H    0.094433
    98  H    0.099499
 Sum of Mulliken charges =  -0.00000

 Dipole moment (field-independent basis, Debye):
    X=             -0.1766    Y=             -0.3127    Z=              1.3693  Tot=              1.4157
 Quadrupole moment (field-independent basis, Debye-Ang):
   XX=           -281.9094   YY=           -247.9981   ZZ=           -257.9696
   XY=             21.7581   XZ=              0.2663   YZ=             -1.2018

 Normal termination of Gaussian 16 at Thu Jul  4 10:59:58 2019.
