 Gaussian 16, Revision A.03,
 Gaussian 16:  ES64L-G16RevA.03 25-Dec-2016

 -------------------------------------
 # td=(NStates=1) CAM-B3LYP/6-31G(d,p)
 -------------------------------------

 --
 TD
 --
 Symbolic Z-matrix:
 Charge =  0 Multiplicity = 1

                         Standard orientation:
 ---------------------------------------------------------------------
 Center     Atomic      Atomic             Coordinates (Angstroms)
 Number     Number       Type             X           Y           Z
 ---------------------------------------------------------------------
      1          8           0       14.678850   -2.188434   -0.333192
      2          8           0      -14.775353    2.004468    0.777618
      3          6           0       11.463376   -1.220423    1.102435
      4          6           0      -12.340644   -0.968053    0.696177
      5          6           0       12.958947   -1.560817    1.037193
      6          6           0      -13.709881   -0.205460    0.737273
      7          6           0       13.352185   -1.969723   -0.343678
      8          6           0      -13.609281    1.285310    0.757030
      9          6           0       11.013534   -0.354400   -0.023287
     10          6           0      -11.178258   -0.206235   -0.224444
     11          6           0       13.008550   -0.869194   -1.268066
     12          6           0      -12.752520    1.744965   -0.416294
     13          6           0       11.696147   -0.119751   -1.136278
     14          6           0      -11.523282    0.958587   -0.710613
     15          6           0       11.161852   -0.524541    2.439010
     16          6           0       10.601074   -2.575542    1.160084
     17          6           0      -11.904884   -1.224937    2.203691
     18          6           0      -12.522383   -2.402446    0.059748
     19          6           0        9.657795    0.428601    0.088237
     20          6           0       -9.994301   -0.944964   -0.356176
     21          6           0       11.235984    0.773133   -2.242470
     22          6           0      -10.672854    1.677526   -1.618977
     23          6           0        9.413654    1.736136   -0.073885
     24          6           0       -8.749571   -0.507103   -0.057526
     25          6           0        8.043270    2.359062    0.200412
     26          6           0       -7.588377   -1.301053   -0.486729
     27          6           0        8.102898    3.799855    0.758148
     28          6           0       -7.697600   -2.686934   -1.030371
     29          6           0        6.949175    1.566456   -0.027882
     30          6           0       -6.379582   -0.694567   -0.310139
     31          6           0        5.599076    2.090679    0.102169
     32          6           0       -5.073305   -1.184919   -0.528563
     33          6           0        4.522318    1.354489   -0.082409
     34          6           0       -3.922959   -0.457491   -0.283880
     35          6           0        3.042078    1.694338    0.099184
     36          6           0       -2.540998   -0.800286   -0.357210
     37          6           0        2.670214    3.001600    0.396497
     38          6           0       -2.351293   -2.217904   -0.860727
     39          6           0        2.074219    0.720006   -0.229976
     40          6           0       -1.613585    0.135388   -0.197735
     41          6           0        0.617177    0.944768   -0.023772
     42          6           0       -0.272927   -0.090409   -0.289642
     43          1           0       13.466285   -0.624749    1.181701
     44          1           0       13.251746   -2.227838    1.889529
     45          1           0      -14.285041   -0.522302    1.435604
     46          1           0      -14.378884   -0.376510   -0.219382
     47          1           0       12.818753   -2.820707   -0.606588
     48          1           0      -13.217438    1.694431    1.601858
     49          1           0       13.785900   -0.080128   -1.242893
     50          1           0       13.144679   -1.162128   -2.276810
     51          1           0      -13.596168    1.275042   -1.255775
     52          1           0      -12.656909    2.927115   -0.404942
     53          1           0       11.464389   -1.042194    3.483565
     54          1           0       10.094227   -0.194253    2.814070
     55          1           0       11.626341    0.490199    2.523722
     56          1           0       10.986319   -3.241506    0.331990
     57          1           0       10.917424   -3.146498    2.130780
     58          1           0        9.468696   -2.231018    1.280869
     59          1           0      -11.723875   -0.202659    2.928965
     60          1           0      -10.844057   -1.640110    2.206830
     61          1           0      -12.595575   -1.886032    2.768201
     62          1           0      -13.254261   -2.747160    0.748362
     63          1           0      -11.697604   -3.183909    0.185636
     64          1           0      -12.799546   -2.253414   -0.951691
     65          1           0        8.945124   -0.200722    0.688838
     66          1           0      -10.083620   -1.889437   -0.743656
     67          1           0       10.191317    0.892077   -2.209034
     68          1           0       11.673338    1.798466   -2.235606
     69          1           0       11.668519    0.500579   -3.428080
     70          1           0      -11.233349    2.228618   -2.553230
     71          1           0       -9.995748    0.923036   -1.999137
     72          1           0      -10.089899    2.555005   -1.284176
     73          1           0       14.862403   -3.084305    0.159597
     74          1           0      -15.149836    1.605854    1.587894
     75          1           0       10.178079    2.361093   -0.246162
     76          1           0       -8.858617    0.560751    0.265786
     77          1           0        8.393821    4.345952   -0.068873
     78          1           0        7.123449    4.275829    1.209883
     79          1           0        8.952484    3.716594    1.533003
     80          1           0       -8.697112   -3.094029   -0.419728
     81          1           0       -7.891559   -2.666027   -2.166774
     82          1           0       -6.858497   -3.486569   -0.824181
     83          1           0        7.002158    0.563580   -0.309122
     84          1           0       -6.376521    0.242790    0.395820
     85          1           0        5.363427    2.966701    0.437338
     86          1           0       -4.933391   -2.181047   -0.984207
     87          1           0        4.617450    0.325659   -0.524591
     88          1           0       -4.001717    0.605313    0.135753
     89          1           0        3.013874    3.255988    1.366268
     90          1           0        1.513786    3.180227    0.029899
     91          1           0        3.266806    3.716062   -0.224999
     92          1           0       -2.740047   -3.034540   -0.064751
     93          1           0       -2.932616   -2.408660   -1.906259
     94          1           0       -1.328203   -2.280550   -1.170715
     95          1           0        2.239506   -0.320773   -0.496809
     96          1           0       -2.070578    1.120047   -0.028699
     97          1           0        0.305828    1.721046    0.456836
     98          1           0        0.016334   -1.249040   -0.426515
 ---------------------------------------------------------------------

 SCF Done:  E(RCAM-B3LYP) =  -1706.93723762     A.U. after   14 cycles

 Excitation energies and oscillator strengths:

 Excited State   1:      Singlet-A      2.6689 eV  464.56 nm  f=3.5773  <S**2>=0.000
     155 ->158        -0.15476
     156 ->157         0.68640
 This state for optimization and/or second-order correction.
 Total Energy, E(TD-HF/TD-DFT) =  -1706.83915885
 Copying the excited state density for this state as the 1-particle RhoCI density.

 The electronic state is 1-A.
 Alpha  occ. eigenvalues --  -19.21851 -19.21092 -10.29158 -10.28823 -10.28402
 Alpha  occ. eigenvalues --  -10.28329 -10.27964 -10.27923 -10.27560 -10.27453
 Alpha  occ. eigenvalues --  -10.27258 -10.27135 -10.27088 -10.26972 -10.26771
 Alpha  occ. eigenvalues --  -10.26732 -10.26585 -10.26441 -10.26391 -10.26361
 Alpha  occ. eigenvalues --  -10.26354 -10.26232 -10.26181 -10.26164 -10.26041
 Alpha  occ. eigenvalues --  -10.25977 -10.25962 -10.25865 -10.25804 -10.25790
 Alpha  occ. eigenvalues --  -10.25720 -10.25488 -10.25414 -10.25386 -10.25160
 Alpha  occ. eigenvalues --  -10.24669 -10.24663 -10.24510 -10.24309 -10.24299
 Alpha  occ. eigenvalues --  -10.24294 -10.24278  -1.11851  -1.11555  -0.93817
 Alpha  occ. eigenvalues --   -0.93345  -0.92682  -0.91512  -0.90506  -0.89759
 Alpha  occ. eigenvalues --   -0.87416  -0.86951  -0.86609  -0.85718  -0.84884
 Alpha  occ. eigenvalues --   -0.83535  -0.82325  -0.80206  -0.79968  -0.78009
 Alpha  occ. eigenvalues --   -0.76232  -0.76053  -0.75727  -0.75380  -0.75166
 Alpha  occ. eigenvalues --   -0.75068  -0.74370  -0.74306  -0.73624  -0.70547
 Alpha  occ. eigenvalues --   -0.68644  -0.67605  -0.65717  -0.64960  -0.64204
 Alpha  occ. eigenvalues --   -0.63821  -0.62973  -0.62041  -0.61146  -0.60611
 Alpha  occ. eigenvalues --   -0.60037  -0.59188  -0.58725  -0.57751  -0.56670
 Alpha  occ. eigenvalues --   -0.55860  -0.55525  -0.55056  -0.54657  -0.53709
 Alpha  occ. eigenvalues --   -0.52998  -0.52415  -0.52227  -0.51635  -0.50945
 Alpha  occ. eigenvalues --   -0.50365  -0.50068  -0.49964  -0.49864  -0.49381
 Alpha  occ. eigenvalues --   -0.48862  -0.48734  -0.48612  -0.48055  -0.47925
 Alpha  occ. eigenvalues --   -0.47722  -0.47500  -0.47422  -0.47163  -0.46344
 Alpha  occ. eigenvalues --   -0.46133  -0.45888  -0.44833  -0.44547  -0.44489
 Alpha  occ. eigenvalues --   -0.44285  -0.44065  -0.43825  -0.43377  -0.42867
 Alpha  occ. eigenvalues --   -0.42703  -0.42656  -0.42588  -0.42320  -0.42051
 Alpha  occ. eigenvalues --   -0.41618  -0.41408  -0.41129  -0.40802  -0.40685
 Alpha  occ. eigenvalues --   -0.40674  -0.39990  -0.39711  -0.39270  -0.39180
 Alpha  occ. eigenvalues --   -0.38887  -0.38302  -0.38154  -0.38031  -0.37900
 Alpha  occ. eigenvalues --   -0.37753  -0.37462  -0.36765  -0.36331  -0.35929
 Alpha  occ. eigenvalues --   -0.35778  -0.34159  -0.33276  -0.31812  -0.31681
 Alpha  occ. eigenvalues --   -0.31587  -0.29128  -0.28207  -0.26383  -0.24079
 Alpha  occ. eigenvalues --   -0.20428
 Alpha virt. eigenvalues --   -0.04399   0.00347   0.02950   0.06137   0.07930
 Alpha virt. eigenvalues --    0.09457   0.10492   0.10772   0.11662   0.11778
 Alpha virt. eigenvalues --    0.12236   0.12410   0.12791   0.13209   0.13575

 Mulliken charges:
               1
     1  O   -0.552075
     2  O   -0.542472
     3  C   -0.022767
     4  C   -0.012288
     5  C   -0.186389
     6  C   -0.182100
     7  C    0.195035
     8  C    0.172264
     9  C    0.057751
    10  C    0.032587
    11  C   -0.249923
    12  C   -0.228208
    13  C    0.096548
    14  C    0.119091
    15  C   -0.310446
    16  C   -0.287244
    17  C   -0.304520
    18  C   -0.301449
    19  C   -0.126452
    20  C   -0.139708
    21  C   -0.370945
    22  C   -0.380380
    23  C   -0.096416
    24  C   -0.079602
    25  C    0.049622
    26  C    0.104303
    27  C   -0.355646
    28  C   -0.361951
    29  C   -0.105259
    30  C   -0.122181
    31  C   -0.038438
    32  C   -0.092778
    33  C   -0.119455
    34  C   -0.121058
    35  C    0.118056
    36  C    0.126446
    37  C   -0.394622
    38  C   -0.363048
    39  C   -0.131126
    40  C   -0.092330
    41  C   -0.087656
    42  C   -0.109743
    43  H    0.107655
    44  H    0.077296
    45  H    0.082246
    46  H    0.079188
    47  H    0.073878
    48  H    0.075978
    49  H    0.114435
    50  H    0.106635
    51  H    0.078517
    52  H    0.104809
    53  H    0.078174
    54  H    0.092563
    55  H    0.099093
    56  H    0.098775
    57  H    0.088920
    58  H    0.099954
    59  H    0.066878
    60  H    0.107249
    61  H    0.102520
    62  H    0.101051
    63  H    0.097084
    64  H    0.116072
    65  H    0.082415
    66  H    0.085618
    67  H    0.141371
    68  H    0.116878
    69  H    0.065958
    70  H    0.082132
    71  H    0.115636
    72  H    0.114991
    73  H    0.311719
    74  H    0.302627
    75  H    0.086381
    76  H    0.099063
    77  H    0.140724
    78  H    0.110477
    79  H    0.119227
    80  H    0.094315
    81  H    0.124591
    82  H    0.115144
    83  H    0.088874
    84  H    0.076661
    85  H    0.045333
    86  H    0.078051
    87  H    0.066646
    88  H    0.059891
    89  H    0.131502
    90  H    0.104855
    91  H    0.118513
    92  H    0.110922
    93  H    0.104839
    94  H    0.103455
    95  H    0.084278
    96  H    0.085120
    97  H    0.088033
    98  H    0.091758
 Sum of Mulliken charges =  -0.00000

 Dipole moment (field-independent basis, Debye):
    X=              1.9782    Y=             -1.5245    Z=              2.0152  Tot=              3.2091
 Quadrupole moment (field-independent basis, Debye-Ang):
   XX=           -271.3299   YY=           -241.9901   ZZ=           -261.0050
   XY=             12.7160   XZ=             -7.2364   YZ=              2.8748

 Normal termination of Gaussian 16 at Fri Jul  5 12:51:04 2019.
