 Gaussian 16, Revision A.03,
 Gaussian 16:  ES64L-G16RevA.03 25-Dec-2016

 -------------------------------------
 # td=(NStates=1) CAM-B3LYP/6-31G(d,p)
 -------------------------------------

 --
 TD
 --
 Symbolic Z-matrix:
 Charge =  0 Multiplicity = 1

                         Standard orientation:
 ---------------------------------------------------------------------
 Center     Atomic      Atomic             Coordinates (Angstroms)
 Number     Number       Type             X           Y           Z
 ---------------------------------------------------------------------
      1          8           0       14.645484   -2.336724   -0.513863
      2          8           0      -14.880506    1.868278    0.554393
      3          6           0       11.475615   -1.127979    1.099080
      4          6           0      -12.359891   -0.967587    0.738561
      5          6           0       12.940910   -1.428225    1.052309
      6          6           0      -13.697927   -0.248561    0.690931
      7          6           0       13.287478   -1.960685   -0.407866
      8          6           0      -13.609355    1.335490    0.608968
      9          6           0       10.912298   -0.367780   -0.096206
     10          6           0      -11.330731   -0.341552   -0.308326
     11          6           0       12.951714   -0.930776   -1.451052
     12          6           0      -12.864726    1.651169   -0.636384
     13          6           0       11.557318   -0.266675   -1.301460
     14          6           0      -11.577501    0.901359   -0.832477
     15          6           0       11.396756   -0.303832    2.403814
     16          6           0       10.656293   -2.406399    1.322984
     17          6           0      -11.804349   -0.858551    2.187739
     18          6           0      -12.618784   -2.449691    0.418130
     19          6           0        9.663666    0.313955    0.093357
     20          6           0      -10.016494   -1.084994   -0.412227
     21          6           0       11.084928    0.606367   -2.451758
     22          6           0      -10.610582    1.473245   -1.891158
     23          6           0        9.467566    1.727747    0.043628
     24          6           0       -8.835215   -0.479607   -0.337551
     25          6           0        8.115165    2.309261    0.172706
     26          6           0       -7.555745   -1.216058   -0.468305
     27          6           0        8.092690    3.795086    0.563584
     28          6           0       -7.602585   -2.665319   -0.806863
     29          6           0        7.003408    1.629132    0.073898
     30          6           0       -6.383545   -0.619617   -0.160201
     31          6           0        5.546276    2.037308    0.224152
     32          6           0       -5.010974   -1.104525   -0.439982
     33          6           0        4.480190    1.234819   -0.030191
     34          6           0       -3.995558   -0.312858   -0.145785
     35          6           0        3.046306    1.651303    0.216964
     36          6           0       -2.627487   -0.784882   -0.257086
     37          6           0        2.859383    3.146022    0.501956
     38          6           0       -2.243147   -2.123650   -0.650219
     39          6           0        2.061296    0.733536   -0.010942
     40          6           0       -1.649310    0.097793    0.015376
     41          6           0        0.724822    0.926242    0.159255
     42          6           0       -0.280331   -0.057999   -0.034351
     43          1           0       13.717757   -0.446870    1.175737
     44          1           0       13.480073   -2.047631    1.619449
     45          1           0      -14.304453   -0.502627    1.407928
     46          1           0      -14.287799   -0.364087   -0.305688
     47          1           0       12.750003   -2.949170   -0.739377
     48          1           0      -12.928959    1.603976    1.464462
     49          1           0       13.840668   -0.147106   -1.482073
     50          1           0       12.934020   -1.539314   -2.321493
     51          1           0      -13.508329    1.611165   -1.654200
     52          1           0      -12.527245    2.814097   -0.793161
     53          1           0       11.721872   -0.784918    3.177942
     54          1           0       10.211750   -0.028454    2.753428
     55          1           0       11.954036    0.669224    2.258363
     56          1           0       10.528140   -2.863997    0.164279
     57          1           0       11.307657   -3.166404    1.974320
     58          1           0        9.487408   -2.495091    1.695018
     59          1           0      -11.657784    0.088245    2.579745
     60          1           0      -10.906355   -1.273337    2.230209
     61          1           0      -12.455886   -1.580018    2.789959
     62          1           0      -13.224528   -2.720796    1.281816
     63          1           0      -11.877313   -3.124154    0.515066
     64          1           0      -12.997859   -2.678771   -0.696682
     65          1           0        8.859159   -0.336814    0.745037
     66          1           0      -10.190516   -2.048108   -0.426717
     67          1           0       10.074519    0.885983   -2.454154
     68          1           0       11.591321    1.508283   -2.647369
     69          1           0       11.173551    0.034963   -3.513366
     70          1           0      -11.237506    1.956519   -2.806305
     71          1           0       -9.925121    0.936806   -2.508080
     72          1           0      -10.014056    2.255614   -1.308360
     73          1           0       14.632715   -3.189755   -0.030723
     74          1           0      -15.299297    1.559094    1.296725
     75          1           0       10.429794    2.151883   -0.367913
     76          1           0       -8.958348    0.594970   -0.009433
     77          1           0        8.660801    4.488705   -0.068414
     78          1           0        7.080809    4.142577    0.500684
     79          1           0        8.226554    4.058516    1.616509
     80          1           0       -8.471403   -3.417013   -0.400223
     81          1           0       -8.024212   -2.621682   -1.805494
     82          1           0       -6.640305   -3.249264   -0.930732
     83          1           0        7.158826    0.501390    0.026645
     84          1           0       -6.348784    0.551319   -0.227691
     85          1           0        5.462687    2.954412    0.631871
     86          1           0       -5.013842   -2.134735   -0.735324
     87          1           0        4.429771    0.132277   -0.286346
     88          1           0       -4.088109    0.781198    0.229264
     89          1           0        3.275701    3.345809    1.451714
     90          1           0        1.795795    3.384220    0.466097
     91          1           0        3.315362    3.699906   -0.252496
     92          1           0       -2.428289   -2.902081    0.041863
     93          1           0       -2.781706   -2.521863   -1.689382
     94          1           0       -1.131727   -2.298623   -0.780073
     95          1           0        2.497964   -0.210621   -0.543429
     96          1           0       -1.935484    0.944008    0.543615
     97          1           0        0.412744    1.991368    0.398759
     98          1           0        0.134902   -1.027858   -0.318028
 ---------------------------------------------------------------------

 SCF Done:  E(RCAM-B3LYP) =  -1706.94934939     A.U. after   14 cycles

 Excitation energies and oscillator strengths:

 Excited State   1:      Singlet-A      2.7053 eV  458.30 nm  f=3.5425  <S**2>=0.000
     155 ->158         0.16142
     156 ->157         0.68254
 This state for optimization and/or second-order correction.
 Total Energy, E(TD-HF/TD-DFT) =  -1706.84993024
 Copying the excited state density for this state as the 1-particle RhoCI density.

 The electronic state is 1-A.
 Alpha  occ. eigenvalues --  -19.21777 -19.21346 -10.30816 -10.30740 -10.28451
 Alpha  occ. eigenvalues --  -10.28225 -10.27816 -10.27664 -10.27544 -10.27534
 Alpha  occ. eigenvalues --  -10.27356 -10.27299 -10.27274 -10.27204 -10.27084
 Alpha  occ. eigenvalues --  -10.27049 -10.26892 -10.26849 -10.26765 -10.26730
 Alpha  occ. eigenvalues --  -10.26410 -10.26379 -10.26373 -10.26335 -10.26287
 Alpha  occ. eigenvalues --  -10.26223 -10.26117 -10.26061 -10.26006 -10.25884
 Alpha  occ. eigenvalues --  -10.25844 -10.25839 -10.25509 -10.25118 -10.24838
 Alpha  occ. eigenvalues --  -10.24816 -10.24814 -10.24760 -10.24674 -10.24595
 Alpha  occ. eigenvalues --  -10.24011 -10.23635  -1.12843  -1.09983  -0.93716
 Alpha  occ. eigenvalues --   -0.92962  -0.92666  -0.91335  -0.90576  -0.89917
 Alpha  occ. eigenvalues --   -0.87243  -0.86902  -0.86641  -0.85399  -0.84313
 Alpha  occ. eigenvalues --   -0.83348  -0.81536  -0.80127  -0.79311  -0.78824
 Alpha  occ. eigenvalues --   -0.77054  -0.76745  -0.76362  -0.75981  -0.75660
 Alpha  occ. eigenvalues --   -0.75359  -0.75083  -0.74541  -0.73756  -0.71045
 Alpha  occ. eigenvalues --   -0.68710  -0.67660  -0.65875  -0.64714  -0.64163
 Alpha  occ. eigenvalues --   -0.63595  -0.62983  -0.61745  -0.60895  -0.59916
 Alpha  occ. eigenvalues --   -0.59625  -0.59043  -0.57903  -0.57465  -0.56731
 Alpha  occ. eigenvalues --   -0.56270  -0.55090  -0.54827  -0.54265  -0.53862
 Alpha  occ. eigenvalues --   -0.52945  -0.52542  -0.52151  -0.51584  -0.51143
 Alpha  occ. eigenvalues --   -0.50815  -0.50341  -0.50084  -0.50032  -0.49444
 Alpha  occ. eigenvalues --   -0.48974  -0.48652  -0.48289  -0.47980  -0.47692
 Alpha  occ. eigenvalues --   -0.47525  -0.47225  -0.47133  -0.46473  -0.46141
 Alpha  occ. eigenvalues --   -0.45772  -0.45472  -0.45160  -0.44710  -0.44580
 Alpha  occ. eigenvalues --   -0.44488  -0.44289  -0.44283  -0.44097  -0.43245
 Alpha  occ. eigenvalues --   -0.43065  -0.42569  -0.42532  -0.42314  -0.42284
 Alpha  occ. eigenvalues --   -0.41576  -0.41199  -0.41062  -0.40984  -0.40639
 Alpha  occ. eigenvalues --   -0.40376  -0.39995  -0.39956  -0.39497  -0.39440
 Alpha  occ. eigenvalues --   -0.38997  -0.38916  -0.38452  -0.38187  -0.37783
 Alpha  occ. eigenvalues --   -0.37754  -0.37694  -0.36500  -0.36411  -0.35783
 Alpha  occ. eigenvalues --   -0.35661  -0.34696  -0.33829  -0.32121  -0.31628
 Alpha  occ. eigenvalues --   -0.30810  -0.29834  -0.28556  -0.25926  -0.24425
 Alpha  occ. eigenvalues --   -0.20691
 Alpha virt. eigenvalues --   -0.04505  -0.00188   0.01982   0.05818   0.07779
 Alpha virt. eigenvalues --    0.09080   0.10942   0.11102   0.11855   0.12221
 Alpha virt. eigenvalues --    0.12336   0.12817   0.13322   0.13416   0.13794

 Mulliken charges:
               1
     1  O   -0.554518
     2  O   -0.523546
     3  C    0.005076
     4  C   -0.024565
     5  C   -0.165392
     6  C   -0.175827
     7  C    0.130132
     8  C    0.160058
     9  C    0.049804
    10  C    0.031799
    11  C   -0.198364
    12  C   -0.209530
    13  C    0.054981
    14  C    0.034275
    15  C   -0.268694
    16  C   -0.285310
    17  C   -0.299332
    18  C   -0.301950
    19  C   -0.124554
    20  C   -0.076194
    21  C   -0.372352
    22  C   -0.349994
    23  C   -0.108805
    24  C   -0.094582
    25  C    0.089248
    26  C    0.121501
    27  C   -0.379145
    28  C   -0.383993
    29  C   -0.111042
    30  C   -0.155607
    31  C   -0.100138
    32  C   -0.088906
    33  C   -0.094800
    34  C   -0.100422
    35  C    0.080153
    36  C    0.159991
    37  C   -0.366045
    38  C   -0.388673
    39  C   -0.113027
    40  C   -0.127213
    41  C   -0.098154
    42  C   -0.097282
    43  H    0.076085
    44  H    0.091509
    45  H    0.074121
    46  H    0.091683
    47  H    0.063707
    48  H    0.074266
    49  H    0.105405
    50  H    0.112546
    51  H    0.106287
    52  H    0.083946
    53  H    0.113209
    54  H    0.058258
    55  H    0.099868
    56  H    0.076314
    57  H    0.087789
    58  H    0.099906
    59  H    0.111508
    60  H    0.120460
    61  H    0.081143
    62  H    0.092863
    63  H    0.108342
    64  H    0.095817
    65  H    0.076357
    66  H    0.064179
    67  H    0.135362
    68  H    0.127472
    69  H    0.077603
    70  H    0.076563
    71  H    0.131280
    72  H    0.106596
    73  H    0.309186
    74  H    0.300996
    75  H    0.102794
    76  H    0.095965
    77  H    0.112830
    78  H    0.103311
    79  H    0.123565
    80  H    0.100927
    81  H    0.134137
    82  H    0.112086
    83  H    0.075718
    84  H    0.071126
    85  H    0.085125
    86  H    0.089047
    87  H    0.082807
    88  H    0.092579
    89  H    0.129317
    90  H    0.103405
    91  H    0.136525
    92  H    0.133871
    93  H    0.085470
    94  H    0.110522
    95  H    0.079024
    96  H    0.075808
    97  H    0.079903
    98  H    0.074452
 Sum of Mulliken charges =  -0.00000

 Dipole moment (field-independent basis, Debye):
    X=             -0.7159    Y=             -1.8826    Z=              1.8562  Tot=              2.7390
 Quadrupole moment (field-independent basis, Debye-Ang):
   XX=           -282.8676   YY=           -242.7370   ZZ=           -260.4445
   XY=             10.3162   XZ=             -3.6151   YZ=              1.5449

 Normal termination of Gaussian 16 at Tue Jul  9 04:46:02 2019.
