 Gaussian 16, Revision A.03,
 Gaussian 16:  ES64L-G16RevA.03 25-Dec-2016

 -------------------------------------
 # td=(NStates=1) CAM-B3LYP/6-31G(d,p)
 -------------------------------------

 --
 TD
 --
 Symbolic Z-matrix:
 Charge =  0 Multiplicity = 1

                         Standard orientation:
 ---------------------------------------------------------------------
 Center     Atomic      Atomic             Coordinates (Angstroms)
 Number     Number       Type             X           Y           Z
 ---------------------------------------------------------------------
      1          8           0       14.780798   -2.220718   -0.228987
      2          8           0      -14.831441    1.946232    0.906409
      3          6           0       11.449264   -1.103061    1.234102
      4          6           0      -12.269933   -0.894593    0.792758
      5          6           0       12.903260   -1.409034    1.165107
      6          6           0      -13.638848   -0.150041    0.900014
      7          6           0       13.370312   -1.928334   -0.193748
      8          6           0      -13.493325    1.303035    0.848972
      9          6           0       10.967569   -0.285449   -0.053601
     10          6           0      -11.323457   -0.244877   -0.234318
     11          6           0       13.063338   -0.886696   -1.268982
     12          6           0      -12.858949    1.729498   -0.382883
     13          6           0       11.754462   -0.162891   -1.179338
     14          6           0      -11.628922    0.933923   -0.795091
     15          6           0       11.099003   -0.212606    2.496082
     16          6           0       10.640954   -2.517574    1.410074
     17          6           0      -11.571840   -0.828272    2.212917
     18          6           0      -12.504303   -2.464651    0.424460
     19          6           0        9.727535    0.375951    0.179727
     20          6           0      -10.044543   -0.989811   -0.405784
     21          6           0       11.488642    0.762099   -2.340928
     22          6           0      -10.811069    1.648799   -1.781517
     23          6           0        9.256525    1.605560   -0.089423
     24          6           0       -8.880694   -0.623154   -0.312876
     25          6           0        7.998022    2.253558    0.087042
     26          6           0       -7.576853   -1.325715   -0.596401
     27          6           0        8.066060    3.662363    0.512991
     28          6           0       -7.824714   -2.736141   -1.265786
     29          6           0        6.867399    1.651377   -0.112181
     30          6           0       -6.423850   -0.693045   -0.374737
     31          6           0        5.510916    2.055272   -0.014676
     32          6           0       -5.107062   -1.207358   -0.527898
     33          6           0        4.420086    1.290254   -0.273611
     34          6           0       -4.078043   -0.461345   -0.213753
     35          6           0        3.029622    1.604623    0.068108
     36          6           0       -2.600575   -0.903274   -0.469535
     37          6           0        2.692715    2.982767    0.553948
     38          6           0       -2.413898   -2.221851   -0.974792
     39          6           0        2.131341    0.633052   -0.152551
     40          6           0       -1.625960    0.050893   -0.196922
     41          6           0        0.718347    0.858508    0.041231
     42          6           0       -0.213434   -0.095244   -0.283084
     43          1           0       13.607455   -0.445378    1.417862
     44          1           0       13.375939   -2.114882    1.927049
     45          1           0      -13.981001   -0.740955    1.677311
     46          1           0      -14.311593   -0.406846    0.029150
     47          1           0       13.043272   -2.910888   -0.529852
     48          1           0      -12.832361    1.689202    1.714996
     49          1           0       13.921975   -0.253427   -1.457244
     50          1           0       13.018462   -1.444320   -2.126268
     51          1           0      -13.468573    1.743780   -1.313127
     52          1           0      -12.599518    2.772241   -0.152216
     53          1           0       11.521736   -0.889251    3.350256
     54          1           0       10.048907   -0.038576    2.682262
     55          1           0       11.751503    0.767563    2.335479
     56          1           0       10.743531   -2.961190    0.457208
     57          1           0       10.932628   -2.904813    2.273033
     58          1           0        9.633860   -2.276046    1.343798
     59          1           0      -11.300758    0.226430    2.536084
     60          1           0      -10.712698   -1.328882    2.125541
     61          1           0      -12.197761   -1.461133    2.827783
     62          1           0      -13.138230   -2.762396    1.265646
     63          1           0      -11.431216   -3.047318    0.253832
     64          1           0      -12.961276   -2.425366   -0.529374
     65          1           0        8.804763   -0.403711    0.407191
     66          1           0      -10.007975   -2.167385   -0.571482
     67          1           0       10.433987    1.296341   -2.253768
     68          1           0       11.991101    1.614021   -2.387832
     69          1           0       11.552661    0.223849   -3.354990
     70          1           0      -11.481897    2.241969   -2.673949
     71          1           0       -9.990261    0.931956   -2.346308
     72          1           0      -10.306394    2.693987   -1.450523
     73          1           0       14.710809   -2.775631    0.693757
     74          1           0      -15.182147    1.890314    1.951446
     75          1           0       10.103087    2.334604   -0.447669
     76          1           0       -8.531562    0.484307   -0.159350
     77          1           0        8.545553    4.365024   -0.271011
     78          1           0        7.048432    4.045649    0.532585
     79          1           0        8.409250    3.813790    1.465984
     80          1           0       -8.218302   -3.397292   -0.350637
     81          1           0       -8.386558   -2.571549   -2.147078
     82          1           0       -7.013603   -3.404745   -1.449213
     83          1           0        7.064660    0.612945   -0.747581
     84          1           0       -6.405458    0.255128    0.345942
     85          1           0        5.366102    2.895122    0.638271
     86          1           0       -5.035703   -2.265984   -0.897547
     87          1           0        4.825529    0.323706   -0.805745
     88          1           0       -4.139205    0.336901    0.156531
     89          1           0        3.294403    3.124533    1.418518
     90          1           0        1.681218    3.243966    0.786341
     91          1           0        3.040862    3.721405   -0.297784
     92          1           0       -3.296420   -2.862223   -0.463035
     93          1           0       -2.478582   -2.332400   -2.195288
     94          1           0       -1.277698   -2.512410   -0.751183
     95          1           0        2.484495   -0.482145   -0.343612
     96          1           0       -2.023259    1.059665    0.196809
     97          1           0        0.346105    1.772633    0.212876
     98          1           0        0.222263   -1.037072   -0.567965
 ---------------------------------------------------------------------

 SCF Done:  E(RCAM-B3LYP) =  -1706.90370837     A.U. after   14 cycles

 Excitation energies and oscillator strengths:

 Excited State   1:      Singlet-A      2.9965 eV  413.77 nm  f=3.4581  <S**2>=0.000
     155 ->158         0.16200
     156 ->157         0.68239
 This state for optimization and/or second-order correction.
 Total Energy, E(TD-HF/TD-DFT) =  -1706.79359008
 Copying the excited state density for this state as the 1-particle RhoCI density.

 The electronic state is 1-A.
 Alpha  occ. eigenvalues --  -19.21688 -19.21485 -10.30630 -10.29975 -10.28319
 Alpha  occ. eigenvalues --  -10.28238 -10.28222 -10.27833 -10.27820 -10.27678
 Alpha  occ. eigenvalues --  -10.27563 -10.27373 -10.27342 -10.27057 -10.27018
 Alpha  occ. eigenvalues --  -10.26925 -10.26890 -10.26771 -10.26562 -10.26561
 Alpha  occ. eigenvalues --  -10.26439 -10.26434 -10.26318 -10.26266 -10.26174
 Alpha  occ. eigenvalues --  -10.26164 -10.26108 -10.26099 -10.26037 -10.26037
 Alpha  occ. eigenvalues --  -10.25661 -10.25553 -10.25400 -10.25192 -10.25167
 Alpha  occ. eigenvalues --  -10.25077 -10.24797 -10.24535 -10.24124 -10.24009
 Alpha  occ. eigenvalues --  -10.23860 -10.23194  -1.07855  -1.05480  -0.93635
 Alpha  occ. eigenvalues --   -0.93121  -0.92436  -0.92086  -0.91280  -0.90202
 Alpha  occ. eigenvalues --   -0.87983  -0.86778  -0.86681  -0.86181  -0.85029
 Alpha  occ. eigenvalues --   -0.83722  -0.82656  -0.80722  -0.79989  -0.78331
 Alpha  occ. eigenvalues --   -0.77033  -0.76953  -0.76620  -0.76305  -0.76189
 Alpha  occ. eigenvalues --   -0.75390  -0.75195  -0.74875  -0.74141  -0.70694
 Alpha  occ. eigenvalues --   -0.68874  -0.66838  -0.65801  -0.64599  -0.63897
 Alpha  occ. eigenvalues --   -0.63271  -0.62668  -0.62218  -0.60852  -0.59775
 Alpha  occ. eigenvalues --   -0.58959  -0.57859  -0.57562  -0.56979  -0.56475
 Alpha  occ. eigenvalues --   -0.55570  -0.55295  -0.54973  -0.54328  -0.53683
 Alpha  occ. eigenvalues --   -0.52747  -0.52638  -0.51805  -0.51324  -0.51054
 Alpha  occ. eigenvalues --   -0.50869  -0.50628  -0.50338  -0.49885  -0.49648
 Alpha  occ. eigenvalues --   -0.49205  -0.48862  -0.48804  -0.48549  -0.48337
 Alpha  occ. eigenvalues --   -0.48060  -0.47646  -0.47407  -0.47184  -0.46711
 Alpha  occ. eigenvalues --   -0.46304  -0.46254  -0.45801  -0.45571  -0.45340
 Alpha  occ. eigenvalues --   -0.44762  -0.44633  -0.43747  -0.43084  -0.42976
 Alpha  occ. eigenvalues --   -0.42711  -0.42404  -0.42056  -0.41713  -0.41546
 Alpha  occ. eigenvalues --   -0.41357  -0.41313  -0.40932  -0.40775  -0.40697
 Alpha  occ. eigenvalues --   -0.40530  -0.40349  -0.39866  -0.39279  -0.39103
 Alpha  occ. eigenvalues --   -0.38832  -0.38584  -0.38390  -0.38080  -0.37778
 Alpha  occ. eigenvalues --   -0.37479  -0.37335  -0.36713  -0.35914  -0.35824
 Alpha  occ. eigenvalues --   -0.35428  -0.34686  -0.34156  -0.32179  -0.32000
 Alpha  occ. eigenvalues --   -0.31697  -0.29640  -0.28342  -0.26855  -0.25133
 Alpha  occ. eigenvalues --   -0.21611
 Alpha virt. eigenvalues --   -0.03814   0.00299   0.03077   0.05757   0.07364
 Alpha virt. eigenvalues --    0.09149   0.09706   0.10370   0.11248   0.11423
 Alpha virt. eigenvalues --    0.12155   0.12808   0.12911   0.12990   0.13530

 Mulliken charges:
               1
     1  O   -0.565057
     2  O   -0.575625
     3  C   -0.020771
     4  C   -0.081247
     5  C   -0.194123
     6  C   -0.148452
     7  C    0.154915
     8  C    0.156122
     9  C    0.033661
    10  C    0.082899
    11  C   -0.226301
    12  C   -0.212615
    13  C    0.071782
    14  C    0.077935
    15  C   -0.286448
    16  C   -0.300276
    17  C   -0.290656
    18  C   -0.297238
    19  C   -0.104451
    20  C   -0.164170
    21  C   -0.370002
    22  C   -0.359037
    23  C   -0.122004
    24  C   -0.039969
    25  C    0.110239
    26  C    0.085986
    27  C   -0.372604
    28  C   -0.372956
    29  C   -0.118208
    30  C   -0.153622
    31  C   -0.095035
    32  C   -0.071292
    33  C   -0.106106
    34  C   -0.021714
    35  C    0.093517
    36  C    0.119967
    37  C   -0.364385
    38  C   -0.368230
    39  C   -0.118326
    40  C   -0.136250
    41  C   -0.072246
    42  C   -0.082966
    43  H    0.088744
    44  H    0.062569
    45  H    0.084548
    46  H    0.093781
    47  H    0.095865
    48  H    0.074249
    49  H    0.125895
    50  H    0.116960
    51  H    0.123955
    52  H    0.114966
    53  H    0.077966
    54  H    0.122873
    55  H    0.094548
    56  H    0.110393
    57  H    0.111256
    58  H    0.107552
    59  H    0.099034
    60  H    0.119639
    61  H    0.091924
    62  H    0.100736
    63  H    0.086161
    64  H    0.122170
    65  H    0.065058
    66  H    0.070306
    67  H    0.098854
    68  H    0.137638
    69  H    0.100686
    70  H    0.073018
    71  H    0.103752
    72  H    0.102271
    73  H    0.297201
    74  H    0.301661
    75  H    0.067305
    76  H    0.067896
    77  H    0.109365
    78  H    0.105939
    79  H    0.132930
    80  H    0.109595
    81  H    0.142224
    82  H    0.112087
    83  H    0.058121
    84  H    0.079332
    85  H    0.076455
    86  H    0.084445
    87  H    0.083299
    88  H    0.023263
    89  H    0.132710
    90  H    0.120974
    91  H    0.113383
    92  H    0.105520
    93  H    0.111443
    94  H    0.101539
    95  H    0.087854
    96  H    0.076217
    97  H    0.072926
    98  H    0.074312
 Sum of Mulliken charges =  -0.00000

 Dipole moment (field-independent basis, Debye):
    X=             -1.1923    Y=             -0.6372    Z=              2.0694  Tot=              2.4718
 Quadrupole moment (field-independent basis, Debye-Ang):
   XX=           -321.3095   YY=           -246.0121   ZZ=           -256.8948
   XY=             15.8771   XZ=             -6.2163   YZ=              2.5783

 Normal termination of Gaussian 16 at Thu Jun 27 22:58:20 2019.
