 Gaussian 16, Revision A.03,
 Gaussian 16:  ES64L-G16RevA.03 25-Dec-2016

 -------------------------------------
 # td=(NStates=1) CAM-B3LYP/6-31G(d,p)
 -------------------------------------

 --
 TD
 --
 Symbolic Z-matrix:
 Charge =  0 Multiplicity = 1

                         Standard orientation:
 ---------------------------------------------------------------------
 Center     Atomic      Atomic             Coordinates (Angstroms)
 Number     Number       Type             X           Y           Z
 ---------------------------------------------------------------------
      1          8           0       14.708469   -2.295104   -0.314517
      2          8           0      -14.704225    2.089113    0.765900
      3          6           0       11.451951   -0.973661    1.144660
      4          6           0      -12.257836   -0.884918    0.763275
      5          6           0       12.952148   -1.416928    1.031267
      6          6           0      -13.622338   -0.202114    0.664018
      7          6           0       13.323499   -1.838248   -0.324224
      8          6           0      -13.440834    1.348740    0.747022
      9          6           0       10.968458   -0.347658   -0.015085
     10          6           0      -11.335637   -0.267142   -0.214034
     11          6           0       13.000643   -0.870240   -1.370641
     12          6           0      -12.750351    1.764050   -0.490481
     13          6           0       11.640111   -0.176121   -1.184890
     14          6           0      -11.576549    0.965939   -0.733895
     15          6           0       11.255518   -0.289838    2.417398
     16          6           0       10.629421   -2.371264    1.358755
     17          6           0      -11.753981   -0.902970    2.201599
     18          6           0      -12.697208   -2.386127    0.375207
     19          6           0        9.588566    0.374804    0.109544
     20          6           0      -10.086419   -1.128402   -0.530729
     21          6           0       11.127272    0.549354   -2.454114
     22          6           0      -10.608015    1.551993   -1.864390
     23          6           0        9.410674    1.650955   -0.049570
     24          6           0       -8.887624   -0.561396   -0.371783
     25          6           0        8.052708    2.335146    0.229454
     26          6           0       -7.557167   -1.348208   -0.516280
     27          6           0        7.984990    3.736890    0.591664
     28          6           0       -7.645136   -2.862438   -0.889341
     29          6           0        6.896415    1.605394   -0.055289
     30          6           0       -6.408799   -0.711852   -0.394563
     31          6           0        5.526137    2.037333    0.053008
     32          6           0       -5.083717   -1.247417   -0.453560
     33          6           0        4.373265    1.224752   -0.104333
     34          6           0       -3.965359   -0.501071   -0.285168
     35          6           0        3.051837    1.683486    0.116998
     36          6           0       -2.588794   -0.847569   -0.309676
     37          6           0        2.856822    3.121309    0.423695
     38          6           0       -2.310251   -2.266314   -0.617367
     39          6           0        2.078745    0.737492   -0.092117
     40          6           0       -1.603926    0.063564   -0.075749
     41          6           0        0.618974    0.840107   -0.024139
     42          6           0       -0.233851   -0.138631   -0.178032
     43          1           0       13.504576   -0.512787    1.448167
     44          1           0       13.336681   -2.172327    1.861685
     45          1           0      -14.321844   -0.362406    1.568501
     46          1           0      -14.177211   -0.536050   -0.300228
     47          1           0       12.669162   -2.836955   -0.760795
     48          1           0      -12.847771    1.744563    1.633231
     49          1           0       13.772104   -0.136981   -1.330193
     50          1           0       13.151918   -1.234924   -2.340054
     51          1           0      -13.416118    1.729964   -1.440395
     52          1           0      -12.437047    2.641039   -0.461366
     53          1           0       11.761549   -0.916978    3.293024
     54          1           0       10.116020   -0.386671    2.741378
     55          1           0       11.486589    0.771754    2.400127
     56          1           0       10.791080   -2.887473    0.319236
     57          1           0       10.928307   -2.910143    2.303813
     58          1           0        9.509818   -2.276176    1.456795
     59          1           0      -11.867732    0.078397    2.578508
     60          1           0      -10.668787   -1.196223    2.214201
     61          1           0      -12.449592   -1.403728    2.768673
     62          1           0      -13.367852   -2.697155    1.178585
     63          1           0      -11.769170   -3.096696    0.442627
     64          1           0      -12.887186   -2.315804   -0.699737
     65          1           0        8.947550   -0.341880    0.837752
     66          1           0      -10.470685   -2.117860   -0.765055
     67          1           0       10.158598    0.983900   -2.506130
     68          1           0       11.885053    1.471726   -2.520518
     69          1           0       11.113567   -0.019527   -3.313061
     70          1           0      -11.202150    2.231712   -2.477088
     71          1           0       -9.901024    0.963377   -2.372870
     72          1           0       -9.876168    2.315457   -1.454318
     73          1           0       14.756897   -3.363632    0.050993
     74          1           0      -15.079209    1.980635    1.634192
     75          1           0       10.262918    2.193872   -0.400527
     76          1           0       -8.593656    0.340293    0.116542
     77          1           0        8.809121    4.326720   -0.029454
     78          1           0        7.001161    4.183299    0.553660
     79          1           0        8.275169    3.990910    1.756584
     80          1           0       -8.050127   -3.457949   -0.068173
     81          1           0       -8.203941   -3.006116   -1.736856
     82          1           0       -6.570776   -3.087943   -1.053915
     83          1           0        6.882591    0.603129   -0.391146
     84          1           0       -6.433751    0.232706   -0.020099
     85          1           0        5.209401    3.071206    0.197864
     86          1           0       -4.945976   -2.174121   -0.887871
     87          1           0        4.583719    0.402236   -0.301718
     88          1           0       -4.123268    0.641507   -0.166580
     89          1           0        3.216365    3.392068    1.431110
     90          1           0        1.842754    3.387472    0.625393
     91          1           0        3.148783    3.759594   -0.432437
     92          1           0       -2.827177   -2.961208    0.116489
     93          1           0       -2.433967   -2.445741   -1.668848
     94          1           0       -1.190051   -2.570762   -0.557019
     95          1           0        2.476948   -0.337584   -0.189741
     96          1           0       -2.043825    1.175206    0.056737
     97          1           0        0.170365    1.745260    0.177390
     98          1           0        0.107159   -1.250959   -0.496798
 ---------------------------------------------------------------------

 SCF Done:  E(RCAM-B3LYP) =  -1706.96355982     A.U. after   14 cycles

 Excitation energies and oscillator strengths:

 Excited State   1:      Singlet-A      2.7454 eV  451.61 nm  f=3.6084  <S**2>=0.000
     155 ->158         0.16325
     156 ->157         0.68466
 This state for optimization and/or second-order correction.
 Total Energy, E(TD-HF/TD-DFT) =  -1706.86266928
 Copying the excited state density for this state as the 1-particle RhoCI density.

 The electronic state is 1-A.
 Alpha  occ. eigenvalues --  -19.21815 -19.20476 -10.31488 -10.30585 -10.28145
 Alpha  occ. eigenvalues --  -10.27303 -10.27248 -10.27216 -10.26911 -10.26868
 Alpha  occ. eigenvalues --  -10.26825 -10.26792 -10.26705 -10.26674 -10.26613
 Alpha  occ. eigenvalues --  -10.26542 -10.26512 -10.26487 -10.26370 -10.26349
 Alpha  occ. eigenvalues --  -10.26137 -10.26067 -10.26043 -10.26017 -10.25973
 Alpha  occ. eigenvalues --  -10.25919 -10.25899 -10.25761 -10.25695 -10.25687
 Alpha  occ. eigenvalues --  -10.25604 -10.25497 -10.25444 -10.25395 -10.25211
 Alpha  occ. eigenvalues --  -10.24738 -10.24677 -10.24405 -10.24395 -10.23825
 Alpha  occ. eigenvalues --  -10.23575 -10.23261  -1.08094  -1.05820  -0.94368
 Alpha  occ. eigenvalues --   -0.93949  -0.92650  -0.91766  -0.90455  -0.89707
 Alpha  occ. eigenvalues --   -0.87762  -0.87504  -0.87063  -0.85517  -0.85048
 Alpha  occ. eigenvalues --   -0.82732  -0.81885  -0.80425  -0.79379  -0.78508
 Alpha  occ. eigenvalues --   -0.76917  -0.76649  -0.76634  -0.76535  -0.75923
 Alpha  occ. eigenvalues --   -0.75532  -0.75192  -0.74381  -0.74067  -0.70604
 Alpha  occ. eigenvalues --   -0.68233  -0.67137  -0.65799  -0.64867  -0.64407
 Alpha  occ. eigenvalues --   -0.63773  -0.62989  -0.62445  -0.61406  -0.60806
 Alpha  occ. eigenvalues --   -0.59707  -0.57938  -0.57608  -0.56959  -0.55463
 Alpha  occ. eigenvalues --   -0.55105  -0.54932  -0.54495  -0.54039  -0.53936
 Alpha  occ. eigenvalues --   -0.53353  -0.52883  -0.52487  -0.52032  -0.51196
 Alpha  occ. eigenvalues --   -0.50935  -0.50517  -0.50390  -0.50067  -0.49588
 Alpha  occ. eigenvalues --   -0.49226  -0.49113  -0.48623  -0.48350  -0.48274
 Alpha  occ. eigenvalues --   -0.47821  -0.47406  -0.46968  -0.46812  -0.46559
 Alpha  occ. eigenvalues --   -0.45985  -0.45614  -0.45547  -0.44947  -0.44771
 Alpha  occ. eigenvalues --   -0.44667  -0.43936  -0.43548  -0.43474  -0.43384
 Alpha  occ. eigenvalues --   -0.42941  -0.42724  -0.42404  -0.42157  -0.41810
 Alpha  occ. eigenvalues --   -0.41719  -0.41661  -0.41605  -0.41066  -0.40945
 Alpha  occ. eigenvalues --   -0.40562  -0.40321  -0.40073  -0.39864  -0.39611
 Alpha  occ. eigenvalues --   -0.39148  -0.39107  -0.38362  -0.38154  -0.37903
 Alpha  occ. eigenvalues --   -0.37807  -0.37453  -0.36121  -0.35924  -0.35432
 Alpha  occ. eigenvalues --   -0.34474  -0.33926  -0.33356  -0.32386  -0.31798
 Alpha  occ. eigenvalues --   -0.31472  -0.29800  -0.27698  -0.26884  -0.24296
 Alpha  occ. eigenvalues --   -0.20669
 Alpha virt. eigenvalues --   -0.04261   0.00137   0.03851   0.05948   0.07663
 Alpha virt. eigenvalues --    0.08062   0.09418   0.10637   0.11690   0.12104
 Alpha virt. eigenvalues --    0.12216   0.12580   0.13284   0.13675   0.14420

 Mulliken charges:
               1
     1  O   -0.584155
     2  O   -0.570610
     3  C   -0.022490
     4  C   -0.027622
     5  C   -0.165342
     6  C   -0.179910
     7  C    0.187046
     8  C    0.137095
     9  C    0.066920
    10  C    0.019114
    11  C   -0.214719
    12  C   -0.170623
    13  C    0.027323
    14  C    0.042702
    15  C   -0.290750
    16  C   -0.300463
    17  C   -0.286887
    18  C   -0.308863
    19  C   -0.102382
    20  C   -0.123663
    21  C   -0.355402
    22  C   -0.365099
    23  C   -0.098324
    24  C   -0.075224
    25  C    0.095426
    26  C    0.058690
    27  C   -0.368223
    28  C   -0.359061
    29  C   -0.104383
    30  C   -0.101766
    31  C   -0.109050
    32  C   -0.092417
    33  C   -0.034032
    34  C   -0.124838
    35  C    0.132097
    36  C    0.132989
    37  C   -0.394584
    38  C   -0.386220
    39  C   -0.153033
    40  C   -0.134856
    41  C   -0.078868
    42  C   -0.054537
    43  H    0.101062
    44  H    0.075907
    45  H    0.061125
    46  H    0.103400
    47  H    0.039204
    48  H    0.085064
    49  H    0.116104
    50  H    0.113913
    51  H    0.114558
    52  H    0.109470
    53  H    0.087609
    54  H    0.083538
    55  H    0.107822
    56  H    0.092084
    57  H    0.099101
    58  H    0.093600
    59  H    0.095260
    60  H    0.109500
    61  H    0.100702
    62  H    0.113092
    63  H    0.075719
    64  H    0.112539
    65  H    0.079117
    66  H    0.106215
    67  H    0.127774
    68  H    0.094327
    69  H    0.120753
    70  H    0.100881
    71  H    0.128801
    72  H    0.095015
    73  H    0.312711
    74  H    0.298477
    75  H    0.099759
    76  H    0.098167
    77  H    0.102852
    78  H    0.126750
    79  H    0.095046
    80  H    0.120481
    81  H    0.127240
    82  H    0.099630
    83  H    0.086560
    84  H    0.067525
    85  H    0.072052
    86  H    0.087913
    87  H    0.011821
    88  H    0.064816
    89  H    0.129162
    90  H    0.111081
    91  H    0.131371
    92  H    0.120976
    93  H    0.134142
    94  H    0.090085
    95  H    0.078259
    96  H    0.071726
    97  H    0.078532
    98  H    0.078604
 Sum of Mulliken charges =  -0.00000

 Dipole moment (field-independent basis, Debye):
    X=              0.0441    Y=             -0.8690    Z=              1.4011  Tot=              1.6493
 Quadrupole moment (field-independent basis, Debye-Ang):
   XX=           -292.3252   YY=           -243.5445   ZZ=           -257.0604
   XY=              5.3301   XZ=            -12.1550   YZ=              2.7705

 Normal termination of Gaussian 16 at Wed Jul 10 02:37:39 2019.
