 Gaussian 16, Revision A.03,
 Gaussian 16:  ES64L-G16RevA.03 25-Dec-2016

 -------------------------------------
 # td=(NStates=1) CAM-B3LYP/6-31G(d,p)
 -------------------------------------

 --
 TD
 --
 Symbolic Z-matrix:
 Charge =  0 Multiplicity = 1

                         Standard orientation:
 ---------------------------------------------------------------------
 Center     Atomic      Atomic             Coordinates (Angstroms)
 Number     Number       Type             X           Y           Z
 ---------------------------------------------------------------------
      1          8           0       14.692396   -2.218135   -0.213744
      2          8           0      -14.792278    1.819239    1.094108
      3          6           0       11.419598   -1.054486    1.198328
      4          6           0      -12.380873   -0.934411    0.616160
      5          6           0       12.950776   -1.443180    1.155196
      6          6           0      -13.655099   -0.273257    0.773112
      7          6           0       13.332362   -1.929496   -0.232645
      8          6           0      -13.472476    1.217229    0.951461
      9          6           0       10.995372   -0.215915    0.011694
     10          6           0      -11.372364   -0.259726   -0.321277
     11          6           0       13.168690   -0.877159   -1.259703
     12          6           0      -12.879767    1.852952   -0.183077
     13          6           0       11.711498   -0.211572   -1.130067
     14          6           0      -11.604514    1.072952   -0.653129
     15          6           0       11.237425   -0.097988    2.528773
     16          6           0       10.608200   -2.375700    1.413891
     17          6           0      -11.577408   -1.025818    1.951628
     18          6           0      -12.729173   -2.386677    0.141223
     19          6           0        9.644170    0.315908    0.056115
     20          6           0      -10.111698   -1.043811   -0.581835
     21          6           0       11.304708    0.490062   -2.494243
     22          6           0      -10.803297    1.769931   -1.701446
     23          6           0        9.370081    1.592609   -0.121541
     24          6           0       -8.849985   -0.438920   -0.396196
     25          6           0        8.071818    2.283094    0.001320
     26          6           0       -7.545604   -1.199663   -0.589476
     27          6           0        8.070178    3.809499    0.023297
     28          6           0       -7.597773   -2.649910   -1.133045
     29          6           0        6.952066    1.562926   -0.120087
     30          6           0       -6.421625   -0.512009   -0.481639
     31          6           0        5.531641    1.986578    0.153474
     32          6           0       -5.114341   -1.074621   -0.558703
     33          6           0        4.487767    1.101074    0.136165
     34          6           0       -3.942641   -0.340416   -0.268165
     35          6           0        3.074978    1.531266    0.166928
     36          6           0       -2.593059   -0.888357   -0.292857
     37          6           0        2.850848    3.040460    0.462742
     38          6           0       -2.394810   -2.317402   -0.756648
     39          6           0        2.119633    0.605453    0.021080
     40          6           0       -1.632453   -0.048167   -0.017959
     41          6           0        0.697219    0.813417    0.031778
     42          6           0       -0.171905   -0.183965   -0.131891
     43          1           0       13.509967   -0.641926    1.448707
     44          1           0       12.910129   -2.161728    2.193282
     45          1           0      -14.306925   -0.760286    1.527575
     46          1           0      -14.326516   -0.330685   -0.252881
     47          1           0       12.604350   -2.663409   -0.501657
     48          1           0      -13.127654    1.329383    2.096835
     49          1           0       13.646038    0.156383   -1.111318
     50          1           0       13.252789   -1.441954   -2.020175
     51          1           0      -13.807228    1.788134   -0.920426
     52          1           0      -12.601559    2.927554   -0.151835
     53          1           0       11.565724   -0.484410    3.410920
     54          1           0       10.214814    0.492588    2.554947
     55          1           0       11.886995    0.892492    2.322018
     56          1           0       10.810093   -3.033308    0.684600
     57          1           0       11.158036   -2.882632    2.287414
     58          1           0        9.526659   -2.099176    1.560518
     59          1           0      -11.732987   -0.127121    2.524311
     60          1           0      -10.538121   -1.448905    1.647961
     61          1           0      -12.081913   -1.649843    2.754990
     62          1           0      -13.441214   -2.606721    0.784438
     63          1           0      -11.801038   -3.099164    0.154890
     64          1           0      -13.375235   -2.478441   -0.852020
     65          1           0        8.916205   -0.179855    0.597385
     66          1           0      -10.384249   -2.117211   -0.914986
     67          1           0       10.179114    0.865999   -2.557586
     68          1           0       12.048733    1.246437   -2.647935
     69          1           0       11.315846   -0.423081   -3.258856
     70          1           0      -11.279621    2.164196   -2.525635
     71          1           0       -9.924357    1.102004   -2.018987
     72          1           0      -10.536156    2.639731   -1.080509
     73          1           0       14.618631   -3.133994    0.085134
     74          1           0      -15.503975    1.487076    1.516895
     75          1           0       10.279632    2.073413   -0.513651
     76          1           0       -8.762530    0.557861    0.047834
     77          1           0        8.492619    4.274416   -0.975549
     78          1           0        7.111772    4.182159    0.303449
     79          1           0        8.743192    4.202312    0.834030
     80          1           0       -8.335351   -3.139581   -0.637665
     81          1           0       -7.970163   -2.589943   -2.080125
     82          1           0       -6.643680   -3.153054   -0.816721
     83          1           0        6.858343    0.418395   -0.325399
     84          1           0       -6.605616    0.432926   -0.161312
     85          1           0        5.523358    3.112117    0.148690
     86          1           0       -4.896225   -2.064555   -1.086687
     87          1           0        4.668993    0.032925   -0.067589
     88          1           0       -3.977179    0.577629    0.258375
     89          1           0        3.218537    3.467031    1.299792
     90          1           0        1.734728    3.137782    0.986643
     91          1           0        3.314188    3.758517   -0.338731
     92          1           0       -3.081913   -2.971068   -0.466494
     93          1           0       -2.638153   -2.339610   -1.964806
     94          1           0       -1.237002   -2.729444   -0.654052
     95          1           0        2.505033   -0.431693   -0.121772
     96          1           0       -1.919292    0.867638    0.255960
     97          1           0        0.177946    1.902710   -0.263820
     98          1           0        0.353451   -1.292556   -0.253741
 ---------------------------------------------------------------------

 SCF Done:  E(RCAM-B3LYP) =  -1706.88685575     A.U. after   14 cycles

 Excitation energies and oscillator strengths:

 Excited State   1:      Singlet-A      3.0007 eV  413.19 nm  f=3.6720  <S**2>=0.000
     155 ->158         0.20492
     156 ->157         0.66709
 This state for optimization and/or second-order correction.
 Total Energy, E(TD-HF/TD-DFT) =  -1706.77658284
 Copying the excited state density for this state as the 1-particle RhoCI density.

 The electronic state is 1-A.
 Alpha  occ. eigenvalues --  -19.21784 -19.18205 -10.31313 -10.30129 -10.28104
 Alpha  occ. eigenvalues --  -10.27854 -10.27555 -10.27541 -10.27537 -10.27410
 Alpha  occ. eigenvalues --  -10.27275 -10.27263 -10.27167 -10.27075 -10.27008
 Alpha  occ. eigenvalues --  -10.26940 -10.26919 -10.26872 -10.26863 -10.26775
 Alpha  occ. eigenvalues --  -10.26743 -10.26664 -10.26658 -10.26435 -10.26427
 Alpha  occ. eigenvalues --  -10.26406 -10.26364 -10.26099 -10.25879 -10.25201
 Alpha  occ. eigenvalues --  -10.25180 -10.25074 -10.25010 -10.24958 -10.24889
 Alpha  occ. eigenvalues --  -10.24823 -10.24779 -10.24748 -10.24730 -10.24461
 Alpha  occ. eigenvalues --  -10.24230 -10.24219  -1.11790  -1.08167  -0.93958
 Alpha  occ. eigenvalues --   -0.93048  -0.92259  -0.91156  -0.90556  -0.89824
 Alpha  occ. eigenvalues --   -0.87040  -0.86790  -0.85884  -0.85630  -0.85144
 Alpha  occ. eigenvalues --   -0.82889  -0.81555  -0.80076  -0.79838  -0.78202
 Alpha  occ. eigenvalues --   -0.77463  -0.76358  -0.76246  -0.75967  -0.75554
 Alpha  occ. eigenvalues --   -0.75341  -0.74811  -0.74658  -0.74156  -0.70354
 Alpha  occ. eigenvalues --   -0.68737  -0.67216  -0.65778  -0.64761  -0.64082
 Alpha  occ. eigenvalues --   -0.63301  -0.62371  -0.61013  -0.60653  -0.60180
 Alpha  occ. eigenvalues --   -0.60043  -0.59234  -0.57819  -0.57590  -0.56687
 Alpha  occ. eigenvalues --   -0.56276  -0.55507  -0.54807  -0.54363  -0.54264
 Alpha  occ. eigenvalues --   -0.53383  -0.52529  -0.51896  -0.51791  -0.50834
 Alpha  occ. eigenvalues --   -0.50363  -0.49935  -0.49739  -0.49308  -0.48993
 Alpha  occ. eigenvalues --   -0.48938  -0.48455  -0.48195  -0.48001  -0.47341
 Alpha  occ. eigenvalues --   -0.47253  -0.47055  -0.46934  -0.46575  -0.46444
 Alpha  occ. eigenvalues --   -0.45940  -0.45896  -0.45466  -0.45165  -0.44694
 Alpha  occ. eigenvalues --   -0.44672  -0.44378  -0.44251  -0.43962  -0.43722
 Alpha  occ. eigenvalues --   -0.43158  -0.42783  -0.42359  -0.42308  -0.42096
 Alpha  occ. eigenvalues --   -0.41801  -0.41336  -0.40934  -0.40771  -0.40180
 Alpha  occ. eigenvalues --   -0.39902  -0.39867  -0.39553  -0.39053  -0.38870
 Alpha  occ. eigenvalues --   -0.38349  -0.38246  -0.38164  -0.37539  -0.37409
 Alpha  occ. eigenvalues --   -0.37314  -0.36581  -0.36421  -0.36137  -0.35528
 Alpha  occ. eigenvalues --   -0.34961  -0.34574  -0.33868  -0.32431  -0.31667
 Alpha  occ. eigenvalues --   -0.30821  -0.29897  -0.27880  -0.26226  -0.23984
 Alpha  occ. eigenvalues --   -0.21516
 Alpha virt. eigenvalues --   -0.03593  -0.00291   0.02941   0.05799   0.07989
 Alpha virt. eigenvalues --    0.09471   0.10365   0.11245   0.11334   0.12165
 Alpha virt. eigenvalues --    0.12412   0.12454   0.12513   0.12954   0.13264

 Mulliken charges:
               1
     1  O   -0.531174
     2  O   -0.600525
     3  C   -0.053045
     4  C    0.000058
     5  C   -0.159115
     6  C   -0.206384
     7  C    0.119687
     8  C    0.200684
     9  C    0.091122
    10  C    0.069350
    11  C   -0.146552
    12  C   -0.190910
    13  C   -0.056705
    14  C    0.011212
    15  C   -0.314111
    16  C   -0.281344
    17  C   -0.300088
    18  C   -0.289142
    19  C   -0.097263
    20  C   -0.169416
    21  C   -0.335587
    22  C   -0.349689
    23  C   -0.101214
    24  C   -0.103756
    25  C    0.072598
    26  C    0.068524
    27  C   -0.359714
    28  C   -0.359353
    29  C   -0.114349
    30  C   -0.077722
    31  C   -0.083709
    32  C   -0.120176
    33  C   -0.127971
    34  C   -0.125304
    35  C    0.131878
    36  C    0.161538
    37  C   -0.373873
    38  C   -0.364259
    39  C   -0.140904
    40  C   -0.138518
    41  C   -0.087750
    42  C   -0.074731
    43  H    0.108809
    44  H    0.046275
    45  H    0.091554
    46  H    0.072435
    47  H    0.088642
    48  H    0.075848
    49  H    0.126036
    50  H    0.106449
    51  H    0.120452
    52  H    0.109833
    53  H    0.108424
    54  H    0.097991
    55  H    0.076266
    56  H    0.108265
    57  H    0.086480
    58  H    0.106381
    59  H    0.105611
    60  H    0.115823
    61  H    0.074692
    62  H    0.111656
    63  H    0.082571
    64  H    0.084590
    65  H    0.078793
    66  H    0.105529
    67  H    0.113284
    68  H    0.121848
    69  H    0.094556
    70  H    0.122649
    71  H    0.112189
    72  H    0.100677
    73  H    0.304024
    74  H    0.286693
    75  H    0.077981
    76  H    0.109919
    77  H    0.115948
    78  H    0.114391
    79  H    0.114896
    80  H    0.119465
    81  H    0.138377
    82  H    0.110119
    83  H    0.076163
    84  H    0.072561
    85  H    0.076658
    86  H    0.087419
    87  H    0.085558
    88  H    0.086195
    89  H    0.139532
    90  H    0.085709
    91  H    0.114678
    92  H    0.131923
    93  H    0.095422
    94  H    0.097185
    95  H    0.084683
    96  H    0.071775
    97  H    0.091119
    98  H    0.064701
 Sum of Mulliken charges =  -0.00000

 Dipole moment (field-independent basis, Debye):
    X=             -0.8650    Y=             -1.8693    Z=              0.2984  Tot=              2.0813
 Quadrupole moment (field-independent basis, Debye-Ang):
   XX=           -269.5010   YY=           -242.4092   ZZ=           -263.6790
   XY=              7.1870   XZ=             -7.4704   YZ=              2.1163

 Normal termination of Gaussian 16 at Fri Jul  5 08:26:19 2019.
