 Gaussian 16, Revision A.03,
 Gaussian 16:  ES64L-G16RevA.03 25-Dec-2016

 -------------------------------------
 # td=(NStates=1) CAM-B3LYP/6-31G(d,p)
 -------------------------------------

 --
 TD
 --
 Symbolic Z-matrix:
 Charge =  0 Multiplicity = 1

                         Standard orientation:
 ---------------------------------------------------------------------
 Center     Atomic      Atomic             Coordinates (Angstroms)
 Number     Number       Type             X           Y           Z
 ---------------------------------------------------------------------
      1          8           0       14.763970   -2.112910   -0.489566
      2          8           0      -14.721046    1.964979    0.753490
      3          6           0       11.469480   -1.145040    1.261573
      4          6           0      -12.303870   -0.876130    0.863682
      5          6           0       12.917978   -1.450259    1.072630
      6          6           0      -13.571464   -0.127500    0.802997
      7          6           0       13.340066   -1.956610   -0.338952
      8          6           0      -13.493037    1.419827    0.712570
      9          6           0       10.975047   -0.276460   -0.081302
     10          6           0      -11.370989   -0.329789   -0.188389
     11          6           0       12.961039   -0.883042   -1.362812
     12          6           0      -12.749056    1.657506   -0.688788
     13          6           0       11.606192   -0.149769   -1.219538
     14          6           0      -11.556400    0.821164   -0.797936
     15          6           0       11.348593   -0.281440    2.576432
     16          6           0       10.615729   -2.343198    1.390529
     17          6           0      -11.695319   -0.736381    2.266336
     18          6           0      -12.571122   -2.399751    0.625751
     19          6           0        9.611066    0.290744    0.225327
     20          6           0      -10.121575   -1.076572   -0.531358
     21          6           0       11.094781    0.453900   -2.502417
     22          6           0      -10.651696    1.450226   -1.898371
     23          6           0        9.355387    1.548281   -0.106299
     24          6           0       -8.849791   -0.680851   -0.394653
     25          6           0        8.047711    2.244402    0.158799
     26          6           0       -7.639965   -1.337817   -0.622478
     27          6           0        8.064929    3.710451    0.637073
     28          6           0       -7.727245   -2.782417   -1.148181
     29          6           0        6.847954    1.488027   -0.080985
     30          6           0       -6.458825   -0.695346   -0.359378
     31          6           0        5.546023    2.037163    0.091691
     32          6           0       -5.050459   -1.178396   -0.455120
     33          6           0        4.429140    1.182254   -0.024089
     34          6           0       -3.993433   -0.435283   -0.237419
     35          6           0        3.058397    1.706258    0.092878
     36          6           0       -2.593579   -0.783227   -0.216610
     37          6           0        2.827834    3.075316    0.389273
     38          6           0       -2.381967   -2.156644   -0.523464
     39          6           0        2.120466    0.792728   -0.063142
     40          6           0       -1.634898    0.162003   -0.062787
     41          6           0        0.613336    0.962576    0.044567
     42          6           0       -0.230279   -0.067567   -0.336175
     43          1           0       13.399078   -0.448173    1.142938
     44          1           0       13.175745   -2.259700    1.823090
     45          1           0      -14.160427   -0.472430    1.680714
     46          1           0      -14.156704   -0.461171   -0.152312
     47          1           0       12.764866   -2.852881   -0.698712
     48          1           0      -12.963606    1.939553    1.506022
     49          1           0       13.960152   -0.271997   -1.123042
     50          1           0       12.993925   -1.260082   -2.261429
     51          1           0      -13.699690    1.430907   -1.324625
     52          1           0      -12.476887    2.752216   -0.762500
     53          1           0       11.826925   -0.701258    3.412933
     54          1           0       10.299255    0.051897    2.744488
     55          1           0       11.951014    0.648904    2.283342
     56          1           0       10.832652   -3.056281    0.562345
     57          1           0       10.767572   -2.979879    2.268183
     58          1           0        9.574150   -2.189338    1.267869
     59          1           0      -11.322359    0.308903    2.591115
     60          1           0      -10.753832   -1.231269    2.233211
     61          1           0      -12.196302   -1.480720    3.000409
     62          1           0      -12.957285   -2.905402    1.498270
     63          1           0      -11.667770   -2.849698    0.770930
     64          1           0      -12.708429   -2.500591   -0.534200
     65          1           0        8.803997   -0.304531    1.098321
     66          1           0       -9.986433   -2.203289   -0.767392
     67          1           0        9.988024    0.658332   -2.350075
     68          1           0       11.697572    1.322282   -2.990101
     69          1           0       10.850052   -0.213254   -3.366883
     70          1           0      -11.247467    1.898694   -2.546652
     71          1           0      -10.041058    0.731251   -2.508531
     72          1           0       -9.875855    2.107263   -1.342370
     73          1           0       14.900616   -2.686948    0.340521
     74          1           0      -15.174693    1.574900    1.458592
     75          1           0       10.321916    2.113336   -0.351232
     76          1           0       -8.668790    0.540534   -0.306259
     77          1           0        8.385865    4.331089   -0.242304
     78          1           0        7.095121    4.137301    0.935076
     79          1           0        8.591379    3.853758    1.613094
     80          1           0       -8.282582   -3.223226   -0.234772
     81          1           0       -8.462301   -2.791080   -1.971058
     82          1           0       -6.669297   -3.128224   -1.393193
     83          1           0        6.953710    0.618204   -0.613412
     84          1           0       -6.468692    0.249208    0.077487
     85          1           0        5.558370    3.146009    0.154176
     86          1           0       -4.961536   -2.138868   -0.810983
     87          1           0        4.719444    0.157955   -0.322638
     88          1           0       -4.169648    0.808843    0.221232
     89          1           0        3.156655    3.317845    1.340783
     90          1           0        1.714980    3.429879    0.253298
     91          1           0        3.242641    3.860751   -0.389119
     92          1           0       -2.948263   -2.672901    0.153622
     93          1           0       -2.505856   -2.369060   -1.660848
     94          1           0       -1.326970   -2.453256   -0.399463
     95          1           0        2.436815   -0.208084   -0.455693
     96          1           0       -1.957529    1.338482   -0.034321
     97          1           0        0.128649    1.893745    0.623354
     98          1           0        0.138643   -0.845033   -1.081493
 ---------------------------------------------------------------------

 SCF Done:  E(RCAM-B3LYP) =  -1706.95681502     A.U. after   14 cycles

 Excitation energies and oscillator strengths:

 Excited State   1:      Singlet-A      2.9491 eV  420.41 nm  f=3.4340  <S**2>=0.000
     155 ->158         0.20126
     156 ->157         0.66778
 This state for optimization and/or second-order correction.
 Total Energy, E(TD-HF/TD-DFT) =  -1706.84843591
 Copying the excited state density for this state as the 1-particle RhoCI density.

 The electronic state is 1-A.
 Alpha  occ. eigenvalues --  -19.22412 -19.20424 -10.30479 -10.29622 -10.28431
 Alpha  occ. eigenvalues --  -10.28227 -10.27988 -10.27707 -10.27449 -10.27176
 Alpha  occ. eigenvalues --  -10.27086 -10.27032 -10.26963 -10.26869 -10.26827
 Alpha  occ. eigenvalues --  -10.26820 -10.26696 -10.26685 -10.26657 -10.26390
 Alpha  occ. eigenvalues --  -10.26378 -10.26265 -10.26248 -10.26226 -10.26224
 Alpha  occ. eigenvalues --  -10.26220 -10.26067 -10.25989 -10.25895 -10.25739
 Alpha  occ. eigenvalues --  -10.25677 -10.25647 -10.25529 -10.25451 -10.25069
 Alpha  occ. eigenvalues --  -10.25021 -10.24886 -10.24827 -10.24566 -10.24449
 Alpha  occ. eigenvalues --  -10.24103 -10.24086  -1.12529  -1.09112  -0.94096
 Alpha  occ. eigenvalues --   -0.93195  -0.92572  -0.91851  -0.90770  -0.89413
 Alpha  occ. eigenvalues --   -0.87550  -0.87366  -0.86720  -0.85148  -0.84272
 Alpha  occ. eigenvalues --   -0.82531  -0.82023  -0.79880  -0.79380  -0.78218
 Alpha  occ. eigenvalues --   -0.76977  -0.76456  -0.76248  -0.76080  -0.75831
 Alpha  occ. eigenvalues --   -0.75499  -0.75446  -0.74886  -0.73755  -0.70042
 Alpha  occ. eigenvalues --   -0.68508  -0.67266  -0.65384  -0.64507  -0.64191
 Alpha  occ. eigenvalues --   -0.63354  -0.61675  -0.60801  -0.60115  -0.59581
 Alpha  occ. eigenvalues --   -0.58610  -0.58270  -0.57959  -0.57201  -0.56007
 Alpha  occ. eigenvalues --   -0.55636  -0.55517  -0.54366  -0.54141  -0.53317
 Alpha  occ. eigenvalues --   -0.52873  -0.52302  -0.52013  -0.51665  -0.51247
 Alpha  occ. eigenvalues --   -0.50811  -0.50608  -0.50495  -0.50305  -0.49290
 Alpha  occ. eigenvalues --   -0.49147  -0.48784  -0.48666  -0.48547  -0.48235
 Alpha  occ. eigenvalues --   -0.47864  -0.47686  -0.47021  -0.46925  -0.46768
 Alpha  occ. eigenvalues --   -0.46634  -0.45847  -0.44988  -0.44876  -0.44435
 Alpha  occ. eigenvalues --   -0.44281  -0.44169  -0.44007  -0.43834  -0.43287
 Alpha  occ. eigenvalues --   -0.42966  -0.42717  -0.42171  -0.42048  -0.41790
 Alpha  occ. eigenvalues --   -0.41704  -0.41582  -0.41070  -0.40933  -0.40757
 Alpha  occ. eigenvalues --   -0.40303  -0.39832  -0.39267  -0.39081  -0.38859
 Alpha  occ. eigenvalues --   -0.38523  -0.38189  -0.37954  -0.37801  -0.37784
 Alpha  occ. eigenvalues --   -0.37560  -0.37303  -0.36604  -0.36114  -0.35631
 Alpha  occ. eigenvalues --   -0.34484  -0.33694  -0.33157  -0.32603  -0.32157
 Alpha  occ. eigenvalues --   -0.31593  -0.29836  -0.28628  -0.26929  -0.23871
 Alpha  occ. eigenvalues --   -0.21347
 Alpha virt. eigenvalues --   -0.03540  -0.00401   0.02691   0.05502   0.07156
 Alpha virt. eigenvalues --    0.08903   0.10281   0.11343   0.11933   0.12132
 Alpha virt. eigenvalues --    0.12437   0.12528   0.12813   0.13409   0.13625

 Mulliken charges:
               1
     1  O   -0.544663
     2  O   -0.533791
     3  C    0.003577
     4  C    0.005439
     5  C   -0.189546
     6  C   -0.190990
     7  C    0.137128
     8  C    0.175673
     9  C    0.017837
    10  C    0.071467
    11  C   -0.216332
    12  C   -0.248510
    13  C    0.074432
    14  C    0.061012
    15  C   -0.296101
    16  C   -0.305988
    17  C   -0.319684
    18  C   -0.321915
    19  C   -0.107196
    20  C   -0.176318
    21  C   -0.383182
    22  C   -0.344350
    23  C   -0.124747
    24  C   -0.059909
    25  C    0.042566
    26  C    0.106269
    27  C   -0.371453
    28  C   -0.370618
    29  C   -0.109159
    30  C   -0.122937
    31  C   -0.086864
    32  C   -0.094269
    33  C   -0.138727
    34  C   -0.087617
    35  C    0.170722
    36  C    0.123060
    37  C   -0.388853
    38  C   -0.376332
    39  C   -0.150623
    40  C   -0.139480
    41  C   -0.093247
    42  C   -0.095532
    43  H    0.105159
    44  H    0.071790
    45  H    0.066889
    46  H    0.083840
    47  H    0.077893
    48  H    0.069479
    49  H    0.105307
    50  H    0.108861
    51  H    0.118346
    52  H    0.101595
    53  H    0.111548
    54  H    0.105291
    55  H    0.091664
    56  H    0.093264
    57  H    0.099215
    58  H    0.111373
    59  H    0.106285
    60  H    0.114062
    61  H    0.087688
    62  H    0.104147
    63  H    0.112669
    64  H    0.109136
    65  H    0.082207
    66  H    0.063256
    67  H    0.118290
    68  H    0.114193
    69  H    0.111838
    70  H    0.120456
    71  H    0.110997
    72  H    0.110304
    73  H    0.307769
    74  H    0.301178
    75  H    0.105654
    76  H    0.051057
    77  H    0.126183
    78  H    0.111297
    79  H    0.122865
    80  H    0.122629
    81  H    0.130171
    82  H    0.109709
    83  H    0.089653
    84  H    0.073846
    85  H    0.092487
    86  H    0.077755
    87  H    0.091873
    88  H    0.038350
    89  H    0.137248
    90  H    0.100617
    91  H    0.109974
    92  H    0.131817
    93  H    0.116343
    94  H    0.103417
    95  H    0.080560
    96  H    0.086309
    97  H    0.089014
    98  H    0.104935
 Sum of Mulliken charges =  -0.00000

 Dipole moment (field-independent basis, Debye):
    X=              0.8530    Y=             -1.2853    Z=              1.5252  Tot=              2.1694
 Quadrupole moment (field-independent basis, Debye-Ang):
   XX=           -301.1415   YY=           -246.1966   ZZ=           -257.3731
   XY=             15.5274   XZ=              4.3690   YZ=             -0.2708

 Normal termination of Gaussian 16 at Tue Jul  2 21:46:23 2019.
