 Gaussian 16, Revision A.03,
 Gaussian 16:  ES64L-G16RevA.03 25-Dec-2016

 -------------------------------------
 # td=(NStates=1) CAM-B3LYP/6-31G(d,p)
 -------------------------------------

 --
 TD
 --
 Symbolic Z-matrix:
 Charge =  0 Multiplicity = 1

                         Standard orientation:
 ---------------------------------------------------------------------
 Center     Atomic      Atomic             Coordinates (Angstroms)
 Number     Number       Type             X           Y           Z
 ---------------------------------------------------------------------
      1          8           0       14.825501   -2.129777   -0.466407
      2          8           0      -14.894438    1.847041    0.597346
      3          6           0       11.352930   -1.260909    1.056915
      4          6           0      -12.344842   -0.954981    0.760048
      5          6           0       12.936827   -1.469585    1.089326
      6          6           0      -13.741985   -0.226552    0.770611
      7          6           0       13.435006   -1.974959   -0.291777
      8          6           0      -13.709477    1.244558    0.598564
      9          6           0       10.969803   -0.350166   -0.096988
     10          6           0      -11.353272   -0.276724   -0.201705
     11          6           0       13.054926   -0.986896   -1.309531
     12          6           0      -12.897035    1.657893   -0.555474
     13          6           0       11.693462   -0.230067   -1.266964
     14          6           0      -11.653983    0.785543   -0.864935
     15          6           0       11.149077   -0.517651    2.426702
     16          6           0       10.552902   -2.577737    1.074273
     17          6           0      -11.642339   -0.905202    2.233393
     18          6           0      -12.578216   -2.479575    0.358520
     19          6           0        9.584095    0.259464    0.140106
     20          6           0      -10.108150   -1.011776   -0.458270
     21          6           0       11.310332    0.671626   -2.323105
     22          6           0      -10.709816    1.624878   -1.772465
     23          6           0        9.358487    1.572707   -0.014396
     24          6           0       -8.822155   -0.591675   -0.197255
     25          6           0        8.070682    2.315992    0.239713
     26          6           0       -7.628486   -1.287429   -0.481101
     27          6           0        8.166669    3.805790    0.586482
     28          6           0       -7.795480   -2.742053   -0.949381
     29          6           0        6.918878    1.642875    0.126203
     30          6           0       -6.430274   -0.675240   -0.285148
     31          6           0        5.595955    2.067380    0.238725
     32          6           0       -5.028588   -1.077939   -0.458220
     33          6           0        4.410367    1.326060    0.039522
     34          6           0       -3.984746   -0.370884   -0.288630
     35          6           0        3.004747    1.813099    0.021630
     36          6           0       -2.525489   -0.750964   -0.300875
     37          6           0        2.784393    3.163088    0.502209
     38          6           0       -2.317534   -2.186764   -0.790869
     39          6           0        2.104053    0.843628   -0.065183
     40          6           0       -1.496219    0.181549   -0.230863
     41          6           0        0.624780    1.062056   -0.038291
     42          6           0       -0.130298   -0.028258   -0.245629
     43          1           0       13.543136   -0.487558    1.306388
     44          1           0       13.227091   -2.211285    1.794734
     45          1           0      -14.335028   -0.488791    1.844828
     46          1           0      -14.299413   -0.764624    0.046375
     47          1           0       13.059460   -2.929241   -0.552471
     48          1           0      -13.191594    1.514321    1.522112
     49          1           0       13.919577   -0.373057   -1.621839
     50          1           0       12.978152   -1.419284   -2.240643
     51          1           0      -13.569449    1.590083   -1.500225
     52          1           0      -12.690980    2.676189   -0.498598
     53          1           0       11.870488   -1.063517    3.129665
     54          1           0       10.168853   -0.261636    2.675742
     55          1           0       11.589189    0.467631    2.277460
     56          1           0       10.499193   -3.034175    0.122588
     57          1           0       11.289926   -3.212728    1.717907
     58          1           0        9.604329   -2.402838    1.475313
     59          1           0      -11.445274    0.152145    2.436469
     60          1           0      -10.574884   -1.413062    2.192818
     61          1           0      -12.102633   -1.604603    2.892527
     62          1           0      -13.541120   -2.774561    1.018474
     63          1           0      -11.645324   -3.089294    0.638793
     64          1           0      -12.897447   -2.430912   -0.524825
     65          1           0        8.763271   -0.318834    0.797053
     66          1           0      -10.112961   -2.062486   -0.842559
     67          1           0       10.330440    0.893515   -2.000598
     68          1           0       11.847698    1.568866   -2.171422
     69          1           0       11.654408    0.317556   -3.288202
     70          1           0      -11.296329    1.641333   -2.758582
     71          1           0       -9.572162    1.044481   -1.858522
     72          1           0      -10.620500    2.711331   -1.382809
     73          1           0       15.104065   -2.790257    0.274899
     74          1           0      -15.073706    1.958669    1.597346
     75          1           0       10.277437    2.195722   -0.028633
     76          1           0       -8.648485    0.470709    0.087975
     77          1           0        8.889016    4.391069   -0.047592
     78          1           0        7.133721    4.063307    0.680500
     79          1           0        8.477916    4.143471    1.590757
     80          1           0       -8.476626   -3.452735   -0.213224
     81          1           0       -8.327793   -2.823227   -1.864053
     82          1           0       -6.829479   -3.197042   -0.889877
     83          1           0        6.857980    0.685839   -0.137623
     84          1           0       -6.549590    0.367072   -0.031002
     85          1           0        5.394214    3.184355    0.669268
     86          1           0       -4.746465   -2.123838   -0.351510
     87          1           0        4.485135    0.141154   -0.124581
     88          1           0       -4.077226    0.699398    0.105879
     89          1           0        3.521959    3.432469    1.458921
     90          1           0        1.871793    3.637652    0.600425
     91          1           0        3.065690    3.726256   -0.369983
     92          1           0       -2.729666   -2.875024   -0.096973
     93          1           0       -2.444906   -2.309596   -1.928950
     94          1           0       -1.328313   -2.259327   -0.639320
     95          1           0        2.387439   -0.243409   -0.185907
     96          1           0       -1.854906    1.143287    0.014960
     97          1           0        0.296263    2.064140    0.233360
     98          1           0        0.345989   -0.828387   -0.755841
 ---------------------------------------------------------------------

 SCF Done:  E(RCAM-B3LYP) =  -1706.96729970     A.U. after   14 cycles

 Excitation energies and oscillator strengths:

 Excited State   1:      Singlet-A      2.8908 eV  428.89 nm  f=3.5652  <S**2>=0.000
     155 ->158        -0.19095
     156 ->157         0.67265
 This state for optimization and/or second-order correction.
 Total Energy, E(TD-HF/TD-DFT) =  -1706.86106336
 Copying the excited state density for this state as the 1-particle RhoCI density.

 The electronic state is 1-A.
 Alpha  occ. eigenvalues --  -19.21946 -19.21478 -10.29257 -10.29153 -10.28197
 Alpha  occ. eigenvalues --  -10.27805 -10.27740 -10.27514 -10.27451 -10.27449
 Alpha  occ. eigenvalues --  -10.27337 -10.27230 -10.27182 -10.27037 -10.26999
 Alpha  occ. eigenvalues --  -10.26575 -10.26567 -10.26313 -10.26248 -10.26227
 Alpha  occ. eigenvalues --  -10.26181 -10.26060 -10.25996 -10.25922 -10.25891
 Alpha  occ. eigenvalues --  -10.25879 -10.25843 -10.25686 -10.25626 -10.25608
 Alpha  occ. eigenvalues --  -10.25328 -10.25297 -10.25118 -10.24868 -10.24861
 Alpha  occ. eigenvalues --  -10.24646 -10.24590 -10.24554 -10.24478 -10.24036
 Alpha  occ. eigenvalues --  -10.23723 -10.23295  -1.12593  -1.08992  -0.93084
 Alpha  occ. eigenvalues --   -0.92898  -0.92682  -0.91558  -0.90782  -0.90067
 Alpha  occ. eigenvalues --   -0.88023  -0.87279  -0.85507  -0.85367  -0.84723
 Alpha  occ. eigenvalues --   -0.83345  -0.82578  -0.80603  -0.79274  -0.78854
 Alpha  occ. eigenvalues --   -0.76835  -0.76757  -0.76544  -0.76025  -0.75938
 Alpha  occ. eigenvalues --   -0.75326  -0.75200  -0.74419  -0.74042  -0.70344
 Alpha  occ. eigenvalues --   -0.68462  -0.67003  -0.65491  -0.64781  -0.63580
 Alpha  occ. eigenvalues --   -0.63455  -0.62743  -0.61975  -0.60752  -0.60085
 Alpha  occ. eigenvalues --   -0.59670  -0.59331  -0.58191  -0.57913  -0.56483
 Alpha  occ. eigenvalues --   -0.55953  -0.55019  -0.54655  -0.54188  -0.53868
 Alpha  occ. eigenvalues --   -0.53182  -0.52882  -0.52392  -0.51630  -0.50966
 Alpha  occ. eigenvalues --   -0.50893  -0.50454  -0.49695  -0.49588  -0.49207
 Alpha  occ. eigenvalues --   -0.49043  -0.49022  -0.48752  -0.48238  -0.48143
 Alpha  occ. eigenvalues --   -0.47851  -0.47770  -0.47400  -0.47118  -0.46323
 Alpha  occ. eigenvalues --   -0.45952  -0.45902  -0.45531  -0.45355  -0.45329
 Alpha  occ. eigenvalues --   -0.44961  -0.44363  -0.44257  -0.43888  -0.43339
 Alpha  occ. eigenvalues --   -0.42898  -0.42575  -0.42533  -0.42310  -0.42172
 Alpha  occ. eigenvalues --   -0.41826  -0.41502  -0.41032  -0.40704  -0.40124
 Alpha  occ. eigenvalues --   -0.39988  -0.39741  -0.39717  -0.39450  -0.39198
 Alpha  occ. eigenvalues --   -0.39037  -0.39028  -0.38746  -0.38539  -0.37941
 Alpha  occ. eigenvalues --   -0.37640  -0.36462  -0.36387  -0.36145  -0.35960
 Alpha  occ. eigenvalues --   -0.35100  -0.34349  -0.33484  -0.32090  -0.31668
 Alpha  occ. eigenvalues --   -0.31472  -0.29693  -0.28067  -0.26459  -0.24138
 Alpha  occ. eigenvalues --   -0.21466
 Alpha virt. eigenvalues --   -0.04083  -0.00494   0.02666   0.06094   0.08449
 Alpha virt. eigenvalues --    0.09435   0.09750   0.10617   0.11236   0.11604
 Alpha virt. eigenvalues --    0.12282   0.12622   0.12943   0.13170   0.13756

 Mulliken charges:
               1
     1  O   -0.565665
     2  O   -0.530097
     3  C   -0.034914
     4  C   -0.028147
     5  C   -0.209390
     6  C   -0.174612
     7  C    0.176541
     8  C    0.172336
     9  C    0.032164
    10  C    0.075176
    11  C   -0.234834
    12  C   -0.217391
    13  C    0.067957
    14  C    0.049266
    15  C   -0.295760
    16  C   -0.280876
    17  C   -0.308788
    18  C   -0.295877
    19  C   -0.136303
    20  C   -0.159938
    21  C   -0.363130
    22  C   -0.337856
    23  C   -0.117317
    24  C   -0.094214
    25  C    0.076681
    26  C    0.148011
    27  C   -0.371635
    28  C   -0.373996
    29  C   -0.067769
    30  C   -0.157139
    31  C   -0.109867
    32  C   -0.079584
    33  C   -0.140205
    34  C   -0.080841
    35  C    0.133638
    36  C    0.031732
    37  C   -0.369245
    38  C   -0.367478
    39  C   -0.141620
    40  C   -0.103225
    41  C   -0.074974
    42  C   -0.075091
    43  H    0.098281
    44  H    0.076888
    45  H    0.042522
    46  H    0.098000
    47  H    0.081961
    48  H    0.059981
    49  H    0.118884
    50  H    0.109374
    51  H    0.097651
    52  H    0.112262
    53  H    0.092751
    54  H    0.102456
    55  H    0.105286
    56  H    0.113378
    57  H    0.083601
    58  H    0.112348
    59  H    0.107616
    60  H    0.087438
    61  H    0.106929
    62  H    0.080428
    63  H    0.103528
    64  H    0.120140
    65  H    0.088459
    66  H    0.087351
    67  H    0.130824
    68  H    0.125690
    69  H    0.104662
    70  H    0.107065
    71  H    0.092637
    72  H    0.107377
    73  H    0.300604
    74  H    0.315412
    75  H    0.095035
    76  H    0.077225
    77  H    0.118971
    78  H    0.113809
    79  H    0.118228
    80  H    0.086821
    81  H    0.135080
    82  H    0.114996
    83  H    0.071656
    84  H    0.076281
    85  H    0.061577
    86  H    0.081068
    87  H    0.075407
    88  H    0.058426
    89  H    0.111574
    90  H    0.114042
    91  H    0.132523
    92  H    0.121909
    93  H    0.125398
    94  H    0.110231
    95  H    0.083567
    96  H    0.079499
    97  H    0.093574
    98  H    0.105602
 Sum of Mulliken charges =  -0.00000

 Dipole moment (field-independent basis, Debye):
    X=              0.7994    Y=             -0.1423    Z=              2.3037  Tot=              2.4426
 Quadrupole moment (field-independent basis, Debye-Ang):
   XX=           -286.1697   YY=           -241.9367   ZZ=           -261.7073
   XY=             -2.3991   XZ=             -2.7858   YZ=              3.9788

 Normal termination of Gaussian 16 at Thu Jun 27 04:09:09 2019.
