 Gaussian 16, Revision A.03,
 Gaussian 16:  ES64L-G16RevA.03 25-Dec-2016

 -------------------------------------
 # td=(NStates=1) CAM-B3LYP/6-31G(d,p)
 -------------------------------------

 --
 TD
 --
 Symbolic Z-matrix:
 Charge =  0 Multiplicity = 1

                         Standard orientation:
 ---------------------------------------------------------------------
 Center     Atomic      Atomic             Coordinates (Angstroms)
 Number     Number       Type             X           Y           Z
 ---------------------------------------------------------------------
      1          8           0       14.663501   -2.318929   -0.592995
      2          8           0      -14.974336    1.782833    0.413560
      3          6           0       11.469205   -1.142632    1.208187
      4          6           0      -12.365885   -1.058504    0.778276
      5          6           0       12.921458   -1.519041    0.965355
      6          6           0      -13.757788   -0.319750    0.544590
      7          6           0       13.294616   -2.021591   -0.506651
      8          6           0      -13.606349    1.180286    0.522424
      9          6           0       10.996587   -0.387262   -0.180567
     10          6           0      -11.393704   -0.401383   -0.182760
     11          6           0       13.054413   -0.797171   -1.454297
     12          6           0      -12.911829    1.640466   -0.763718
     13          6           0       11.626895   -0.277399   -1.301596
     14          6           0      -11.584120    0.872815   -0.843190
     15          6           0       11.365805   -0.361187    2.402956
     16          6           0       10.666471   -2.539942    1.302880
     17          6           0      -11.793098   -0.925673    2.179460
     18          6           0      -12.521005   -2.514169    0.366292
     19          6           0        9.730335    0.236409    0.180500
     20          6           0      -10.094804   -1.044276   -0.341778
     21          6           0       11.040787    0.448513   -2.465050
     22          6           0      -10.675549    1.343863   -1.925639
     23          6           0        9.459052    1.541547   -0.017997
     24          6           0       -8.896468   -0.561272   -0.241740
     25          6           0        8.073476    2.248532    0.222354
     26          6           0       -7.537100   -1.178047   -0.493602
     27          6           0        8.073110    3.625874    0.593670
     28          6           0       -7.613746   -2.663909   -0.810665
     29          6           0        6.863147    1.573317   -0.126882
     30          6           0       -6.413327   -0.424343   -0.271636
     31          6           0        5.602033    2.154788    0.127018
     32          6           0       -5.026605   -0.918683   -0.463482
     33          6           0        4.492477    1.427944    0.031822
     34          6           0       -3.966328   -0.313397   -0.102521
     35          6           0        3.088036    1.838255    0.223883
     36          6           0       -2.585754   -0.641564   -0.191366
     37          6           0        2.993635    3.202041    0.672502
     38          6           0       -2.223323   -2.024958   -0.648993
     39          6           0        2.116357    0.890908    0.028485
     40          6           0       -1.640352    0.284025    0.126789
     41          6           0        0.685571    1.055396    0.092344
     42          6           0       -0.206133    0.090066    0.078001
     43          1           0       13.754740   -0.576036    0.999013
     44          1           0       13.292528   -2.241648    1.837368
     45          1           0      -14.358292   -0.587443    1.414749
     46          1           0      -14.254257   -0.769914   -0.445851
     47          1           0       12.610982   -2.951683   -0.751059
     48          1           0      -13.115788    1.396740    1.681292
     49          1           0       13.752072    0.042502   -1.526077
     50          1           0       13.059518   -1.274547   -2.641435
     51          1           0      -13.688369    1.497065   -1.404121
     52          1           0      -12.660647    2.603799   -0.529282
     53          1           0       11.905218   -0.849601    3.248909
     54          1           0       10.340710   -0.208059    2.738088
     55          1           0       11.849840    0.600826    2.395868
     56          1           0       11.025364   -3.089274    0.580837
     57          1           0       10.993198   -3.004850    2.301467
     58          1           0        9.520582   -2.102102    1.205766
     59          1           0      -11.683727    0.147523    2.468863
     60          1           0      -10.780641   -1.210136    2.105893
     61          1           0      -12.471445   -1.547320    2.956287
     62          1           0      -13.314337   -2.853264    1.115640
     63          1           0      -11.680914   -2.915866    0.655151
     64          1           0      -12.911833   -2.905817   -0.418164
     65          1           0        9.123201   -0.382875    0.828293
     66          1           0      -10.057350   -2.014258   -0.852036
     67          1           0        9.943819    0.656581   -2.258081
     68          1           0       11.376132    1.446384   -2.732027
     69          1           0       11.155211   -0.274579   -3.555328
     70          1           0      -11.377173    1.777729   -2.686421
     71          1           0      -10.052365    0.632705   -2.314888
     72          1           0      -10.029063    2.171117   -1.506312
     73          1           0       14.857482   -3.322326   -0.217736
     74          1           0      -15.516972    1.738144    1.187211
     75          1           0       10.204215    2.170996   -0.418098
     76          1           0       -8.636653    0.515347    0.081084
     77          1           0        8.856433    3.981941    0.061478
     78          1           0        7.123926    4.123042    0.522273
     79          1           0        8.300925    3.699396    1.853778
     80          1           0       -8.052177   -3.141270    0.057044
     81          1           0       -8.346848   -2.753135   -1.514043
     82          1           0       -6.758962   -3.143493   -1.002052
     83          1           0        6.823131    0.579741   -0.440830
     84          1           0       -6.582220    0.670358   -0.043047
     85          1           0        5.479014    3.123572    0.529906
     86          1           0       -4.954210   -1.972219   -0.567731
     87          1           0        4.542585    0.392288   -0.348090
     88          1           0       -4.210324    0.745060    0.162431
     89          1           0        3.369579    3.249055    1.792614
     90          1           0        1.945184    3.508135    0.656254
     91          1           0        3.292773    4.009547    0.018986
     92          1           0       -2.499984   -2.843785    0.068079
     93          1           0       -2.659860   -2.432761   -1.529418
     94          1           0       -1.055246   -2.043339   -0.879270
     95          1           0        2.518411   -0.056607   -0.113305
     96          1           0       -2.136722    1.244919    0.534277
     97          1           0        0.451556    2.100297    0.296935
     98          1           0        0.063548   -0.781195   -0.107591
 ---------------------------------------------------------------------

 SCF Done:  E(RCAM-B3LYP) =  -1706.93602804     A.U. after   14 cycles

 Excitation energies and oscillator strengths:

 Excited State   1:      Singlet-A      3.0236 eV  410.06 nm  f=3.5257  <S**2>=0.000
     155 ->158        -0.18047
     156 ->157         0.67537
 This state for optimization and/or second-order correction.
 Total Energy, E(TD-HF/TD-DFT) =  -1706.82491302
 Copying the excited state density for this state as the 1-particle RhoCI density.

 The electronic state is 1-A.
 Alpha  occ. eigenvalues --  -19.22430 -19.19852 -10.32350 -10.31777 -10.27915
 Alpha  occ. eigenvalues --  -10.27591 -10.27490 -10.27202 -10.27185 -10.27179
 Alpha  occ. eigenvalues --  -10.27086 -10.27065 -10.26824 -10.26721 -10.26718
 Alpha  occ. eigenvalues --  -10.26575 -10.26546 -10.26244 -10.26215 -10.26148
 Alpha  occ. eigenvalues --  -10.26126 -10.26075 -10.26021 -10.25939 -10.25915
 Alpha  occ. eigenvalues --  -10.25841 -10.25619 -10.25526 -10.25447 -10.25412
 Alpha  occ. eigenvalues --  -10.25258 -10.25211 -10.25121 -10.25072 -10.24997
 Alpha  occ. eigenvalues --  -10.24922 -10.24627 -10.24275 -10.24043 -10.23909
 Alpha  occ. eigenvalues --  -10.23835 -10.22322  -1.08256  -1.06609  -0.93471
 Alpha  occ. eigenvalues --   -0.93337  -0.92637  -0.91957  -0.90444  -0.89816
 Alpha  occ. eigenvalues --   -0.88125  -0.87628  -0.87331  -0.85718  -0.84874
 Alpha  occ. eigenvalues --   -0.83636  -0.82752  -0.80676  -0.79379  -0.78729
 Alpha  occ. eigenvalues --   -0.77707  -0.77428  -0.76980  -0.76126  -0.75986
 Alpha  occ. eigenvalues --   -0.75343  -0.74872  -0.74207  -0.73638  -0.70342
 Alpha  occ. eigenvalues --   -0.68284  -0.67112  -0.65219  -0.64893  -0.63919
 Alpha  occ. eigenvalues --   -0.63528  -0.62075  -0.61730  -0.61125  -0.60506
 Alpha  occ. eigenvalues --   -0.59215  -0.58246  -0.57917  -0.57784  -0.56755
 Alpha  occ. eigenvalues --   -0.55576  -0.55182  -0.54998  -0.54601  -0.53913
 Alpha  occ. eigenvalues --   -0.53689  -0.53397  -0.52901  -0.52236  -0.51899
 Alpha  occ. eigenvalues --   -0.51179  -0.50737  -0.50464  -0.50113  -0.49354
 Alpha  occ. eigenvalues --   -0.48995  -0.48743  -0.48317  -0.48092  -0.47832
 Alpha  occ. eigenvalues --   -0.47510  -0.47359  -0.47069  -0.46897  -0.46600
 Alpha  occ. eigenvalues --   -0.46377  -0.46005  -0.45306  -0.45081  -0.44911
 Alpha  occ. eigenvalues --   -0.44508  -0.44356  -0.44201  -0.43862  -0.43422
 Alpha  occ. eigenvalues --   -0.43150  -0.42903  -0.42845  -0.42740  -0.42547
 Alpha  occ. eigenvalues --   -0.41607  -0.41499  -0.41320  -0.41035  -0.40796
 Alpha  occ. eigenvalues --   -0.40433  -0.40270  -0.39855  -0.39719  -0.39138
 Alpha  occ. eigenvalues --   -0.38832  -0.38569  -0.38161  -0.38005  -0.37767
 Alpha  occ. eigenvalues --   -0.37693  -0.37637  -0.36118  -0.35752  -0.35622
 Alpha  occ. eigenvalues --   -0.35417  -0.34667  -0.32699  -0.31942  -0.31283
 Alpha  occ. eigenvalues --   -0.31243  -0.29509  -0.28129  -0.26530  -0.24400
 Alpha  occ. eigenvalues --   -0.21480
 Alpha virt. eigenvalues --   -0.03510   0.00258   0.03076   0.05546   0.07147
 Alpha virt. eigenvalues --    0.09246   0.09406   0.11028   0.11780   0.12203
 Alpha virt. eigenvalues --    0.12930   0.13307   0.13344   0.13724   0.14134

 Mulliken charges:
               1
     1  O   -0.554784
     2  O   -0.587248
     3  C   -0.006594
     4  C   -0.028872
     5  C   -0.180720
     6  C   -0.159106
     7  C    0.175989
     8  C    0.141280
     9  C    0.063468
    10  C    0.058359
    11  C   -0.204803
    12  C   -0.187810
    13  C    0.067355
    14  C    0.016448
    15  C   -0.290635
    16  C   -0.271444
    17  C   -0.298922
    18  C   -0.281078
    19  C   -0.108232
    20  C   -0.177449
    21  C   -0.360808
    22  C   -0.343330
    23  C   -0.118561
    24  C   -0.067619
    25  C    0.051989
    26  C    0.096987
    27  C   -0.339869
    28  C   -0.367219
    29  C   -0.097701
    30  C   -0.150716
    31  C   -0.063358
    32  C   -0.089250
    33  C   -0.130928
    34  C   -0.095572
    35  C    0.131646
    36  C    0.144585
    37  C   -0.395237
    38  C   -0.386140
    39  C   -0.130188
    40  C   -0.137374
    41  C   -0.065971
    42  C   -0.044788
    43  H    0.068596
    44  H    0.055068
    45  H    0.076272
    46  H    0.083651
    47  H    0.071256
    48  H    0.052925
    49  H    0.131288
    50  H    0.063020
    51  H    0.141973
    52  H    0.124603
    53  H    0.095176
    54  H    0.098189
    55  H    0.113616
    56  H    0.113774
    57  H    0.095989
    58  H    0.084409
    59  H    0.105383
    60  H    0.122353
    61  H    0.084349
    62  H    0.076623
    63  H    0.109627
    64  H    0.114593
    65  H    0.085670
    66  H    0.084176
    67  H    0.122107
    68  H    0.119470
    69  H    0.060004
    70  H    0.104113
    71  H    0.127637
    72  H    0.106568
    73  H    0.309626
    74  H    0.300013
    75  H    0.092280
    76  H    0.063959
    77  H    0.124427
    78  H    0.121232
    79  H    0.080724
    80  H    0.125916
    81  H    0.127380
    82  H    0.113188
    83  H    0.082732
    84  H    0.081166
    85  H    0.082318
    86  H    0.069700
    87  H    0.065937
    88  H    0.064527
    89  H    0.123444
    90  H    0.099838
    91  H    0.129744
    92  H    0.118670
    93  H    0.126448
    94  H    0.093903
    95  H    0.073446
    96  H    0.080514
    97  H    0.076569
    98  H    0.054038
 Sum of Mulliken charges =  -0.00000

 Dipole moment (field-independent basis, Debye):
    X=              0.6375    Y=             -1.3982    Z=              1.7850  Tot=              2.3553
 Quadrupole moment (field-independent basis, Debye-Ang):
   XX=           -279.2615   YY=           -239.4230   ZZ=           -262.4140
   XY=              6.3050   XZ=             -2.3621   YZ=              3.0674

 Normal termination of Gaussian 16 at Wed Jun 26 20:58:03 2019.
