 Gaussian 16, Revision A.03,
 Gaussian 16:  ES64L-G16RevA.03 25-Dec-2016

 -------------------------------------
 # td=(NStates=1) CAM-B3LYP/6-31G(d,p)
 -------------------------------------

 --
 TD
 --
 Symbolic Z-matrix:
 Charge =  0 Multiplicity = 1

                         Standard orientation:
 ---------------------------------------------------------------------
 Center     Atomic      Atomic             Coordinates (Angstroms)
 Number     Number       Type             X           Y           Z
 ---------------------------------------------------------------------
      1          8           0       14.813489   -2.011588   -0.428172
      2          8           0      -14.763643    1.963069    0.753074
      3          6           0       11.425396   -1.162690    1.202370
      4          6           0      -12.209815   -0.898280    0.816427
      5          6           0       12.973714   -1.298557    1.001602
      6          6           0      -13.655070   -0.221837    0.900888
      7          6           0       13.397724   -1.849813   -0.326150
      8          6           0      -13.546352    1.292506    0.746270
      9          6           0       10.803346   -0.413127   -0.044019
     10          6           0      -11.278769   -0.324081   -0.214338
     11          6           0       12.967852   -0.779352   -1.377467
     12          6           0      -12.822169    1.618252   -0.556624
     13          6           0       11.525226   -0.191632   -1.247701
     14          6           0      -11.595386    0.855182   -0.903335
     15          6           0       11.151347   -0.410543    2.529646
     16          6           0       10.706195   -2.503221    1.260804
     17          6           0      -11.676401   -0.888444    2.237758
     18          6           0      -12.376759   -2.478749    0.447750
     19          6           0        9.513926    0.249370    0.256468
     20          6           0      -10.046553   -1.032218   -0.489363
     21          6           0       10.890657    0.362865   -2.484228
     22          6           0      -10.734943    1.259305   -2.030745
     23          6           0        9.281590    1.515057   -0.171696
     24          6           0       -8.872244   -0.441131   -0.431031
     25          6           0        8.052697    2.280524    0.121637
     26          6           0       -7.550089   -1.219285   -0.577748
     27          6           0        8.185646    3.750901    0.164255
     28          6           0       -7.662081   -2.658476   -1.024546
     29          6           0        6.930791    1.553070    0.101968
     30          6           0       -6.373962   -0.563667   -0.264823
     31          6           0        5.628283    1.978354    0.183378
     32          6           0       -4.994429   -1.174107   -0.303422
     33          6           0        4.440444    1.179875    0.176457
     34          6           0       -4.030622   -0.226950   -0.115848
     35          6           0        3.119102    1.558613    0.339669
     36          6           0       -2.679165   -0.754693   -0.342234
     37          6           0        2.870504    3.080051    0.645696
     38          6           0       -2.308511   -2.119122   -0.896269
     39          6           0        2.013440    0.798742   -0.018684
     40          6           0       -1.637532    0.235782   -0.231681
     41          6           0        0.714488    1.053575    0.128916
     42          6           0       -0.169367    0.100655   -0.194397
     43          1           0       13.699240   -0.576926    1.219758
     44          1           0       13.080632   -2.081358    1.825944
     45          1           0      -14.116710   -0.452214    1.731362
     46          1           0      -14.413135   -0.663730    0.102331
     47          1           0       12.934519   -2.854320   -0.578447
     48          1           0      -12.729842    1.800126    1.455452
     49          1           0       13.757543   -0.049185   -1.164144
     50          1           0       13.043650   -1.171604   -2.522802
     51          1           0      -13.467242    1.533911   -1.309873
     52          1           0      -12.424888    2.730392   -0.541365
     53          1           0       11.703111   -0.961276    3.450457
     54          1           0       10.056493   -0.393584    2.779183
     55          1           0       11.605451    0.604211    2.445256
     56          1           0       10.658681   -3.097119    0.359511
     57          1           0       11.266248   -3.071704    1.889008
     58          1           0        9.606982   -2.580328    1.322815
     59          1           0      -11.308969    0.238262    2.588353
     60          1           0      -10.640955   -1.519406    2.176026
     61          1           0      -12.325886   -1.288966    2.996093
     62          1           0      -13.230039   -2.878285    1.151018
     63          1           0      -11.606855   -2.946836    0.226758
     64          1           0      -12.812817   -2.498070   -0.461255
     65          1           0        8.695149   -0.233992    0.870344
     66          1           0      -10.155130   -1.976135   -0.968667
     67          1           0        9.730409    0.445202   -2.304464
     68          1           0       11.008904    1.513274   -2.624495
     69          1           0       11.267705   -0.176655   -3.272573
     70          1           0      -11.385247    1.536986   -2.842489
     71          1           0       -9.944118    0.670625   -2.417446
     72          1           0      -10.366815    2.141249   -1.946080
     73          1           0       15.005415   -2.708344    0.286350
     74          1           0      -15.452371    1.825309    1.441470
     75          1           0       10.110984    2.064549   -0.644238
     76          1           0       -8.857837    0.721959   -0.146180
     77          1           0        8.547471    4.292141   -0.802623
     78          1           0        7.082744    4.148898    0.079036
     79          1           0        8.641929    4.112958    1.151165
     80          1           0       -8.273041   -3.415950   -0.343169
     81          1           0       -8.353349   -2.563469   -1.860374
     82          1           0       -6.757708   -3.402956   -1.225870
     83          1           0        6.998502    0.505393   -0.009033
     84          1           0       -6.509451    0.295769    0.126093
     85          1           0        5.487954    3.054983    0.340457
     86          1           0       -4.899458   -2.199443   -0.459116
     87          1           0        4.595437   -0.030533    0.169439
     88          1           0       -4.203354    0.629726    0.176510
     89          1           0        3.150312    3.209006    1.761018
     90          1           0        1.940851    3.367975    0.499261
     91          1           0        3.788731    3.726696    0.231419
     92          1           0       -2.874322   -2.962381   -0.329242
     93          1           0       -2.714949   -2.239701   -1.919848
     94          1           0       -1.216220   -2.252625   -0.913114
     95          1           0        2.224126   -0.402752   -0.261340
     96          1           0       -1.987157    1.142086    0.317550
     97          1           0        0.507307    2.009398    0.581057
     98          1           0        0.199731   -0.959290   -0.575103
 ---------------------------------------------------------------------

 SCF Done:  E(RCAM-B3LYP) =  -1706.90005497     A.U. after   15 cycles

 Excitation energies and oscillator strengths:

 Excited State   1:      Singlet-A      2.3653 eV  524.19 nm  f=3.5064  <S**2>=0.000
     155 ->158        -0.14460
     156 ->157         0.69079
 This state for optimization and/or second-order correction.
 Total Energy, E(TD-HF/TD-DFT) =  -1706.81313277
 Copying the excited state density for this state as the 1-particle RhoCI density.

 The electronic state is 1-A.
 Alpha  occ. eigenvalues --  -19.21701 -19.21349 -10.31468 -10.30506 -10.28666
 Alpha  occ. eigenvalues --  -10.28160 -10.28107 -10.27666 -10.27656 -10.27544
 Alpha  occ. eigenvalues --  -10.27484 -10.27403 -10.27168 -10.27126 -10.27096
 Alpha  occ. eigenvalues --  -10.26979 -10.26846 -10.26696 -10.26650 -10.26559
 Alpha  occ. eigenvalues --  -10.26414 -10.26394 -10.26186 -10.26160 -10.25971
 Alpha  occ. eigenvalues --  -10.25962 -10.25938 -10.25926 -10.25618 -10.25540
 Alpha  occ. eigenvalues --  -10.25514 -10.25172 -10.25117 -10.25064 -10.25039
 Alpha  occ. eigenvalues --  -10.24974 -10.24893 -10.24631 -10.24598 -10.23691
 Alpha  occ. eigenvalues --  -10.23002 -10.22506  -1.09500  -1.08763  -0.93207
 Alpha  occ. eigenvalues --   -0.92621  -0.92155  -0.91456  -0.90967  -0.89158
 Alpha  occ. eigenvalues --   -0.87483  -0.86965  -0.86149  -0.85479  -0.84478
 Alpha  occ. eigenvalues --   -0.83033  -0.81838  -0.80615  -0.79935  -0.77880
 Alpha  occ. eigenvalues --   -0.77636  -0.76806  -0.76491  -0.76304  -0.75927
 Alpha  occ. eigenvalues --   -0.75229  -0.74430  -0.74187  -0.73085  -0.70455
 Alpha  occ. eigenvalues --   -0.68806  -0.67445  -0.65809  -0.64392  -0.63969
 Alpha  occ. eigenvalues --   -0.63907  -0.63181  -0.62406  -0.61163  -0.59774
 Alpha  occ. eigenvalues --   -0.59602  -0.58615  -0.58398  -0.57802  -0.56314
 Alpha  occ. eigenvalues --   -0.55925  -0.55227  -0.54505  -0.54336  -0.54135
 Alpha  occ. eigenvalues --   -0.53415  -0.52559  -0.52022  -0.51472  -0.51332
 Alpha  occ. eigenvalues --   -0.50570  -0.50149  -0.49820  -0.49312  -0.48777
 Alpha  occ. eigenvalues --   -0.48660  -0.48429  -0.48008  -0.47944  -0.47596
 Alpha  occ. eigenvalues --   -0.47358  -0.47270  -0.46901  -0.46805  -0.46504
 Alpha  occ. eigenvalues --   -0.46346  -0.46022  -0.45794  -0.45588  -0.45289
 Alpha  occ. eigenvalues --   -0.44872  -0.44613  -0.44556  -0.43865  -0.43539
 Alpha  occ. eigenvalues --   -0.43015  -0.42614  -0.42599  -0.42215  -0.42133
 Alpha  occ. eigenvalues --   -0.41832  -0.41642  -0.40979  -0.40750  -0.40324
 Alpha  occ. eigenvalues --   -0.40195  -0.40116  -0.39437  -0.39150  -0.39025
 Alpha  occ. eigenvalues --   -0.38833  -0.38412  -0.38304  -0.37938  -0.37830
 Alpha  occ. eigenvalues --   -0.37512  -0.37093  -0.36698  -0.36533  -0.35251
 Alpha  occ. eigenvalues --   -0.34931  -0.33938  -0.33229  -0.32215  -0.31867
 Alpha  occ. eigenvalues --   -0.31534  -0.29147  -0.27045  -0.25652  -0.23824
 Alpha  occ. eigenvalues --   -0.19617
 Alpha virt. eigenvalues --   -0.05284  -0.00159   0.03184   0.05609   0.07791
 Alpha virt. eigenvalues --    0.09209   0.10922   0.11305   0.11782   0.11893
 Alpha virt. eigenvalues --    0.12271   0.12448   0.12645   0.12918   0.13150

 Mulliken charges:
               1
     1  O   -0.558034
     2  O   -0.576056
     3  C   -0.008228
     4  C   -0.025102
     5  C   -0.193003
     6  C   -0.184854
     7  C    0.154510
     8  C    0.204237
     9  C    0.042111
    10  C    0.032960
    11  C   -0.217670
    12  C   -0.215475
    13  C    0.046726
    14  C    0.062007
    15  C   -0.284015
    16  C   -0.308995
    17  C   -0.269123
    18  C   -0.302488
    19  C   -0.114062
    20  C   -0.122285
    21  C   -0.359272
    22  C   -0.366288
    23  C   -0.114208
    24  C   -0.106509
    25  C    0.079566
    26  C    0.091272
    27  C   -0.375844
    28  C   -0.378777
    29  C   -0.072676
    30  C   -0.113791
    31  C   -0.095303
    32  C   -0.078823
    33  C   -0.129927
    34  C   -0.028877
    35  C    0.097182
    36  C    0.089659
    37  C   -0.358080
    38  C   -0.367255
    39  C   -0.109939
    40  C   -0.154411
    41  C   -0.032057
    42  C   -0.107846
    43  H    0.117203
    44  H    0.064711
    45  H    0.089945
    46  H    0.076553
    47  H    0.075862
    48  H    0.059809
    49  H    0.122312
    50  H    0.080057
    51  H    0.123460
    52  H    0.087104
    53  H    0.073578
    54  H    0.105073
    55  H    0.109907
    56  H    0.105465
    57  H    0.103746
    58  H    0.108119
    59  H    0.071658
    60  H    0.083075
    61  H    0.106283
    62  H    0.084657
    63  H    0.104365
    64  H    0.108557
    65  H    0.091478
    66  H    0.094053
    67  H    0.120499
    68  H    0.101267
    69  H    0.110909
    70  H    0.099078
    71  H    0.128752
    72  H    0.119793
    73  H    0.308346
    74  H    0.315933
    75  H    0.094196
    76  H    0.092230
    77  H    0.120072
    78  H    0.093360
    79  H    0.127483
    80  H    0.106333
    81  H    0.124920
    82  H    0.103628
    83  H    0.081011
    84  H    0.064127
    85  H    0.067820
    86  H    0.092356
    87  H    0.065134
    88  H    0.067051
    89  H    0.109810
    90  H    0.111725
    91  H    0.105455
    92  H    0.106206
    93  H    0.131628
    94  H    0.118151
    95  H    0.055837
    96  H    0.070368
    97  H    0.092568
    98  H    0.075963
 Sum of Mulliken charges =  -0.00000

 Dipole moment (field-independent basis, Debye):
    X=             -2.6679    Y=             -1.4614    Z=              1.7185  Tot=              3.4938
 Quadrupole moment (field-independent basis, Debye-Ang):
   XX=           -262.8093   YY=           -243.5390   ZZ=           -262.4882
   XY=              6.7587   XZ=              6.9466   YZ=              1.9724

 Normal termination of Gaussian 16 at Sun Jul  7 18:07:20 2019.
