 Gaussian 16, Revision A.03,
 Gaussian 16:  ES64L-G16RevA.03 25-Dec-2016

 -------------------------------------
 # td=(NStates=1) CAM-B3LYP/6-31G(d,p)
 -------------------------------------

 --
 TD
 --
 Symbolic Z-matrix:
 Charge =  0 Multiplicity = 1

                         Standard orientation:
 ---------------------------------------------------------------------
 Center     Atomic      Atomic             Coordinates (Angstroms)
 Number     Number       Type             X           Y           Z
 ---------------------------------------------------------------------
      1          8           0       14.550464   -2.358086   -0.530796
      2          8           0      -14.749861    2.013868    0.527678
      3          6           0       11.491086   -1.057565    1.152256
      4          6           0      -12.313195   -0.929638    0.732214
      5          6           0       12.896957   -1.559145    1.011874
      6          6           0      -13.703288   -0.266433    0.632449
      7          6           0       13.137275   -2.077159   -0.383748
      8          6           0      -13.520265    1.293582    0.637766
      9          6           0       10.928510   -0.251162   -0.016651
     10          6           0      -11.233230   -0.360175   -0.209053
     11          6           0       12.824446   -1.070501   -1.467219
     12          6           0      -12.735422    1.678479   -0.567879
     13          6           0       11.511451   -0.299080   -1.198403
     14          6           0      -11.443737    0.911608   -0.737822
     15          6           0       11.352018   -0.176155    2.435042
     16          6           0       10.652992   -2.289359    1.505236
     17          6           0      -11.756580   -1.062186    2.128399
     18          6           0      -12.547668   -2.426212    0.174159
     19          6           0        9.604039    0.431257    0.269977
     20          6           0      -10.024693   -1.075366   -0.497167
     21          6           0       11.055699    0.284425   -2.413063
     22          6           0      -10.517680    1.498953   -1.780589
     23          6           0        9.295720    1.735086   -0.141121
     24          6           0       -8.808358   -0.556847   -0.210239
     25          6           0        8.014947    2.329031    0.058879
     26          6           0       -7.582428   -1.276617   -0.429150
     27          6           0        8.085188    3.773727    0.363819
     28          6           0       -7.686846   -2.594258   -0.986422
     29          6           0        6.817207    1.713114   -0.225715
     30          6           0       -6.407838   -0.653562   -0.145064
     31          6           0        5.520636    2.218720   -0.112412
     32          6           0       -5.067948   -1.143840   -0.309384
     33          6           0        4.387364    1.424408    0.009203
     34          6           0       -3.884887   -0.471520    0.024253
     35          6           0        3.104036    1.722955    0.113099
     36          6           0       -2.531474   -0.873636   -0.242818
     37          6           0        2.794646    3.162102    0.719766
     38          6           0       -2.206573   -2.168477   -0.624125
     39          6           0        2.124764    0.793829   -0.070874
     40          6           0       -1.620905    0.129108   -0.017422
     41          6           0        0.662676    1.017031    0.114169
     42          6           0       -0.128288    0.006828   -0.116721
     43          1           0       13.647662   -0.779444    1.065261
     44          1           0       13.068435   -2.348839    1.617537
     45          1           0      -14.234698   -0.743514    1.512237
     46          1           0      -14.290980   -0.559183   -0.282636
     47          1           0       12.879296   -3.029729   -0.642657
     48          1           0      -13.095135    1.563441    1.593281
     49          1           0       13.664010   -0.519037   -1.387389
     50          1           0       13.078439   -1.481322   -2.416633
     51          1           0      -13.281369    1.571523   -1.501777
     52          1           0      -12.586881    2.819346   -0.505316
     53          1           0       11.701601   -0.643822    3.417313
     54          1           0       10.383366    0.110389    2.916070
     55          1           0       12.161893    0.572810    2.282875
     56          1           0       10.982396   -3.397335    1.114507
     57          1           0       10.916643   -2.531171    2.763119
     58          1           0        9.571912   -2.183151    1.287905
     59          1           0      -11.303014   -0.093606    2.605226
     60          1           0      -10.848766   -1.751613    2.025643
     61          1           0      -12.550658   -1.585807    2.742474
     62          1           0      -13.413943   -2.919022    0.715591
     63          1           0      -11.684271   -2.955605    0.503893
     64          1           0      -12.795149   -2.518390   -0.938948
     65          1           0        9.022474   -0.023606    1.127182
     66          1           0      -10.354195   -1.977853   -0.708724
     67          1           0        9.911585    0.608159   -2.382137
     68          1           0       11.634627    1.177019   -2.773930
     69          1           0       11.017239   -0.454782   -3.251727
     70          1           0      -11.179692    1.957639   -2.487288
     71          1           0       -9.745160    0.944342   -2.222495
     72          1           0      -10.016100    2.453145   -1.360958
     73          1           0       14.756715   -2.968067    0.102619
     74          1           0      -15.309716    1.909911    1.358650
     75          1           0       10.175236    2.385909   -0.614687
     76          1           0       -8.870036    0.442256    0.280498
     77          1           0        8.573118    4.171922   -0.451139
     78          1           0        7.085310    4.350065    0.343352
     79          1           0        8.693963    4.061722    1.224359
     80          1           0       -7.886189   -3.241866   -0.076209
     81          1           0       -8.523443   -2.567616   -1.748784
     82          1           0       -6.788178   -3.097687   -1.593352
     83          1           0        6.984580    0.656196   -0.430214
     84          1           0       -6.527349    0.190310    0.317957
     85          1           0        5.346038    3.342880    0.166425
     86          1           0       -4.913122   -2.202263   -0.705743
     87          1           0        4.566487    0.365164   -0.312250
     88          1           0       -4.174595    0.491828    0.470168
     89          1           0        3.242048    3.226678    1.645679
     90          1           0        1.720132    3.347073    0.924435
     91          1           0        2.974383    3.789163   -0.145942
     92          1           0       -2.380964   -3.147088    0.014464
     93          1           0       -2.438222   -2.335048   -1.555656
     94          1           0       -1.187665   -2.462590   -0.842829
     95          1           0        2.521992   -0.156856   -0.401462
     96          1           0       -2.073144    1.075740    0.436998
     97          1           0        0.406061    1.876629    0.602384
     98          1           0        0.118042   -0.943714   -0.489269
 ---------------------------------------------------------------------

 SCF Done:  E(RCAM-B3LYP) =  -1707.00155527     A.U. after   14 cycles

 Excitation energies and oscillator strengths:

 Excited State   1:      Singlet-A      2.6292 eV  471.57 nm  f=3.7094  <S**2>=0.000
     155 ->158        -0.19727
     156 ->157         0.67284
 This state for optimization and/or second-order correction.
 Total Energy, E(TD-HF/TD-DFT) =  -1706.90493372
 Copying the excited state density for this state as the 1-particle RhoCI density.

 The electronic state is 1-A.
 Alpha  occ. eigenvalues --  -19.20727 -19.19338 -10.30157 -10.28622 -10.27645
 Alpha  occ. eigenvalues --  -10.27579 -10.27483 -10.27453 -10.27317 -10.27031
 Alpha  occ. eigenvalues --  -10.26708 -10.26669 -10.26592 -10.26319 -10.26310
 Alpha  occ. eigenvalues --  -10.26260 -10.26218 -10.26204 -10.26203 -10.26135
 Alpha  occ. eigenvalues --  -10.26081 -10.26025 -10.26018 -10.25914 -10.25899
 Alpha  occ. eigenvalues --  -10.25694 -10.25552 -10.25497 -10.25380 -10.25289
 Alpha  occ. eigenvalues --  -10.25274 -10.25153 -10.25146 -10.25025 -10.24881
 Alpha  occ. eigenvalues --  -10.24685 -10.24598 -10.24271 -10.24234 -10.24155
 Alpha  occ. eigenvalues --  -10.24041 -10.23638  -1.09944  -1.07873  -0.94092
 Alpha  occ. eigenvalues --   -0.93427  -0.92553  -0.92034  -0.91141  -0.90583
 Alpha  occ. eigenvalues --   -0.87804  -0.87479  -0.86507  -0.85760  -0.85087
 Alpha  occ. eigenvalues --   -0.83097  -0.82604  -0.80026  -0.79733  -0.78727
 Alpha  occ. eigenvalues --   -0.77148  -0.76919  -0.76605  -0.76003  -0.75417
 Alpha  occ. eigenvalues --   -0.75244  -0.74744  -0.74220  -0.73897  -0.70677
 Alpha  occ. eigenvalues --   -0.69204  -0.67747  -0.66343  -0.65275  -0.64414
 Alpha  occ. eigenvalues --   -0.63533  -0.63026  -0.62175  -0.61110  -0.59600
 Alpha  occ. eigenvalues --   -0.59137  -0.58778  -0.58387  -0.57900  -0.56330
 Alpha  occ. eigenvalues --   -0.55889  -0.55138  -0.54780  -0.54497  -0.54205
 Alpha  occ. eigenvalues --   -0.53029  -0.52728  -0.52174  -0.51577  -0.51381
 Alpha  occ. eigenvalues --   -0.51147  -0.51075  -0.50393  -0.50238  -0.49736
 Alpha  occ. eigenvalues --   -0.49394  -0.49223  -0.48846  -0.48543  -0.48397
 Alpha  occ. eigenvalues --   -0.48211  -0.47396  -0.47301  -0.46965  -0.46345
 Alpha  occ. eigenvalues --   -0.45932  -0.45620  -0.45422  -0.45081  -0.44925
 Alpha  occ. eigenvalues --   -0.44232  -0.43938  -0.43591  -0.43440  -0.43015
 Alpha  occ. eigenvalues --   -0.42745  -0.42615  -0.42343  -0.42151  -0.41905
 Alpha  occ. eigenvalues --   -0.41079  -0.41049  -0.41000  -0.40678  -0.40645
 Alpha  occ. eigenvalues --   -0.40188  -0.40023  -0.39866  -0.39602  -0.39397
 Alpha  occ. eigenvalues --   -0.38709  -0.38605  -0.38433  -0.38272  -0.37631
 Alpha  occ. eigenvalues --   -0.37320  -0.36986  -0.36568  -0.36391  -0.36173
 Alpha  occ. eigenvalues --   -0.35370  -0.34707  -0.33561  -0.32156  -0.31863
 Alpha  occ. eigenvalues --   -0.31026  -0.29971  -0.27597  -0.26277  -0.22996
 Alpha  occ. eigenvalues --   -0.20304
 Alpha virt. eigenvalues --   -0.04294  -0.00892   0.03009   0.05554   0.08361
 Alpha virt. eigenvalues --    0.09769   0.11253   0.12029   0.12145   0.12362
 Alpha virt. eigenvalues --    0.12609   0.13383   0.13571   0.13957   0.14215

 Mulliken charges:
               1
     1  O   -0.575172
     2  O   -0.576785
     3  C   -0.019200
     4  C   -0.025133
     5  C   -0.173006
     6  C   -0.185981
     7  C    0.136355
     8  C    0.177444
     9  C    0.084079
    10  C    0.030930
    11  C   -0.224939
    12  C   -0.223245
    13  C    0.078564
    14  C    0.042093
    15  C   -0.305563
    16  C   -0.288584
    17  C   -0.288049
    18  C   -0.323590
    19  C   -0.132664
    20  C   -0.110252
    21  C   -0.389007
    22  C   -0.355002
    23  C   -0.120105
    24  C   -0.099236
    25  C    0.082455
    26  C    0.126306
    27  C   -0.378871
    28  C   -0.374086
    29  C   -0.097780
    30  C   -0.099515
    31  C   -0.096277
    32  C   -0.100941
    33  C   -0.122007
    34  C   -0.127421
    35  C    0.111415
    36  C    0.158891
    37  C   -0.371650
    38  C   -0.405096
    39  C   -0.142630
    40  C   -0.152140
    41  C   -0.060228
    42  C   -0.061135
    43  H    0.108798
    44  H    0.091850
    45  H    0.073506
    46  H    0.099805
    47  H    0.092061
    48  H    0.083444
    49  H    0.135434
    50  H    0.112390
    51  H    0.128997
    52  H    0.102456
    53  H    0.082112
    54  H    0.111744
    55  H    0.098842
    56  H    0.078567
    57  H    0.058741
    58  H    0.109972
    59  H    0.099940
    60  H    0.102624
    61  H    0.094788
    62  H    0.087548
    63  H    0.106002
    64  H    0.107327
    65  H    0.101793
    66  H    0.084030
    67  H    0.101453
    68  H    0.114600
    69  H    0.109623
    70  H    0.104835
    71  H    0.125565
    72  H    0.091956
    73  H    0.289021
    74  H    0.303847
    75  H    0.100630
    76  H    0.100734
    77  H    0.130067
    78  H    0.097388
    79  H    0.120742
    80  H    0.123933
    81  H    0.115562
    82  H    0.100589
    83  H    0.079233
    84  H    0.057249
    85  H    0.081406
    86  H    0.070253
    87  H    0.067989
    88  H    0.079480
    89  H    0.136962
    90  H    0.095197
    91  H    0.132162
    92  H    0.116623
    93  H    0.141089
    94  H    0.109071
    95  H    0.075838
    96  H    0.078558
    97  H    0.088233
    98  H    0.084097
 Sum of Mulliken charges =  -0.00000

 Dipole moment (field-independent basis, Debye):
    X=             -0.4539    Y=             -1.5268    Z=              2.0768  Tot=              2.6173
 Quadrupole moment (field-independent basis, Debye-Ang):
   XX=           -271.5253   YY=           -245.6857   ZZ=           -257.5501
   XY=              9.4451   XZ=             -5.2216   YZ=              3.1613

 Normal termination of Gaussian 16 at Thu Jun 27 17:18:21 2019.
