 Gaussian 16, Revision A.03,
 Gaussian 16:  ES64L-G16RevA.03 25-Dec-2016

 -------------------------------------
 # td=(NStates=1) CAM-B3LYP/6-31G(d,p)
 -------------------------------------

 --
 TD
 --
 Symbolic Z-matrix:
 Charge =  0 Multiplicity = 1

                         Standard orientation:
 ---------------------------------------------------------------------
 Center     Atomic      Atomic             Coordinates (Angstroms)
 Number     Number       Type             X           Y           Z
 ---------------------------------------------------------------------
      1          8           0       14.779397   -2.075974   -0.198703
      2          8           0      -14.868341    1.977797    0.693145
      3          6           0       11.508289   -0.867110    1.266316
      4          6           0      -12.309916   -0.843754    0.796934
      5          6           0       13.023476   -1.034538    1.154303
      6          6           0      -13.671856   -0.123951    0.780404
      7          6           0       13.412870   -1.839620   -0.086613
      8          6           0      -13.547725    1.465046    0.681640
      9          6           0       10.922101   -0.319879   -0.017905
     10          6           0      -11.218729   -0.219584   -0.191241
     11          6           0       12.814792   -1.098098   -1.413843
     12          6           0      -12.778757    1.707890   -0.600321
     13          6           0       11.526549   -0.462757   -1.174532
     14          6           0      -11.528832    0.942960   -0.869363
     15          6           0       11.408298    0.141200    2.395005
     16          6           0       10.821311   -2.110018    1.639672
     17          6           0      -11.777592   -0.687329    2.231388
     18          6           0      -12.664035   -2.281518    0.450381
     19          6           0        9.667975    0.437338    0.169952
     20          6           0      -10.033481   -0.996472   -0.399743
     21          6           0       10.949039   -0.145680   -2.638168
     22          6           0      -10.613728    1.380602   -2.001704
     23          6           0        9.290075    1.677520   -0.390136
     24          6           0       -8.784474   -0.501657   -0.268752
     25          6           0        8.051102    2.273460   -0.118211
     26          6           0       -7.561781   -1.338765   -0.529142
     27          6           0        8.031604    3.711769   -0.104987
     28          6           0       -7.818292   -2.783369   -0.813916
     29          6           0        6.994745    1.500801   -0.075993
     30          6           0       -6.482576   -0.692994   -0.321369
     31          6           0        5.633912    1.981350   -0.004601
     32          6           0       -5.087964   -1.245748   -0.298400
     33          6           0        4.462698    1.149417    0.043001
     34          6           0       -3.976478   -0.459292   -0.187015
     35          6           0        3.141938    1.523569    0.314586
     36          6           0       -2.565982   -0.929635   -0.385271
     37          6           0        2.812598    3.021893    0.660341
     38          6           0       -2.439982   -2.297437   -0.767677
     39          6           0        2.063148    0.698064   -0.016899
     40          6           0       -1.591186   -0.024300   -0.190140
     41          6           0        0.674391    0.818786    0.054324
     42          6           0       -0.207502   -0.249587   -0.137555
     43          1           0       13.747562   -0.187899    0.874419
     44          1           0       13.551044   -1.394220    2.064329
     45          1           0      -14.111904   -0.305072    1.681957
     46          1           0      -14.451567   -0.294620    0.109694
     47          1           0       12.934872   -2.833773   -0.056783
     48          1           0      -12.987326    1.951474    1.510592
     49          1           0       13.628493   -0.440672   -1.511308
     50          1           0       12.969682   -1.815909   -2.150506
     51          1           0      -13.352329    1.682983   -1.446527
     52          1           0      -12.515034    2.740154   -0.682020
     53          1           0       11.896413   -0.136271    3.276980
     54          1           0       10.483057    0.511320    2.562622
     55          1           0       12.119882    1.055722    2.206915
     56          1           0       10.654510   -2.887928    0.897778
     57          1           0       11.311243   -2.402054    2.536668
     58          1           0        9.707952   -1.872452    1.945936
     59          1           0      -11.158010    0.283688    2.683005
     60          1           0      -10.932372   -1.218594    2.296996
     61          1           0      -12.489122   -1.046036    2.937594
     62          1           0      -13.335961   -2.538582    1.080269
     63          1           0      -11.796114   -3.066961    0.422135
     64          1           0      -13.118106   -2.128776   -0.496000
     65          1           0        8.849799   -0.003798    0.912260
     66          1           0      -10.240142   -2.014895   -0.570983
     67          1           0        9.817915    0.297225   -2.425315
     68          1           0       11.549535    0.776313   -3.064339
     69          1           0       10.906791   -1.053108   -3.349365
     70          1           0      -11.133491    1.840260   -2.924934
     71          1           0      -10.075441    0.558955   -2.447026
     72          1           0       -9.921500    2.129585   -1.477807
     73          1           0       15.206823   -2.573196    0.632858
     74          1           0      -15.185976    1.679323    1.559955
     75          1           0        9.918282    2.005356   -1.105481
     76          1           0       -8.514931    0.523154    0.448299
     77          1           0        8.867012    4.158695   -0.700204
     78          1           0        7.103819    4.206567   -0.057551
     79          1           0        8.373217    4.157759    0.931410
     80          1           0       -7.961772   -3.705753    0.149022
     81          1           0       -8.796637   -2.892086   -1.537816
     82          1           0       -6.807084   -3.040738   -1.352476
     83          1           0        7.189062    0.539190   -0.347288
     84          1           0       -6.631531    0.232919   -0.154905
     85          1           0        5.604231    2.930874    0.369035
     86          1           0       -5.062840   -2.339524   -0.594263
     87          1           0        4.517135    0.170984   -0.322733
     88          1           0       -4.225208    0.611580    0.001406
     89          1           0        3.051194    3.472853    1.511354
     90          1           0        1.610254    3.167386    0.569473
     91          1           0        2.925110    3.584756   -0.282717
     92          1           0       -2.859421   -3.127953   -0.046803
     93          1           0       -3.193900   -2.684427   -1.842766
     94          1           0       -1.378383   -2.645177   -0.605126
     95          1           0        2.209387   -0.558864   -0.440897
     96          1           0       -1.764109    0.894809    0.185528
     97          1           0        0.338851    1.691436    0.359651
     98          1           0        0.368365   -1.131997   -0.488244
 ---------------------------------------------------------------------

 SCF Done:  E(RCAM-B3LYP) =  -1706.84211292     A.U. after   15 cycles

 Excitation energies and oscillator strengths:

 Excited State   1:      Singlet-A      2.4806 eV  499.82 nm  f=3.3511  <S**2>=0.000
     155 ->158         0.12665
     156 ->157         0.69097
 This state for optimization and/or second-order correction.
 Total Energy, E(TD-HF/TD-DFT) =  -1706.75095371
 Copying the excited state density for this state as the 1-particle RhoCI density.

 The electronic state is 1-A.
 Alpha  occ. eigenvalues --  -19.21516 -19.21190 -10.30319 -10.29578 -10.29393
 Alpha  occ. eigenvalues --  -10.28488 -10.28473 -10.28409 -10.27695 -10.27688
 Alpha  occ. eigenvalues --  -10.27379 -10.27318 -10.27309 -10.26977 -10.26915
 Alpha  occ. eigenvalues --  -10.26837 -10.26763 -10.26597 -10.26431 -10.26315
 Alpha  occ. eigenvalues --  -10.26305 -10.26259 -10.26084 -10.25851 -10.25836
 Alpha  occ. eigenvalues --  -10.25792 -10.25714 -10.25707 -10.25325 -10.25270
 Alpha  occ. eigenvalues --  -10.24995 -10.24982 -10.24917 -10.24862 -10.24153
 Alpha  occ. eigenvalues --  -10.24116 -10.23917 -10.23876 -10.23830 -10.23700
 Alpha  occ. eigenvalues --  -10.23324 -10.23192  -1.09759  -1.08343  -0.94399
 Alpha  occ. eigenvalues --   -0.93041  -0.92922  -0.92523  -0.91473  -0.90356
 Alpha  occ. eigenvalues --   -0.87517  -0.87395  -0.87120  -0.85361  -0.84373
 Alpha  occ. eigenvalues --   -0.82789  -0.81613  -0.79627  -0.79497  -0.78422
 Alpha  occ. eigenvalues --   -0.77260  -0.77255  -0.76864  -0.76450  -0.76122
 Alpha  occ. eigenvalues --   -0.75938  -0.74330  -0.74222  -0.73655  -0.70952
 Alpha  occ. eigenvalues --   -0.68614  -0.67711  -0.66042  -0.65105  -0.64460
 Alpha  occ. eigenvalues --   -0.63737  -0.63555  -0.63062  -0.61190  -0.60279
 Alpha  occ. eigenvalues --   -0.59514  -0.58283  -0.57911  -0.57681  -0.56456
 Alpha  occ. eigenvalues --   -0.56070  -0.55873  -0.55133  -0.54831  -0.54565
 Alpha  occ. eigenvalues --   -0.54119  -0.53042  -0.52410  -0.51831  -0.51456
 Alpha  occ. eigenvalues --   -0.50812  -0.50708  -0.50399  -0.49641  -0.49363
 Alpha  occ. eigenvalues --   -0.48962  -0.48470  -0.48302  -0.47751  -0.47274
 Alpha  occ. eigenvalues --   -0.47189  -0.46996  -0.46376  -0.46323  -0.46045
 Alpha  occ. eigenvalues --   -0.46009  -0.45755  -0.45481  -0.45240  -0.44976
 Alpha  occ. eigenvalues --   -0.44779  -0.44475  -0.43900  -0.43859  -0.43373
 Alpha  occ. eigenvalues --   -0.43299  -0.43249  -0.43051  -0.42190  -0.41899
 Alpha  occ. eigenvalues --   -0.41854  -0.41526  -0.41135  -0.40809  -0.40599
 Alpha  occ. eigenvalues --   -0.40056  -0.39792  -0.39594  -0.39545  -0.39389
 Alpha  occ. eigenvalues --   -0.38876  -0.38671  -0.38563  -0.38157  -0.37782
 Alpha  occ. eigenvalues --   -0.37432  -0.37307  -0.36422  -0.36253  -0.35816
 Alpha  occ. eigenvalues --   -0.34632  -0.33269  -0.32973  -0.32228  -0.31207
 Alpha  occ. eigenvalues --   -0.30764  -0.29928  -0.28153  -0.26074  -0.24057
 Alpha  occ. eigenvalues --   -0.20461
 Alpha virt. eigenvalues --   -0.05499   0.00074   0.02499   0.05245   0.07247
 Alpha virt. eigenvalues --    0.09258   0.10147   0.10302   0.11063   0.11129
 Alpha virt. eigenvalues --    0.11560   0.12119   0.12522   0.12756   0.13497

 Mulliken charges:
               1
     1  O   -0.579377
     2  O   -0.555016
     3  C   -0.019071
     4  C   -0.025497
     5  C   -0.193628
     6  C   -0.207588
     7  C    0.151857
     8  C    0.153711
     9  C    0.092834
    10  C    0.034729
    11  C   -0.234940
    12  C   -0.224566
    13  C    0.042285
    14  C    0.048818
    15  C   -0.296263
    16  C   -0.284455
    17  C   -0.297811
    18  C   -0.287089
    19  C   -0.143991
    20  C   -0.150831
    21  C   -0.349067
    22  C   -0.349571
    23  C   -0.119219
    24  C   -0.098397
    25  C    0.149244
    26  C    0.137710
    27  C   -0.395998
    28  C   -0.337409
    29  C   -0.103990
    30  C   -0.084035
    31  C   -0.103523
    32  C   -0.097483
    33  C   -0.103928
    34  C   -0.119680
    35  C    0.085946
    36  C    0.159472
    37  C   -0.373837
    38  C   -0.381787
    39  C   -0.117712
    40  C   -0.101501
    41  C   -0.041587
    42  C   -0.095308
    43  H    0.096983
    44  H    0.070791
    45  H    0.076698
    46  H    0.109799
    47  H    0.060557
    48  H    0.081530
    49  H    0.131163
    50  H    0.121123
    51  H    0.124174
    52  H    0.105044
    53  H    0.101519
    54  H    0.107872
    55  H    0.086911
    56  H    0.115693
    57  H    0.105623
    58  H    0.085908
    59  H    0.074598
    60  H    0.116435
    61  H    0.095821
    62  H    0.108878
    63  H    0.083349
    64  H    0.116677
    65  H    0.084628
    66  H    0.092537
    67  H    0.088875
    68  H    0.106438
    69  H    0.115645
    70  H    0.090282
    71  H    0.128005
    72  H    0.111836
    73  H    0.314262
    74  H    0.309487
    75  H    0.093800
    76  H    0.077906
    77  H    0.123505
    78  H    0.122238
    79  H    0.102110
    80  H    0.085766
    81  H    0.105085
    82  H    0.097305
    83  H    0.083674
    84  H    0.052216
    85  H    0.078140
    86  H    0.073783
    87  H    0.084581
    88  H    0.084017
    89  H    0.135136
    90  H    0.077268
    91  H    0.135586
    92  H    0.117457
    93  H    0.084745
    94  H    0.108642
    95  H    0.035310
    96  H    0.086711
    97  H    0.069324
    98  H    0.084101
 Sum of Mulliken charges =  -0.00000

 Dipole moment (field-independent basis, Debye):
    X=              0.9766    Y=             -0.7579    Z=              2.3441  Tot=              2.6501
 Quadrupole moment (field-independent basis, Debye-Ang):
   XX=           -270.1324   YY=           -246.1524   ZZ=           -258.6563
   XY=             13.9699   XZ=              2.0785   YZ=              0.5550

 Normal termination of Gaussian 16 at Mon Jul  8 21:18:46 2019.
