 Gaussian 16, Revision A.03,
 Gaussian 16:  ES64L-G16RevA.03 25-Dec-2016

 -------------------------------------
 # td=(NStates=1) CAM-B3LYP/6-31G(d,p)
 -------------------------------------

 --
 TD
 --
 Symbolic Z-matrix:
 Charge =  0 Multiplicity = 1

                         Standard orientation:
 ---------------------------------------------------------------------
 Center     Atomic      Atomic             Coordinates (Angstroms)
 Number     Number       Type             X           Y           Z
 ---------------------------------------------------------------------
      1          8           0       14.699713   -2.294198   -0.309106
      2          8           0      -14.794496    2.002578    0.596312
      3          6           0       11.466829   -1.115177    1.250679
      4          6           0      -12.327622   -0.955081    0.874850
      5          6           0       12.946728   -1.387351    1.100434
      6          6           0      -13.680817   -0.198627    0.747006
      7          6           0       13.338030   -1.875690   -0.267429
      8          6           0      -13.508416    1.315387    0.780595
      9          6           0       10.923129   -0.387115   -0.047880
     10          6           0      -11.211711   -0.265548   -0.081213
     11          6           0       13.092026   -0.854361   -1.296470
     12          6           0      -12.728470    1.692510   -0.465320
     13          6           0       11.659541   -0.288932   -1.101347
     14          6           0      -11.534796    0.862395   -0.725252
     15          6           0       11.144148   -0.316721    2.463368
     16          6           0       10.551352   -2.414429    1.347484
     17          6           0      -11.762847   -1.041843    2.365804
     18          6           0      -12.552937   -2.471218    0.405493
     19          6           0        9.685643    0.289565    0.229968
     20          6           0      -10.102842   -1.044017   -0.374377
     21          6           0       11.297359    0.399980   -2.475418
     22          6           0      -10.611011    1.529688   -1.678952
     23          6           0        9.408715    1.627892   -0.078445
     24          6           0       -8.805078   -0.526776   -0.327444
     25          6           0        8.135871    2.278239    0.206953
     26          6           0       -7.601037   -1.302292   -0.575750
     27          6           0        8.219725    3.767924    0.378687
     28          6           0       -7.725107   -2.777281   -1.049166
     29          6           0        6.944539    1.623336   -0.047946
     30          6           0       -6.433447   -0.653463   -0.491644
     31          6           0        5.571139    2.008969    0.117976
     32          6           0       -5.080876   -1.130955   -0.552670
     33          6           0        4.466954    1.145669    0.085620
     34          6           0       -4.080117   -0.310769   -0.435101
     35          6           0        3.095313    1.616373    0.136676
     36          6           0       -2.667743   -0.613556   -0.604578
     37          6           0        2.858187    3.054278    0.545938
     38          6           0       -2.366087   -2.120766   -0.916635
     39          6           0        2.047646    0.734397   -0.059304
     40          6           0       -1.740046    0.366014   -0.330316
     41          6           0        0.638204    0.949908    0.093387
     42          6           0       -0.346018    0.041265   -0.267004
     43          1           0       13.379555   -0.509578    1.253465
     44          1           0       13.259839   -2.176528    1.817644
     45          1           0      -14.349200   -0.552221    1.348515
     46          1           0      -14.108255   -0.417387   -0.109799
     47          1           0       12.711478   -2.778985   -0.693466
     48          1           0      -13.126462    1.877854    1.765311
     49          1           0       14.027016    0.071618   -1.269327
     50          1           0       13.201047   -1.273612   -2.245361
     51          1           0      -13.320008    1.667990   -1.382995
     52          1           0      -12.533595    2.651051   -0.461123
     53          1           0       11.649446   -0.717415    3.412724
     54          1           0       10.040311   -0.501593    2.774744
     55          1           0       11.528513    0.733108    2.384136
     56          1           0       10.734871   -3.264211    0.573765
     57          1           0       10.688226   -2.973568    2.329138
     58          1           0        9.491477   -2.206704    1.244770
     59          1           0      -11.717256    0.009965    2.792365
     60          1           0      -10.837377   -1.464699    2.374860
     61          1           0      -12.499869   -1.616022    2.854509
     62          1           0      -13.295267   -2.832839    1.064115
     63          1           0      -11.708677   -3.310317    0.662012
     64          1           0      -12.961662   -2.438194   -0.707076
     65          1           0        8.749089   -0.062914    0.658425
     66          1           0      -10.279667   -2.195824   -0.579351
     67          1           0       10.161052    0.854986   -2.541412
     68          1           0       12.029047    1.370559   -2.770376
     69          1           0       11.132749   -0.388383   -3.312391
     70          1           0      -11.372205    2.107080   -2.320312
     71          1           0      -10.020722    0.656802   -2.293032
     72          1           0       -9.982216    2.152724   -1.240927
     73          1           0       14.767080   -2.917578    0.262645
     74          1           0      -15.156497    2.121683    1.586464
     75          1           0       10.155860    2.322750   -0.395743
     76          1           0       -8.898840    0.287534    0.067552
     77          1           0        8.809134    4.139705   -0.577983
     78          1           0        7.349299    4.388291    0.528612
     79          1           0        8.750029    4.106577    1.201086
     80          1           0       -7.628024   -3.387785   -0.117878
     81          1           0       -8.486812   -2.972970   -1.838388
     82          1           0       -6.675781   -3.043229   -1.636540
     83          1           0        7.004749    0.590673   -0.251428
     84          1           0       -6.550698    0.333735   -0.008088
     85          1           0        5.413888    2.988338    0.154724
     86          1           0       -4.936514   -2.127068   -0.682482
     87          1           0        4.680553    0.127899   -0.221145
     88          1           0       -4.157525    0.762940   -0.300970
     89          1           0        3.221548    3.269616    1.629557
     90          1           0        1.859710    3.174732    0.756221
     91          1           0        3.248010    3.737945   -0.244034
     92          1           0       -2.697821   -2.778036    0.084426
     93          1           0       -3.078355   -2.453553   -1.736232
     94          1           0       -1.391631   -2.267947   -1.276398
     95          1           0        2.288094   -0.358150   -0.122065
     96          1           0       -1.962013    1.472233    0.002539
     97          1           0        0.387790    1.701275    0.746431
     98          1           0        0.027438   -0.870320   -0.579606
 ---------------------------------------------------------------------

 SCF Done:  E(RCAM-B3LYP) =  -1706.94245373     A.U. after   14 cycles

 Excitation energies and oscillator strengths:

 Excited State   1:      Singlet-A      2.6020 eV  476.50 nm  f=3.6334  <S**2>=0.000
     155 ->158        -0.17267
     156 ->157         0.67889
 This state for optimization and/or second-order correction.
 Total Energy, E(TD-HF/TD-DFT) =  -1706.84683226
 Copying the excited state density for this state as the 1-particle RhoCI density.

 The electronic state is 1-A.
 Alpha  occ. eigenvalues --  -19.21372 -19.19778 -10.31512 -10.30391 -10.28128
 Alpha  occ. eigenvalues --  -10.28069 -10.27809 -10.27744 -10.27512 -10.27465
 Alpha  occ. eigenvalues --  -10.27460 -10.27420 -10.27410 -10.26979 -10.26913
 Alpha  occ. eigenvalues --  -10.26476 -10.26364 -10.26362 -10.26318 -10.26222
 Alpha  occ. eigenvalues --  -10.26078 -10.26060 -10.25955 -10.25691 -10.25675
 Alpha  occ. eigenvalues --  -10.25649 -10.25625 -10.25580 -10.25567 -10.25387
 Alpha  occ. eigenvalues --  -10.25350 -10.25329 -10.25191 -10.25018 -10.24694
 Alpha  occ. eigenvalues --  -10.24514 -10.24397 -10.24324 -10.24008 -10.23887
 Alpha  occ. eigenvalues --  -10.23581 -10.22829  -1.11883  -1.06624  -0.94281
 Alpha  occ. eigenvalues --   -0.93279  -0.91969  -0.91229  -0.90320  -0.89546
 Alpha  occ. eigenvalues --   -0.87451  -0.86950  -0.86642  -0.85902  -0.85144
 Alpha  occ. eigenvalues --   -0.83495  -0.81890  -0.79965  -0.79766  -0.77701
 Alpha  occ. eigenvalues --   -0.76949  -0.76700  -0.76179  -0.76024  -0.75468
 Alpha  occ. eigenvalues --   -0.75268  -0.74946  -0.74480  -0.73605  -0.70658
 Alpha  occ. eigenvalues --   -0.68808  -0.67202  -0.65846  -0.65269  -0.64406
 Alpha  occ. eigenvalues --   -0.63509  -0.63045  -0.62622  -0.61024  -0.60779
 Alpha  occ. eigenvalues --   -0.60038  -0.58899  -0.58206  -0.57252  -0.56508
 Alpha  occ. eigenvalues --   -0.56068  -0.55568  -0.54627  -0.54069  -0.53480
 Alpha  occ. eigenvalues --   -0.52947  -0.52767  -0.52197  -0.51896  -0.50533
 Alpha  occ. eigenvalues --   -0.50359  -0.50119  -0.49634  -0.49519  -0.49419
 Alpha  occ. eigenvalues --   -0.48954  -0.48701  -0.48506  -0.48325  -0.47948
 Alpha  occ. eigenvalues --   -0.47607  -0.47257  -0.46919  -0.46420  -0.46107
 Alpha  occ. eigenvalues --   -0.45613  -0.45510  -0.45346  -0.44865  -0.44803
 Alpha  occ. eigenvalues --   -0.44466  -0.43904  -0.43728  -0.43438  -0.43339
 Alpha  occ. eigenvalues --   -0.43148  -0.42947  -0.42864  -0.42561  -0.42108
 Alpha  occ. eigenvalues --   -0.41916  -0.41606  -0.41364  -0.41266  -0.41003
 Alpha  occ. eigenvalues --   -0.40807  -0.40688  -0.39899  -0.39803  -0.39050
 Alpha  occ. eigenvalues --   -0.39044  -0.38478  -0.38306  -0.38251  -0.37801
 Alpha  occ. eigenvalues --   -0.37752  -0.37255  -0.36892  -0.36578  -0.35747
 Alpha  occ. eigenvalues --   -0.35329  -0.34073  -0.33237  -0.32448  -0.32047
 Alpha  occ. eigenvalues --   -0.31709  -0.30008  -0.28736  -0.26184  -0.23435
 Alpha  occ. eigenvalues --   -0.20410
 Alpha virt. eigenvalues --   -0.04490  -0.00565   0.02582   0.05520   0.08305
 Alpha virt. eigenvalues --    0.09652   0.09882   0.11071   0.12234   0.12687
 Alpha virt. eigenvalues --    0.12745   0.13308   0.13525   0.13873   0.14326

 Mulliken charges:
               1
     1  O   -0.531850
     2  O   -0.572631
     3  C    0.005219
     4  C   -0.033995
     5  C   -0.173939
     6  C   -0.144081
     7  C    0.157524
     8  C    0.131016
     9  C    0.102394
    10  C    0.052003
    11  C   -0.185174
    12  C   -0.207268
    13  C    0.021828
    14  C    0.050024
    15  C   -0.303143
    16  C   -0.323238
    17  C   -0.296925
    18  C   -0.312615
    19  C   -0.132213
    20  C   -0.157681
    21  C   -0.349262
    22  C   -0.349280
    23  C   -0.092346
    24  C   -0.049243
    25  C    0.069364
    26  C    0.095553
    27  C   -0.379359
    28  C   -0.368415
    29  C   -0.110591
    30  C   -0.126952
    31  C   -0.066141
    32  C   -0.073805
    33  C   -0.115043
    34  C   -0.083712
    35  C    0.097040
    36  C    0.088890
    37  C   -0.363086
    38  C   -0.356779
    39  C   -0.139361
    40  C   -0.131961
    41  C   -0.101007
    42  C   -0.074286
    43  H    0.113853
    44  H    0.078981
    45  H    0.082136
    46  H    0.112547
    47  H    0.065549
    48  H    0.067647
    49  H    0.068511
    50  H    0.121208
    51  H    0.125260
    52  H    0.117389
    53  H    0.089315
    54  H    0.103568
    55  H    0.108071
    56  H    0.090182
    57  H    0.089699
    58  H    0.114739
    59  H    0.089415
    60  H    0.119308
    61  H    0.099408
    62  H    0.105046
    63  H    0.087301
    64  H    0.097427
    65  H    0.096197
    66  H    0.085370
    67  H    0.091345
    68  H    0.096325
    69  H    0.109507
    70  H    0.080881
    71  H    0.104391
    72  H    0.134169
    73  H    0.280369
    74  H    0.301580
    75  H    0.086632
    76  H    0.048833
    77  H    0.104736
    78  H    0.114373
    79  H    0.128073
    80  H    0.131697
    81  H    0.129498
    82  H    0.082036
    83  H    0.070295
    84  H    0.075850
    85  H    0.069711
    86  H    0.078429
    87  H    0.081983
    88  H    0.077382
    89  H    0.110863
    90  H    0.112532
    91  H    0.123809
    92  H    0.106390
    93  H    0.116520
    94  H    0.119240
    95  H    0.080612
    96  H    0.091625
    97  H    0.087996
    98  H    0.078717
 Sum of Mulliken charges =  -0.00000

 Dipole moment (field-independent basis, Debye):
    X=             -1.0275    Y=             -0.7420    Z=              2.8868  Tot=              3.1528
 Quadrupole moment (field-independent basis, Debye-Ang):
   XX=           -286.3684   YY=           -241.7007   ZZ=           -259.0566
   XY=              7.8943   XZ=             -7.4934   YZ=              3.8880

 Normal termination of Gaussian 16 at Sat Jun 29 05:34:13 2019.
