 Gaussian 16, Revision A.03,
 Gaussian 16:  ES64L-G16RevA.03 25-Dec-2016

 -------------------------------------
 # td=(NStates=1) CAM-B3LYP/6-31G(d,p)
 -------------------------------------

 --
 TD
 --
 Symbolic Z-matrix:
 Charge =  0 Multiplicity = 1

                         Standard orientation:
 ---------------------------------------------------------------------
 Center     Atomic      Atomic             Coordinates (Angstroms)
 Number     Number       Type             X           Y           Z
 ---------------------------------------------------------------------
      1          8           0       14.960540   -2.000004   -0.348709
      2          8           0      -14.787193    2.032152    0.502345
      3          6           0       11.514199   -0.878190    1.299663
      4          6           0      -12.340541   -0.791489    0.793960
      5          6           0       13.080359   -1.196982    1.086231
      6          6           0      -13.749538   -0.069619    0.775964
      7          6           0       13.464912   -1.818900   -0.244741
      8          6           0      -13.548839    1.392308    0.718557
      9          6           0       10.918500   -0.265365   -0.010888
     10          6           0      -11.382212   -0.190110   -0.168055
     11          6           0       13.079392   -0.815694   -1.297563
     12          6           0      -12.723918    1.800596   -0.560779
     13          6           0       11.636236   -0.382705   -1.224256
     14          6           0      -11.504588    0.962002   -0.788961
     15          6           0       11.294471    0.021294    2.452593
     16          6           0       10.878103   -2.313200    1.545152
     17          6           0      -11.868896   -0.829365    2.271923
     18          6           0      -12.586678   -2.315351    0.516273
     19          6           0        9.570483    0.312704    0.103181
     20          6           0      -10.160188   -1.043865   -0.408087
     21          6           0       11.083789    0.147414   -2.551429
     22          6           0      -10.567851    1.490949   -1.863252
     23          6           0        9.293535    1.585974   -0.136045
     24          6           0       -8.821838   -0.620658   -0.204627
     25          6           0        7.943597    2.324535    0.076822
     26          6           0       -7.583477   -1.392354   -0.438285
     27          6           0        7.955578    3.683241    0.500263
     28          6           0       -7.759127   -2.830129   -0.917528
     29          6           0        6.803452    1.408392   -0.123096
     30          6           0       -6.430693   -0.715312   -0.235379
     31          6           0        5.520150    1.978441    0.018845
     32          6           0       -5.107409   -1.248433   -0.387785
     33          6           0        4.479572    1.161639   -0.090206
     34          6           0       -3.966319   -0.443964   -0.287349
     35          6           0        3.044756    1.558077    0.052771
     36          6           0       -2.638096   -0.788158   -0.391521
     37          6           0        2.791240    2.931259    0.526950
     38          6           0       -2.361515   -2.292189   -0.789862
     39          6           0        2.184288    0.593042   -0.131724
     40          6           0       -1.634427    0.103031   -0.171818
     41          6           0        0.687797    0.764604   -0.179947
     42          6           0       -0.306893   -0.158601   -0.191221
     43          1           0       13.711358   -0.109687    1.074220
     44          1           0       13.471661   -1.750574    1.970529
     45          1           0      -14.292384   -0.503596    1.569184
     46          1           0      -14.225615   -0.432992   -0.212019
     47          1           0       13.052240   -2.875574   -0.640113
     48          1           0      -13.086728    1.979484    1.651303
     49          1           0       13.861615    0.122902   -1.282969
     50          1           0       13.268720   -1.122799   -2.295562
     51          1           0      -13.512373    1.595063   -1.308677
     52          1           0      -12.590796    2.979724   -0.675127
     53          1           0       11.580981   -0.482014    3.324654
     54          1           0       10.202277    0.178301    2.714069
     55          1           0       11.960929    1.000961    2.600831
     56          1           0       11.057195   -2.857301    0.765418
     57          1           0       11.520624   -2.909067    2.346475
     58          1           0        9.773972   -2.277556    2.024413
     59          1           0      -11.628079    0.071870    2.757555
     60          1           0      -10.688643   -1.325803    2.437953
     61          1           0      -12.417574   -1.557735    3.190521
     62          1           0      -13.522064   -2.676414    1.145937
     63          1           0      -11.727506   -2.788265    0.829137
     64          1           0      -12.784949   -2.599768   -0.481696
     65          1           0        8.754728   -0.536774    0.565558
     66          1           0      -10.168773   -2.110957   -0.624476
     67          1           0       10.098741    0.602384   -2.371274
     68          1           0       11.730664    0.859260   -2.918349
     69          1           0       10.870138   -0.700166   -3.473935
     70          1           0      -11.179127    1.960182   -2.671183
     71          1           0       -9.757951    0.767467   -2.090765
     72          1           0      -10.049164    2.471791   -1.413833
     73          1           0       14.982221   -2.593031    0.427387
     74          1           0      -15.462307    1.523066    1.088880
     75          1           0       10.023111    2.261091   -0.615250
     76          1           0       -8.762515    0.491381    0.101595
     77          1           0        8.749910    4.457188    0.101907
     78          1           0        7.025551    4.260165    0.398261
     79          1           0        8.269245    3.683782    1.488204
     80          1           0       -8.605355   -3.448181   -0.464510
     81          1           0       -7.970509   -2.878566   -1.975173
     82          1           0       -6.826051   -3.332872   -0.800152
     83          1           0        7.047196    0.371938   -0.570161
     84          1           0       -6.317044    0.192091    0.139763
     85          1           0        5.385320    3.019036    0.291694
     86          1           0       -5.067209   -2.229689   -0.782255
     87          1           0        4.327205    0.043323   -0.239086
     88          1           0       -4.346821    0.447528    0.194827
     89          1           0        3.324155    3.500001    1.372660
     90          1           0        1.775317    3.231065    0.746660
     91          1           0        2.901024    3.746471   -0.306533
     92          1           0       -2.871772   -3.233546   -0.415379
     93          1           0       -2.679734   -2.502998   -1.939303
     94          1           0       -1.337475   -2.528371   -0.888781
     95          1           0        2.336813   -0.489801   -0.316688
     96          1           0       -2.003152    1.164162    0.002178
     97          1           0        0.194400    1.891960   -0.182355
     98          1           0        0.149388   -1.189951   -0.263720
 ---------------------------------------------------------------------

 SCF Done:  E(RCAM-B3LYP) =  -1706.94551366     A.U. after   14 cycles

 Excitation energies and oscillator strengths:

 Excited State   1:      Singlet-A      2.6771 eV  463.13 nm  f=3.7248  <S**2>=0.000
     155 ->158         0.17251
     156 ->157         0.68133
 This state for optimization and/or second-order correction.
 Total Energy, E(TD-HF/TD-DFT) =  -1706.84713285
 Copying the excited state density for this state as the 1-particle RhoCI density.

 The electronic state is 1-A.
 Alpha  occ. eigenvalues --  -19.21157 -19.20908 -10.32015 -10.30978 -10.28803
 Alpha  occ. eigenvalues --  -10.28472 -10.28146 -10.27915 -10.27887 -10.27822
 Alpha  occ. eigenvalues --  -10.27649 -10.27545 -10.27391 -10.27225 -10.27219
 Alpha  occ. eigenvalues --  -10.27201 -10.26907 -10.26794 -10.26791 -10.26731
 Alpha  occ. eigenvalues --  -10.26705 -10.26673 -10.26483 -10.26404 -10.26330
 Alpha  occ. eigenvalues --  -10.26233 -10.26167 -10.26116 -10.26056 -10.26005
 Alpha  occ. eigenvalues --  -10.25963 -10.25865 -10.25851 -10.25844 -10.25764
 Alpha  occ. eigenvalues --  -10.25760 -10.25713 -10.25671 -10.25545 -10.25057
 Alpha  occ. eigenvalues --  -10.25044 -10.24403  -1.08744  -1.07519  -0.93552
 Alpha  occ. eigenvalues --   -0.92747  -0.92499  -0.91859  -0.90503  -0.89735
 Alpha  occ. eigenvalues --   -0.87133  -0.86667  -0.86495  -0.85614  -0.84277
 Alpha  occ. eigenvalues --   -0.83565  -0.81971  -0.80509  -0.78999  -0.78354
 Alpha  occ. eigenvalues --   -0.76710  -0.76682  -0.76290  -0.75759  -0.75445
 Alpha  occ. eigenvalues --   -0.75302  -0.74684  -0.74237  -0.73692  -0.70678
 Alpha  occ. eigenvalues --   -0.68123  -0.66522  -0.65220  -0.64453  -0.63829
 Alpha  occ. eigenvalues --   -0.63574  -0.62696  -0.62093  -0.60947  -0.60287
 Alpha  occ. eigenvalues --   -0.59302  -0.58586  -0.57228  -0.56620  -0.56013
 Alpha  occ. eigenvalues --   -0.55762  -0.55166  -0.54617  -0.54291  -0.53615
 Alpha  occ. eigenvalues --   -0.52684  -0.52357  -0.52028  -0.51912  -0.51254
 Alpha  occ. eigenvalues --   -0.50467  -0.50024  -0.49691  -0.49493  -0.48670
 Alpha  occ. eigenvalues --   -0.48352  -0.47937  -0.47802  -0.47296  -0.47232
 Alpha  occ. eigenvalues --   -0.47026  -0.46643  -0.46637  -0.46473  -0.46011
 Alpha  occ. eigenvalues --   -0.45899  -0.45583  -0.45405  -0.44965  -0.44466
 Alpha  occ. eigenvalues --   -0.44374  -0.44186  -0.44039  -0.43668  -0.43279
 Alpha  occ. eigenvalues --   -0.43217  -0.42555  -0.42533  -0.42339  -0.42243
 Alpha  occ. eigenvalues --   -0.41555  -0.41288  -0.41026  -0.40699  -0.40609
 Alpha  occ. eigenvalues --   -0.40076  -0.39935  -0.39775  -0.39336  -0.39128
 Alpha  occ. eigenvalues --   -0.39099  -0.39021  -0.38579  -0.38410  -0.38116
 Alpha  occ. eigenvalues --   -0.37955  -0.37306  -0.36739  -0.36168  -0.35391
 Alpha  occ. eigenvalues --   -0.35037  -0.34777  -0.33468  -0.32780  -0.32170
 Alpha  occ. eigenvalues --   -0.31393  -0.29653  -0.27430  -0.26644  -0.23649
 Alpha  occ. eigenvalues --   -0.20594
 Alpha virt. eigenvalues --   -0.04582  -0.00326   0.03119   0.05314   0.07161
 Alpha virt. eigenvalues --    0.08685   0.09836   0.11502   0.11822   0.12264
 Alpha virt. eigenvalues --    0.12286   0.12345   0.12486   0.13207   0.13275

 Mulliken charges:
               1
     1  O   -0.554160
     2  O   -0.564682
     3  C    0.001154
     4  C   -0.029891
     5  C   -0.198053
     6  C   -0.204055
     7  C    0.135745
     8  C    0.184231
     9  C    0.045244
    10  C    0.076339
    11  C   -0.207409
    12  C   -0.246162
    13  C    0.048041
    14  C    0.096567
    15  C   -0.305715
    16  C   -0.287181
    17  C   -0.288465
    18  C   -0.296242
    19  C   -0.115734
    20  C   -0.164022
    21  C   -0.353005
    22  C   -0.356516
    23  C   -0.104685
    24  C   -0.105513
    25  C    0.067164
    26  C    0.098624
    27  C   -0.393142
    28  C   -0.382376
    29  C   -0.107373
    30  C   -0.085414
    31  C   -0.096012
    32  C   -0.084787
    33  C   -0.097241
    34  C   -0.138371
    35  C    0.178318
    36  C    0.140654
    37  C   -0.403988
    38  C   -0.377968
    39  C   -0.172856
    40  C   -0.127562
    41  C   -0.101944
    42  C   -0.066785
    43  H    0.091283
    44  H    0.084355
    45  H    0.099156
    46  H    0.100937
    47  H    0.085118
    48  H    0.070288
    49  H    0.098524
    50  H    0.112320
    51  H    0.126092
    52  H    0.096965
    53  H    0.105450
    54  H    0.106001
    55  H    0.092453
    56  H    0.122463
    57  H    0.076141
    58  H    0.091953
    59  H    0.117114
    60  H    0.063542
    61  H    0.070940
    62  H    0.080184
    63  H    0.116886
    64  H    0.103540
    65  H    0.080414
    66  H    0.076810
    67  H    0.116839
    68  H    0.124810
    69  H    0.073540
    70  H    0.113996
    71  H    0.128837
    72  H    0.091727
    73  H    0.302333
    74  H    0.302888
    75  H    0.095127
    76  H    0.081245
    77  H    0.108798
    78  H    0.119635
    79  H    0.150593
    80  H    0.118552
    81  H    0.134961
    82  H    0.116479
    83  H    0.108924
    84  H    0.070576
    85  H    0.097119
    86  H    0.068430
    87  H    0.078638
    88  H    0.076053
    89  H    0.122740
    90  H    0.119127
    91  H    0.104791
    92  H    0.120834
    93  H    0.093105
    94  H    0.114552
    95  H    0.094287
    96  H    0.091423
    97  H    0.056161
    98  H    0.079179
 Sum of Mulliken charges =  -0.00000

 Dipole moment (field-independent basis, Debye):
    X=             -0.3230    Y=             -0.9618    Z=              1.9367  Tot=              2.1864
 Quadrupole moment (field-independent basis, Debye-Ang):
   XX=           -292.1548   YY=           -242.1399   ZZ=           -262.2305
   XY=             24.3062   XZ=             11.1305   YZ=              2.3358

 Normal termination of Gaussian 16 at Sat Jul  6 21:38:35 2019.
