 Gaussian 16, Revision A.03,
 Gaussian 16:  ES64L-G16RevA.03 25-Dec-2016

 -------------------------------------
 # td=(NStates=1) CAM-B3LYP/6-31G(d,p)
 -------------------------------------

 --
 TD
 --
 Symbolic Z-matrix:
 Charge =  0 Multiplicity = 1

                         Standard orientation:
 ---------------------------------------------------------------------
 Center     Atomic      Atomic             Coordinates (Angstroms)
 Number     Number       Type             X           Y           Z
 ---------------------------------------------------------------------
      1          8           0       14.576569   -2.377614   -0.465187
      2          8           0      -14.816710    1.955015    0.770479
      3          6           0       11.475975   -1.089942    1.220188
      4          6           0      -12.348822   -1.046911    0.766794
      5          6           0       12.884637   -1.511810    1.129126
      6          6           0      -13.701963   -0.350126    0.740952
      7          6           0       13.252595   -2.097078   -0.184262
      8          6           0      -13.544561    1.213668    0.746968
      9          6           0       10.867006   -0.277142   -0.057664
     10          6           0      -11.346301   -0.291077   -0.230457
     11          6           0       12.993703   -0.956742   -1.249951
     12          6           0      -12.750571    1.701390   -0.525716
     13          6           0       11.645204   -0.261724   -1.141859
     14          6           0      -11.526433    0.824650   -0.809992
     15          6           0       11.306767   -0.194206    2.482028
     16          6           0       10.593149   -2.268555    1.481252
     17          6           0      -11.846878   -0.859612    2.208948
     18          6           0      -12.537841   -2.459137    0.384899
     19          6           0        9.530989    0.314326    0.105003
     20          6           0      -10.050081   -1.054102   -0.389355
     21          6           0       11.126209    0.223226   -2.523359
     22          6           0      -10.607702    1.421882   -1.833084
     23          6           0        9.405338    1.572585   -0.123539
     24          6           0       -8.748008   -0.521362   -0.294977
     25          6           0        8.063864    2.248910    0.159375
     26          6           0       -7.554223   -1.198381   -0.489149
     27          6           0        8.331445    3.649149    0.654585
     28          6           0       -7.644309   -2.714698   -0.795176
     29          6           0        6.904441    1.585802   -0.047891
     30          6           0       -6.454222   -0.579891   -0.243011
     31          6           0        5.630332    2.120371    0.077586
     32          6           0       -5.108759   -1.121732   -0.371957
     33          6           0        4.478093    1.372773   -0.225792
     34          6           0       -4.039146   -0.345356   -0.228115
     35          6           0        3.078247    1.784210    0.103262
     36          6           0       -2.662174   -0.685451   -0.427915
     37          6           0        2.911452    3.195923    0.616091
     38          6           0       -2.324401   -2.186665   -0.681350
     39          6           0        2.043944    0.930754   -0.348465
     40          6           0       -1.705463    0.237845   -0.215197
     41          6           0        0.656781    1.085793   -0.297776
     42          6           0       -0.260945    0.087803   -0.369981
     43          1           0       13.615995   -0.666124    1.176267
     44          1           0       13.129304   -2.294714    1.877433
     45          1           0      -14.152843   -0.540865    1.627311
     46          1           0      -14.305018   -0.417438   -0.087275
     47          1           0       12.615414   -2.909157   -0.489040
     48          1           0      -12.956749    1.548588    1.511836
     49          1           0       13.934241   -0.328814   -1.192390
     50          1           0       12.952039   -1.498990   -2.285242
     51          1           0      -13.425070    1.582498   -1.397124
     52          1           0      -12.736062    2.765134   -0.578267
     53          1           0       11.814620   -0.633961    3.372818
     54          1           0       10.330140    0.106576    2.717812
     55          1           0       11.857260    0.721511    2.284110
     56          1           0       10.593689   -3.073559    0.716049
     57          1           0       10.810469   -2.877364    2.454807
     58          1           0        9.568668   -2.123788    1.677520
     59          1           0      -11.750624    0.267749    2.525300
     60          1           0      -10.972071   -1.185973    2.234312
     61          1           0      -12.574906   -1.346923    2.841184
     62          1           0      -13.247407   -2.993797    0.909902
     63          1           0      -11.639451   -3.114095    0.646753
     64          1           0      -12.615817   -2.472369   -0.683881
     65          1           0        8.871472   -0.253332    0.391665
     66          1           0      -10.024899   -2.185252   -0.514871
     67          1           0       10.092315    0.555821   -2.648269
     68          1           0       11.596173    1.147757   -2.672946
     69          1           0       11.399980   -0.508238   -3.315721
     70          1           0      -11.439405    1.948956   -2.497343
     71          1           0      -10.151964    0.547814   -2.539974
     72          1           0       -9.722596    2.144817   -1.577023
     73          1           0       14.817043   -2.839994    0.477530
     74          1           0      -14.977266    1.609440    1.690238
     75          1           0       10.138221    2.205527   -0.366407
     76          1           0       -8.762537    0.531350   -0.074375
     77          1           0        8.785268    4.271685   -0.058399
     78          1           0        7.335054    4.015762    0.660177
     79          1           0        8.820791    3.992714    1.545659
     80          1           0       -8.247030   -3.319423   -0.075433
     81          1           0       -8.002020   -2.910905   -1.929538
     82          1           0       -6.619046   -3.155016   -0.829181
     83          1           0        7.018401    0.566086   -0.372116
     84          1           0       -6.567952    0.257417    0.081639
     85          1           0        5.507834    3.118755    0.611798
     86          1           0       -5.034766   -2.112405   -0.479874
     87          1           0        4.643080    0.473606   -0.508362
     88          1           0       -4.040391    0.684139    0.030096
     89          1           0        3.660882    3.079907    1.447319
     90          1           0        1.812571    3.402998    0.921172
     91          1           0        3.360195    3.918689   -0.177349
     92          1           0       -2.732647   -2.714062    0.173365
     93          1           0       -2.684011   -2.665494   -1.614550
     94          1           0       -1.320637   -2.326795   -0.777351
     95          1           0        2.437413   -0.059896   -1.067868
     96          1           0       -2.045382    1.135591   -0.143572
     97          1           0        0.422626    2.121733    0.102226
     98          1           0        0.224330   -0.809234   -0.821298
 ---------------------------------------------------------------------

 SCF Done:  E(RCAM-B3LYP) =  -1706.94756985     A.U. after   14 cycles

 Excitation energies and oscillator strengths:

 Excited State   1:      Singlet-A      2.7676 eV  447.99 nm  f=3.6312  <S**2>=0.000
     155 ->158        -0.16870
     156 ->157         0.68229
 This state for optimization and/or second-order correction.
 Total Energy, E(TD-HF/TD-DFT) =  -1706.84586342
 Copying the excited state density for this state as the 1-particle RhoCI density.

 The electronic state is 1-A.
 Alpha  occ. eigenvalues --  -19.22678 -19.21621 -10.29552 -10.29221 -10.28368
 Alpha  occ. eigenvalues --  -10.27953 -10.27517 -10.27487 -10.27440 -10.27328
 Alpha  occ. eigenvalues --  -10.27195 -10.27144 -10.27094 -10.27088 -10.26813
 Alpha  occ. eigenvalues --  -10.26668 -10.26436 -10.25963 -10.25961 -10.25889
 Alpha  occ. eigenvalues --  -10.25618 -10.25563 -10.25559 -10.25520 -10.25466
 Alpha  occ. eigenvalues --  -10.25381 -10.25376 -10.25370 -10.25358 -10.25224
 Alpha  occ. eigenvalues --  -10.24848 -10.24767 -10.24628 -10.24623 -10.24573
 Alpha  occ. eigenvalues --  -10.24181 -10.23973 -10.23772 -10.23696 -10.23624
 Alpha  occ. eigenvalues --  -10.23573 -10.23422  -1.10134  -1.08335  -0.93910
 Alpha  occ. eigenvalues --   -0.93562  -0.93060  -0.91829  -0.91418  -0.90091
 Alpha  occ. eigenvalues --   -0.88173  -0.87820  -0.86610  -0.85400  -0.84547
 Alpha  occ. eigenvalues --   -0.83125  -0.82236  -0.80795  -0.79404  -0.78572
 Alpha  occ. eigenvalues --   -0.77852  -0.77127  -0.76798  -0.76159  -0.76146
 Alpha  occ. eigenvalues --   -0.75581  -0.75349  -0.74888  -0.74373  -0.70913
 Alpha  occ. eigenvalues --   -0.69408  -0.67516  -0.66344  -0.65341  -0.64953
 Alpha  occ. eigenvalues --   -0.63684  -0.63582  -0.62641  -0.61745  -0.60766
 Alpha  occ. eigenvalues --   -0.60053  -0.58930  -0.58289  -0.57870  -0.56791
 Alpha  occ. eigenvalues --   -0.56080  -0.55791  -0.55261  -0.55012  -0.54208
 Alpha  occ. eigenvalues --   -0.53765  -0.53375  -0.51686  -0.51580  -0.50909
 Alpha  occ. eigenvalues --   -0.50681  -0.50431  -0.50321  -0.49411  -0.48957
 Alpha  occ. eigenvalues --   -0.48833  -0.48746  -0.48584  -0.48343  -0.48241
 Alpha  occ. eigenvalues --   -0.47983  -0.47664  -0.47502  -0.47406  -0.46852
 Alpha  occ. eigenvalues --   -0.46668  -0.46446  -0.45938  -0.45887  -0.45690
 Alpha  occ. eigenvalues --   -0.45105  -0.44657  -0.44375  -0.44282  -0.43793
 Alpha  occ. eigenvalues --   -0.43647  -0.43515  -0.43135  -0.42942  -0.42278
 Alpha  occ. eigenvalues --   -0.41982  -0.41788  -0.41563  -0.41205  -0.40870
 Alpha  occ. eigenvalues --   -0.40694  -0.40493  -0.40247  -0.40181  -0.39434
 Alpha  occ. eigenvalues --   -0.39405  -0.39120  -0.38771  -0.38177  -0.37926
 Alpha  occ. eigenvalues --   -0.37866  -0.37336  -0.37236  -0.36447  -0.35821
 Alpha  occ. eigenvalues --   -0.35091  -0.34534  -0.33077  -0.32411  -0.32289
 Alpha  occ. eigenvalues --   -0.32168  -0.30491  -0.28618  -0.26988  -0.24181
 Alpha  occ. eigenvalues --   -0.21036
 Alpha virt. eigenvalues --   -0.04432  -0.00297   0.03243   0.06394   0.08586
 Alpha virt. eigenvalues --    0.10192   0.10423   0.11283   0.11604   0.12158
 Alpha virt. eigenvalues --    0.12882   0.13341   0.13409   0.13625   0.14107

 Mulliken charges:
               1
     1  O   -0.538758
     2  O   -0.549709
     3  C   -0.001311
     4  C   -0.013839
     5  C   -0.190857
     6  C   -0.158546
     7  C    0.166713
     8  C    0.093813
     9  C    0.025497
    10  C    0.044293
    11  C   -0.237127
    12  C   -0.247298
    13  C    0.032765
    14  C    0.079225
    15  C   -0.302142
    16  C   -0.312306
    17  C   -0.280459
    18  C   -0.303803
    19  C   -0.039590
    20  C   -0.166196
    21  C   -0.360354
    22  C   -0.349949
    23  C   -0.067272
    24  C   -0.107581
    25  C    0.040362
    26  C    0.147921
    27  C   -0.385360
    28  C   -0.377763
    29  C   -0.095526
    30  C   -0.059430
    31  C   -0.105998
    32  C   -0.086131
    33  C   -0.080299
    34  C   -0.096601
    35  C    0.063769
    36  C    0.110693
    37  C   -0.354226
    38  C   -0.371188
    39  C   -0.114818
    40  C   -0.118313
    41  C   -0.080089
    42  C   -0.090323
    43  H    0.098763
    44  H    0.078038
    45  H    0.076610
    46  H    0.113038
    47  H    0.080749
    48  H    0.096056
    49  H    0.115276
    50  H    0.092556
    51  H    0.109994
    52  H    0.120157
    53  H    0.090932
    54  H    0.109260
    55  H    0.097411
    56  H    0.099018
    57  H    0.079296
    58  H    0.109953
    59  H    0.084975
    60  H    0.111931
    61  H    0.097898
    62  H    0.108780
    63  H    0.084698
    64  H    0.118416
    65  H    0.065063
    66  H    0.078384
    67  H    0.110084
    68  H    0.120004
    69  H    0.104529
    70  H    0.085370
    71  H    0.104513
    72  H    0.113329
    73  H    0.295742
    74  H    0.306229
    75  H    0.082964
    76  H    0.078085
    77  H    0.125890
    78  H    0.106241
    79  H    0.133174
    80  H    0.125275
    81  H    0.103326
    82  H    0.102716
    83  H    0.087890
    84  H    0.036155
    85  H    0.085309
    86  H    0.078165
    87  H    0.066258
    88  H    0.073832
    89  H    0.126198
    90  H    0.106917
    91  H    0.129627
    92  H    0.123242
    93  H    0.112259
    94  H    0.114300
    95  H    0.053850
    96  H    0.071655
    97  H    0.070309
    98  H    0.087423
 Sum of Mulliken charges =  -0.00000

 Dipole moment (field-independent basis, Debye):
    X=              0.5990    Y=             -1.0871    Z=              2.7125  Tot=              2.9830
 Quadrupole moment (field-independent basis, Debye-Ang):
   XX=           -298.0185   YY=           -245.5819   ZZ=           -259.5633
   XY=             24.8265   XZ=              3.5017   YZ=             -0.2288

 Normal termination of Gaussian 16 at Tue Jul  9 13:18:08 2019.
