 Gaussian 16, Revision A.03,
 Gaussian 16:  ES64L-G16RevA.03 25-Dec-2016

 -------------------------------------
 # td=(NStates=1) CAM-B3LYP/6-31G(d,p)
 -------------------------------------

 --
 TD
 --
 Symbolic Z-matrix:
 Charge =  0 Multiplicity = 1

                         Standard orientation:
 ---------------------------------------------------------------------
 Center     Atomic      Atomic             Coordinates (Angstroms)
 Number     Number       Type             X           Y           Z
 ---------------------------------------------------------------------
      1          8           0       14.659761   -2.415051   -0.365790
      2          8           0      -14.785651    1.804598    0.524054
      3          6           0       11.431926   -1.047260    1.164417
      4          6           0      -12.235292   -0.842021    0.781530
      5          6           0       12.931715   -1.270889    1.108351
      6          6           0      -13.674460   -0.325556    0.838048
      7          6           0       13.257761   -2.112063   -0.193515
      8          6           0      -13.563489    1.181034    0.694521
      9          6           0       10.929012   -0.288238    0.020774
     10          6           0      -11.255303   -0.245304   -0.264243
     11          6           0       12.984726   -0.986723   -1.286659
     12          6           0      -12.860761    1.629119   -0.478994
     13          6           0       11.538089   -0.402458   -1.217764
     14          6           0      -11.575066    0.902898   -0.878727
     15          6           0       11.258155   -0.124609    2.430404
     16          6           0       10.547734   -2.236264    1.443445
     17          6           0      -11.671941   -0.741401    2.180270
     18          6           0      -12.402436   -2.442563    0.673057
     19          6           0        9.714371    0.403273    0.123497
     20          6           0      -10.012157   -1.012040   -0.493154
     21          6           0       11.071291    0.144968   -2.507020
     22          6           0      -10.694185    1.580801   -1.820319
     23          6           0        9.388543    1.713525   -0.144346
     24          6           0       -8.791078   -0.524986   -0.380099
     25          6           0        8.068943    2.294538   -0.058960
     26          6           0       -7.575459   -1.313573   -0.570991
     27          6           0        8.148979    3.765969    0.018925
     28          6           0       -7.822770   -2.716869   -0.948578
     29          6           0        6.856913    1.631924   -0.052807
     30          6           0       -6.366916   -0.643018   -0.394196
     31          6           0        5.541553    2.126920    0.245679
     32          6           0       -5.058880   -1.200172   -0.620079
     33          6           0        4.495275    1.330820    0.018844
     34          6           0       -3.947295   -0.411899   -0.253241
     35          6           0        3.087600    1.709255    0.300901
     36          6           0       -2.583185   -0.766443   -0.302988
     37          6           0        2.768653    3.093039    0.715006
     38          6           0       -2.331139   -2.163462   -0.918306
     39          6           0        2.125131    0.818927   -0.013392
     40          6           0       -1.658018    0.096883   -0.073435
     41          6           0        0.671386    0.972659    0.171609
     42          6           0       -0.156854   -0.130553   -0.105227
     43          1           0       13.532039   -0.400438    0.964043
     44          1           0       13.383874   -1.876512    1.980838
     45          1           0      -14.117876   -0.691341    1.541402
     46          1           0      -14.220247   -0.665972    0.034186
     47          1           0       12.738393   -2.903280   -0.370822
     48          1           0      -13.099899    1.405210    1.819626
     49          1           0       13.836121   -0.151945   -1.303015
     50          1           0       13.009261   -1.311577   -2.243559
     51          1           0      -13.407553    1.551900   -1.445752
     52          1           0      -12.591203    2.750897   -0.320928
     53          1           0       11.855767   -0.559059    3.445455
     54          1           0       10.178699    0.109709    2.842592
     55          1           0       11.872919    0.744048    2.283425
     56          1           0       10.467279   -3.044808    0.662990
     57          1           0       10.859547   -2.710922    2.479952
     58          1           0        9.435002   -2.036034    1.523965
     59          1           0      -11.861462    0.374277    2.440009
     60          1           0      -10.642953   -0.964353    2.415509
     61          1           0      -12.425716   -1.243670    3.005997
     62          1           0      -13.168087   -2.550211    1.492618
     63          1           0      -11.358795   -2.786006    1.054086
     64          1           0      -12.714744   -2.496703   -0.344283
     65          1           0        8.927956   -0.135787    0.590440
     66          1           0      -10.101960   -2.116015   -0.855905
     67          1           0       10.002158    0.248015   -2.608771
     68          1           0       11.496595    1.125901   -2.697938
     69          1           0       11.147996   -0.505083   -3.432314
     70          1           0      -11.470882    1.964066   -2.628192
     71          1           0       -9.876332    0.966174   -2.299163
     72          1           0      -10.295389    2.611063   -1.388177
     73          1           0       14.752471   -3.045292    0.374368
     74          1           0      -15.434300    1.490479    1.300430
     75          1           0       10.199315    2.310663   -0.565498
     76          1           0       -8.568482    0.484192   -0.049556
     77          1           0        8.502001    4.380823   -0.696370
     78          1           0        7.153632    4.181195    0.136903
     79          1           0        8.624965    4.121481    1.022809
     80          1           0       -8.882378   -3.127921   -0.430007
     81          1           0       -8.026284   -2.830226   -2.207404
     82          1           0       -6.898457   -3.420130   -0.780040
     83          1           0        6.819832    0.673643   -0.402288
     84          1           0       -6.339398    0.320677   -0.037642
     85          1           0        5.520138    3.241516    0.399018
     86          1           0       -4.719234   -2.241417   -0.904085
     87          1           0        4.769949    0.122780   -0.031241
     88          1           0       -4.206182    0.626271    0.300393
     89          1           0        3.383722    3.381290    1.506294
     90          1           0        1.788135    3.120370    1.050662
     91          1           0        3.073433    3.829130   -0.199995
     92          1           0       -2.769184   -2.950401   -0.111108
     93          1           0       -2.598033   -2.457261   -2.020089
     94          1           0       -1.194580   -2.713149   -0.817311
     95          1           0        2.441796   -0.283764   -0.409319
     96          1           0       -1.829189    1.141648    0.226673
     97          1           0        0.269690    2.084933    0.196323
     98          1           0        0.296813   -0.948581   -0.469773
 ---------------------------------------------------------------------

 SCF Done:  E(RCAM-B3LYP) =  -1706.91195753     A.U. after   14 cycles

 Excitation energies and oscillator strengths:

 Excited State   1:      Singlet-A      2.7998 eV  442.83 nm  f=3.6249  <S**2>=0.000
     155 ->158        -0.21313
     156 ->157         0.66597
 This state for optimization and/or second-order correction.
 Total Energy, E(TD-HF/TD-DFT) =  -1706.80906628
 Copying the excited state density for this state as the 1-particle RhoCI density.

 The electronic state is 1-A.
 Alpha  occ. eigenvalues --  -19.21711 -19.21315 -10.30683 -10.29570 -10.29287
 Alpha  occ. eigenvalues --  -10.28842 -10.28265 -10.27831 -10.27538 -10.27340
 Alpha  occ. eigenvalues --  -10.27280 -10.27177 -10.27166 -10.27117 -10.27106
 Alpha  occ. eigenvalues --  -10.27001 -10.26946 -10.26873 -10.26589 -10.26479
 Alpha  occ. eigenvalues --  -10.26451 -10.26372 -10.26356 -10.26245 -10.26215
 Alpha  occ. eigenvalues --  -10.26045 -10.25867 -10.25840 -10.25753 -10.25689
 Alpha  occ. eigenvalues --  -10.25612 -10.25412 -10.25323 -10.25298 -10.25222
 Alpha  occ. eigenvalues --  -10.25211 -10.25091 -10.24974 -10.24880 -10.24850
 Alpha  occ. eigenvalues --  -10.24489 -10.22073  -1.09645  -1.08970  -0.94560
 Alpha  occ. eigenvalues --   -0.93588  -0.92218  -0.91772  -0.90639  -0.90139
 Alpha  occ. eigenvalues --   -0.87696  -0.87008  -0.86479  -0.85582  -0.84612
 Alpha  occ. eigenvalues --   -0.83448  -0.82252  -0.80201  -0.79330  -0.77328
 Alpha  occ. eigenvalues --   -0.77024  -0.76606  -0.75968  -0.75739  -0.74861
 Alpha  occ. eigenvalues --   -0.74736  -0.74356  -0.74112  -0.73873  -0.70288
 Alpha  occ. eigenvalues --   -0.69096  -0.67286  -0.66251  -0.65312  -0.64196
 Alpha  occ. eigenvalues --   -0.62730  -0.62445  -0.62147  -0.60808  -0.59969
 Alpha  occ. eigenvalues --   -0.59581  -0.59026  -0.58435  -0.57065  -0.56105
 Alpha  occ. eigenvalues --   -0.55595  -0.55506  -0.55216  -0.54533  -0.53651
 Alpha  occ. eigenvalues --   -0.53261  -0.52688  -0.52133  -0.51499  -0.50967
 Alpha  occ. eigenvalues --   -0.50777  -0.50645  -0.49972  -0.49491  -0.49267
 Alpha  occ. eigenvalues --   -0.48428  -0.48179  -0.48154  -0.47998  -0.47858
 Alpha  occ. eigenvalues --   -0.47577  -0.46705  -0.46347  -0.46007  -0.45935
 Alpha  occ. eigenvalues --   -0.45632  -0.45558  -0.45482  -0.45244  -0.44958
 Alpha  occ. eigenvalues --   -0.44409  -0.44021  -0.43797  -0.43091  -0.43025
 Alpha  occ. eigenvalues --   -0.42721  -0.42602  -0.42578  -0.41997  -0.41908
 Alpha  occ. eigenvalues --   -0.41715  -0.41517  -0.41150  -0.41086  -0.40963
 Alpha  occ. eigenvalues --   -0.40539  -0.39919  -0.39669  -0.39641  -0.39151
 Alpha  occ. eigenvalues --   -0.38974  -0.38703  -0.38483  -0.38266  -0.38173
 Alpha  occ. eigenvalues --   -0.37145  -0.36937  -0.36908  -0.36460  -0.35903
 Alpha  occ. eigenvalues --   -0.35548  -0.34936  -0.33827  -0.32366  -0.31984
 Alpha  occ. eigenvalues --   -0.29762  -0.28965  -0.27708  -0.26621  -0.23561
 Alpha  occ. eigenvalues --   -0.21177
 Alpha virt. eigenvalues --   -0.04222  -0.01043   0.02501   0.05835   0.07507
 Alpha virt. eigenvalues --    0.09365   0.10311   0.10509   0.11605   0.11741
 Alpha virt. eigenvalues --    0.11959   0.12439   0.12648   0.12760   0.13174

 Mulliken charges:
               1
     1  O   -0.552233
     2  O   -0.562065
     3  C   -0.006240
     4  C   -0.079951
     5  C   -0.187629
     6  C   -0.145302
     7  C    0.152268
     8  C    0.189254
     9  C    0.084173
    10  C    0.063803
    11  C   -0.213426
    12  C   -0.206376
    13  C    0.040269
    14  C    0.067297
    15  C   -0.291834
    16  C   -0.301187
    17  C   -0.284271
    18  C   -0.280141
    19  C   -0.124115
    20  C   -0.180445
    21  C   -0.376880
    22  C   -0.357011
    23  C   -0.087425
    24  C   -0.057562
    25  C    0.078276
    26  C    0.142561
    27  C   -0.376122
    28  C   -0.366626
    29  C   -0.115939
    30  C   -0.132030
    31  C   -0.062273
    32  C   -0.085658
    33  C   -0.122607
    34  C   -0.125976
    35  C    0.095327
    36  C    0.158152
    37  C   -0.356296
    38  C   -0.380199
    39  C   -0.123476
    40  C   -0.139104
    41  C   -0.103017
    42  C   -0.073989
    43  H    0.124853
    44  H    0.068156
    45  H    0.074998
    46  H    0.093563
    47  H    0.092873
    48  H    0.047254
    49  H    0.102276
    50  H    0.100911
    51  H    0.127313
    52  H    0.108911
    53  H    0.056621
    54  H    0.101006
    55  H    0.110734
    56  H    0.095639
    57  H    0.092653
    58  H    0.109176
    59  H    0.078055
    60  H    0.117016
    61  H    0.064546
    62  H    0.091403
    63  H    0.094933
    64  H    0.108246
    65  H    0.078200
    66  H    0.093861
    67  H    0.121710
    68  H    0.125942
    69  H    0.102834
    70  H    0.082569
    71  H    0.125584
    72  H    0.102645
    73  H    0.298865
    74  H    0.301211
    75  H    0.080393
    76  H    0.085797
    77  H    0.133316
    78  H    0.093410
    79  H    0.102323
    80  H    0.105251
    81  H    0.091041
    82  H    0.104363
    83  H    0.073668
    84  H    0.084896
    85  H    0.086633
    86  H    0.095288
    87  H    0.078236
    88  H    0.069389
    89  H    0.128281
    90  H    0.114191
    91  H    0.107295
    92  H    0.106256
    93  H    0.132890
    94  H    0.077931
    95  H    0.070781
    96  H    0.086508
    97  H    0.095862
    98  H    0.087471
 Sum of Mulliken charges =  -0.00000

 Dipole moment (field-independent basis, Debye):
    X=             -0.0195    Y=             -0.7060    Z=              1.2939  Tot=              1.4741
 Quadrupole moment (field-independent basis, Debye-Ang):
   XX=           -284.4448   YY=           -247.8443   ZZ=           -261.5542
   XY=              7.5291   XZ=             -3.5073   YZ=              0.5446

 Normal termination of Gaussian 16 at Thu Jul 11 16:34:20 2019.
