 Gaussian 16, Revision A.03,
 Gaussian 16:  ES64L-G16RevA.03 25-Dec-2016

 -------------------------------------
 # td=(NStates=1) CAM-B3LYP/6-31G(d,p)
 -------------------------------------

 --
 TD
 --
 Symbolic Z-matrix:
 Charge =  0 Multiplicity = 1

                         Standard orientation:
 ---------------------------------------------------------------------
 Center     Atomic      Atomic             Coordinates (Angstroms)
 Number     Number       Type             X           Y           Z
 ---------------------------------------------------------------------
      1          8           0       14.935785   -1.929812   -0.494085
      2          8           0      -14.800973    2.118654    0.527335
      3          6           0       11.682618   -1.095614    1.173660
      4          6           0      -12.373106   -0.938159    0.666067
      5          6           0       13.219271   -1.249694    1.027044
      6          6           0      -13.707327   -0.011560    0.574341
      7          6           0       13.618355   -1.668146   -0.383583
      8          6           0      -13.523515    1.432997    0.634183
      9          6           0       11.018990   -0.325931   -0.022826
     10          6           0      -11.370252   -0.279469   -0.149865
     11          6           0       13.092851   -0.783619   -1.433944
     12          6           0      -12.740873    1.878910   -0.676398
     13          6           0       11.706605   -0.131872   -1.101533
     14          6           0      -11.561436    0.941985   -0.762930
     15          6           0       11.409272   -0.220899    2.472398
     16          6           0       11.065963   -2.515356    1.282197
     17          6           0      -12.080433   -0.825573    2.215572
     18          6           0      -12.742046   -2.369478    0.253050
     19          6           0        9.639744    0.301640    0.087873
     20          6           0      -10.089834   -1.024533   -0.341090
     21          6           0       11.009043    0.530535   -2.305345
     22          6           0      -10.515088    1.472686   -1.829304
     23          6           0        9.370121    1.603102   -0.094306
     24          6           0       -8.814805   -0.555014   -0.074144
     25          6           0        7.928165    2.155142    0.114016
     26          6           0       -7.590268   -1.409926   -0.346982
     27          6           0        8.028367    3.665959    0.267763
     28          6           0       -7.842772   -2.823794   -0.908885
     29          6           0        6.867814    1.410861   -0.007188
     30          6           0       -6.553282   -0.659956   -0.033365
     31          6           0        5.495532    1.967016    0.198443
     32          6           0       -5.185483   -1.184323   -0.354034
     33          6           0        4.363484    1.143579    0.139807
     34          6           0       -4.032242   -0.354708   -0.141361
     35          6           0        3.013677    1.478380    0.367506
     36          6           0       -2.689970   -0.880032   -0.351743
     37          6           0        2.784286    2.975867    0.547244
     38          6           0       -2.467320   -2.296998   -0.888440
     39          6           0        2.085204    0.591379    0.090512
     40          6           0       -1.698356    0.016445   -0.064693
     41          6           0        0.666716    0.689678    0.084283
     42          6           0       -0.297988   -0.187096   -0.219291
     43          1           0       13.540602   -0.283160    1.210932
     44          1           0       13.488476   -2.079218    1.831794
     45          1           0      -14.248272   -0.485965    1.517769
     46          1           0      -14.352019   -0.191590   -0.342895
     47          1           0       13.043968   -2.705351   -0.431952
     48          1           0      -12.899355    1.861126    1.606346
     49          1           0       13.696441    0.002266   -1.421306
     50          1           0       13.207221   -1.087156   -2.500570
     51          1           0      -13.324686    1.831344   -1.343650
     52          1           0      -12.335548    2.908736   -0.774855
     53          1           0       11.906534   -0.916375    3.342144
     54          1           0       10.122250   -0.089725    2.466001
     55          1           0       12.034706    0.744171    2.456729
     56          1           0       11.090010   -3.161257    0.309146
     57          1           0       11.325904   -2.984318    2.132015
     58          1           0       10.078220   -2.254745    1.090063
     59          1           0      -11.988214    0.263988    2.425476
     60          1           0      -11.046572   -1.390190    2.221591
     61          1           0      -12.798452   -1.271141    3.008341
     62          1           0      -13.633658   -2.754833    0.794089
     63          1           0      -12.076160   -3.227751    0.334632
     64          1           0      -13.034002   -2.385012   -0.821256
     65          1           0        8.887055   -0.648771    0.379937
     66          1           0      -10.258673   -2.206892   -0.534629
     67          1           0       10.040080    0.574874   -2.190088
     68          1           0       11.379593    1.974904   -2.458162
     69          1           0       11.401352    0.144673   -3.350091
     70          1           0      -10.989824    1.636406   -2.713052
     71          1           0       -9.674478    0.628666   -1.971458
     72          1           0      -10.291472    2.477638   -1.271586
     73          1           0       15.193417   -2.612073    0.004862
     74          1           0      -15.269417    1.613929    1.277428
     75          1           0       10.038189    2.528434   -0.592626
     76          1           0       -8.506584    0.478139    0.352340
     77          1           0        8.719602    4.170343   -0.488458
     78          1           0        7.192851    4.258956    0.482048
     79          1           0        8.635663    3.797292    1.214412
     80          1           0       -8.765287   -3.271658   -0.427943
     81          1           0       -8.137881   -2.637439   -1.967713
     82          1           0       -6.901013   -3.481070   -0.852586
     83          1           0        7.130621    0.412491   -0.208472
     84          1           0       -6.694175    0.260440    0.176873
     85          1           0        5.397414    2.954303    0.504109
     86          1           0       -4.977215   -2.123880   -0.845483
     87          1           0        4.330243    0.199328   -0.314577
     88          1           0       -4.201959    0.684986    0.148627
     89          1           0        3.180084    3.405798    1.558433
     90          1           0        1.671356    3.573148    0.211112
     91          1           0        3.592871    3.505022   -0.286486
     92          1           0       -2.763052   -3.047852   -0.153151
     93          1           0       -2.907967   -2.617800   -1.875728
     94          1           0       -1.294782   -2.497241   -1.104529
     95          1           0        2.434874   -0.306016   -0.224331
     96          1           0       -1.805741    0.932878    0.207937
     97          1           0        0.282893    1.768211    0.190527
     98          1           0       -0.082628   -1.171197   -0.482334
 ---------------------------------------------------------------------

 SCF Done:  E(RCAM-B3LYP) =  -1706.79603165     A.U. after   14 cycles

 Excitation energies and oscillator strengths:

 Excited State   1:      Singlet-A      2.8398 eV  436.59 nm  f=3.5788  <S**2>=0.000
     155 ->158        -0.16228
     156 ->157         0.68317
 This state for optimization and/or second-order correction.
 Total Energy, E(TD-HF/TD-DFT) =  -1706.69167077
 Copying the excited state density for this state as the 1-particle RhoCI density.

 The electronic state is 1-A.
 Alpha  occ. eigenvalues --  -19.21750 -19.20405 -10.31857 -10.30371 -10.29218
 Alpha  occ. eigenvalues --  -10.28606 -10.28517 -10.28177 -10.28162 -10.28096
 Alpha  occ. eigenvalues --  -10.27911 -10.27739 -10.27609 -10.27424 -10.27313
 Alpha  occ. eigenvalues --  -10.27278 -10.27113 -10.26975 -10.26880 -10.26834
 Alpha  occ. eigenvalues --  -10.26666 -10.26655 -10.26603 -10.26408 -10.26297
 Alpha  occ. eigenvalues --  -10.26234 -10.26086 -10.25938 -10.25795 -10.25547
 Alpha  occ. eigenvalues --  -10.25517 -10.25471 -10.25357 -10.25167 -10.24997
 Alpha  occ. eigenvalues --  -10.24975 -10.24911 -10.24798 -10.24609 -10.24452
 Alpha  occ. eigenvalues --  -10.24005 -10.23971  -1.13208  -1.08363  -0.93492
 Alpha  occ. eigenvalues --   -0.93457  -0.92597  -0.91565  -0.90750  -0.90152
 Alpha  occ. eigenvalues --   -0.86856  -0.86593  -0.86431  -0.85442  -0.84456
 Alpha  occ. eigenvalues --   -0.82617  -0.81135  -0.79685  -0.78782  -0.78318
 Alpha  occ. eigenvalues --   -0.77439  -0.76946  -0.76587  -0.75671  -0.75101
 Alpha  occ. eigenvalues --   -0.74967  -0.74837  -0.74437  -0.74078  -0.70804
 Alpha  occ. eigenvalues --   -0.68683  -0.67109  -0.65663  -0.64954  -0.64260
 Alpha  occ. eigenvalues --   -0.62818  -0.62618  -0.62271  -0.61798  -0.59800
 Alpha  occ. eigenvalues --   -0.59687  -0.59014  -0.58231  -0.57459  -0.56229
 Alpha  occ. eigenvalues --   -0.55632  -0.55199  -0.54856  -0.54568  -0.54069
 Alpha  occ. eigenvalues --   -0.53271  -0.52820  -0.51998  -0.51497  -0.51012
 Alpha  occ. eigenvalues --   -0.50770  -0.50211  -0.49603  -0.49362  -0.49232
 Alpha  occ. eigenvalues --   -0.48822  -0.48620  -0.48109  -0.47989  -0.47491
 Alpha  occ. eigenvalues --   -0.47255  -0.47135  -0.46637  -0.46570  -0.46201
 Alpha  occ. eigenvalues --   -0.46054  -0.45841  -0.45362  -0.45054  -0.44942
 Alpha  occ. eigenvalues --   -0.44626  -0.44479  -0.44099  -0.43926  -0.43621
 Alpha  occ. eigenvalues --   -0.42794  -0.42611  -0.42579  -0.42378  -0.42158
 Alpha  occ. eigenvalues --   -0.41433  -0.41335  -0.41161  -0.40811  -0.40617
 Alpha  occ. eigenvalues --   -0.40322  -0.40200  -0.40052  -0.39498  -0.39333
 Alpha  occ. eigenvalues --   -0.39158  -0.38446  -0.38409  -0.37902  -0.37884
 Alpha  occ. eigenvalues --   -0.37420  -0.36946  -0.35837  -0.35291  -0.34966
 Alpha  occ. eigenvalues --   -0.34926  -0.34801  -0.33439  -0.32378  -0.31679
 Alpha  occ. eigenvalues --   -0.30497  -0.29938  -0.28375  -0.26765  -0.24355
 Alpha  occ. eigenvalues --   -0.20926
 Alpha virt. eigenvalues --   -0.04008   0.00510   0.03166   0.05291   0.06937
 Alpha virt. eigenvalues --    0.08439   0.09446   0.10462   0.11377   0.11396
 Alpha virt. eigenvalues --    0.11873   0.11936   0.12575   0.12786   0.13491

 Mulliken charges:
               1
     1  O   -0.522317
     2  O   -0.555303
     3  C   -0.033350
     4  C   -0.023739
     5  C   -0.175624
     6  C   -0.202638
     7  C    0.189736
     8  C    0.149571
     9  C    0.047190
    10  C    0.090845
    11  C   -0.220535
    12  C   -0.163462
    13  C    0.056073
    14  C   -0.001961
    15  C   -0.272637
    16  C   -0.289942
    17  C   -0.294126
    18  C   -0.318839
    19  C   -0.169392
    20  C   -0.193891
    21  C   -0.298475
    22  C   -0.338487
    23  C   -0.083758
    24  C   -0.090449
    25  C    0.090086
    26  C    0.144674
    27  C   -0.383555
    28  C   -0.365548
    29  C   -0.085848
    30  C   -0.104910
    31  C   -0.113521
    32  C   -0.120781
    33  C   -0.112138
    34  C   -0.114468
    35  C    0.173159
    36  C    0.110851
    37  C   -0.363159
    38  C   -0.385518
    39  C   -0.133843
    40  C   -0.081275
    41  C   -0.097443
    42  C   -0.063400
    43  H    0.095818
    44  H    0.067008
    45  H    0.070313
    46  H    0.103308
    47  H    0.034113
    48  H    0.064793
    49  H    0.133742
    50  H    0.111206
    51  H    0.122000
    52  H    0.098755
    53  H    0.073676
    54  H    0.087215
    55  H    0.110457
    56  H    0.098117
    57  H    0.110371
    58  H    0.096635
    59  H    0.103987
    60  H    0.092433
    61  H    0.096263
    62  H    0.100276
    63  H    0.105285
    64  H    0.106009
    65  H    0.098202
    66  H    0.074373
    67  H    0.139968
    68  H   -0.007723
    69  H    0.096081
    70  H    0.121485
    71  H    0.110605
    72  H    0.095803
    73  H    0.294232
    74  H    0.302745
    75  H    0.110496
    76  H    0.097232
    77  H    0.113879
    78  H    0.116895
    79  H    0.117318
    80  H    0.123586
    81  H    0.136617
    82  H    0.110765
    83  H    0.074803
    84  H    0.071081
    85  H    0.088166
    86  H    0.085126
    87  H    0.079292
    88  H    0.088242
    89  H    0.115384
    90  H    0.085178
    91  H    0.088399
    92  H    0.134181
    93  H    0.126330
    94  H    0.097034
    95  H    0.072644
    96  H    0.057202
    97  H    0.065280
    98  H    0.059463
 Sum of Mulliken charges =  -0.00000

 Dipole moment (field-independent basis, Debye):
    X=             -0.5309    Y=             -2.6351    Z=              0.5604  Tot=              2.7459
 Quadrupole moment (field-independent basis, Debye-Ang):
   XX=           -273.9656   YY=           -244.9551   ZZ=           -264.0920
   XY=             14.6745   XZ=              4.9961   YZ=              3.1594

 Normal termination of Gaussian 16 at Mon Jul  1 05:55:49 2019.
