 Gaussian 16, Revision A.03,
 Gaussian 16:  ES64L-G16RevA.03 25-Dec-2016

 -------------------------------------
 # td=(NStates=1) CAM-B3LYP/6-31G(d,p)
 -------------------------------------

 --
 TD
 --
 Symbolic Z-matrix:
 Charge =  0 Multiplicity = 1

                         Standard orientation:
 ---------------------------------------------------------------------
 Center     Atomic      Atomic             Coordinates (Angstroms)
 Number     Number       Type             X           Y           Z
 ---------------------------------------------------------------------
      1          8           0       14.755481   -2.217227   -0.423819
      2          8           0      -14.722976    2.070669    0.732099
      3          6           0       11.561103   -1.046746    1.257491
      4          6           0      -12.448895   -0.981572    0.660264
      5          6           0       13.034186   -1.368547    1.091952
      6          6           0      -13.668598   -0.043691    0.654519
      7          6           0       13.360978   -1.890840   -0.316260
      8          6           0      -13.464669    1.415948    0.809180
      9          6           0       10.917113   -0.344664   -0.032326
     10          6           0      -11.350536   -0.366472   -0.213798
     11          6           0       13.071469   -0.891746   -1.293320
     12          6           0      -12.608060    1.857263   -0.336156
     13          6           0       11.585582   -0.250158   -1.065348
     14          6           0      -11.587196    0.864860   -0.688461
     15          6           0       11.220353   -0.279827    2.492098
     16          6           0       10.853138   -2.420275    1.348600
     17          6           0      -11.929171   -1.223733    2.128460
     18          6           0      -12.831238   -2.382946    0.011546
     19          6           0        9.726506    0.355290    0.179420
     20          6           0      -10.065307   -1.135628   -0.332084
     21          6           0       11.180357    0.357055   -2.524427
     22          6           0      -10.585183    1.633763   -1.619818
     23          6           0        9.430207    1.634992   -0.006308
     24          6           0       -8.887934   -0.560610   -0.191207
     25          6           0        8.039385    2.293432    0.120682
     26          6           0       -7.658324   -1.317303   -0.572833
     27          6           0        8.145224    3.644613    0.385193
     28          6           0       -7.665702   -2.699087   -0.879070
     29          6           0        6.896171    1.593347   -0.052129
     30          6           0       -6.505282   -0.684760   -0.310478
     31          6           0        5.555157    1.992004    0.151205
     32          6           0       -5.098624   -1.143583   -0.460917
     33          6           0        4.538014    1.279167   -0.078224
     34          6           0       -4.084138   -0.347564   -0.328010
     35          6           0        2.997949    1.637551    0.044782
     36          6           0       -2.601961   -0.699796   -0.360197
     37          6           0        2.781393    3.056546    0.509991
     38          6           0       -2.408096   -2.276848   -0.588778
     39          6           0        2.138380    0.703900   -0.078032
     40          6           0       -1.708645    0.238446   -0.268917
     41          6           0        0.731909    0.894436   -0.017746
     42          6           0       -0.210267   -0.041389   -0.192185
     43          1           0       13.440667   -0.185460    1.343638
     44          1           0       13.399669   -2.243009    1.815906
     45          1           0      -14.333283   -0.685169    1.446122
     46          1           0      -14.384289   -0.144997   -0.412227
     47          1           0       12.891646   -2.748479   -0.675483
     48          1           0      -12.810731    1.538086    1.771088
     49          1           0       13.955331   -0.080591   -1.454573
     50          1           0       13.310262   -1.271172   -2.305522
     51          1           0      -13.301177    1.650808   -1.291794
     52          1           0      -12.212563    2.900985   -0.356063
     53          1           0       11.388244   -0.954067    3.260201
     54          1           0       10.113046    0.042708    2.632756
     55          1           0       12.031981    0.681340    2.550217
     56          1           0       11.099995   -2.959560    0.457665
     57          1           0       10.967576   -2.871549    2.196739
     58          1           0        9.690931   -2.393749    1.421976
     59          1           0      -11.594745   -0.138220    2.704720
     60          1           0      -10.927644   -1.960378    1.912913
     61          1           0      -12.641484   -1.701181    2.759830
     62          1           0      -13.674312   -2.950465    0.602519
     63          1           0      -11.935078   -3.056351    0.138429
     64          1           0      -12.897593   -2.146345   -1.187837
     65          1           0        8.837452   -0.246977    0.539820
     66          1           0      -10.253471   -2.118407   -0.302826
     67          1           0       10.157636    0.859426   -2.515645
     68          1           0       11.809864    1.110613   -2.682865
     69          1           0       11.065274   -0.512193   -3.247356
     70          1           0      -11.258590    2.471234   -2.172914
     71          1           0      -10.130953    0.970640   -2.538778
     72          1           0       -9.804711    2.115162   -0.959503
     73          1           0       15.111516   -2.745251    0.414244
     74          1           0      -15.430173    1.712996    1.430214
     75          1           0        9.976187    2.267108   -0.611607
     76          1           0       -8.622281    0.468667    0.067131
     77          1           0        8.844736    4.389992   -0.270771
     78          1           0        7.279975    4.392968    0.535568
     79          1           0        8.620433    3.904760    1.400253
     80          1           0       -8.006925   -3.574851    0.031538
     81          1           0       -8.592022   -2.864211   -1.578454
     82          1           0       -6.908191   -3.128285   -1.174987
     83          1           0        7.134478    0.599571   -0.291582
     84          1           0       -6.401576    0.272963    0.123271
     85          1           0        5.362391    3.025049    0.538140
     86          1           0       -4.789978   -2.367816   -0.581901
     87          1           0        4.589494    0.249943   -0.453463
     88          1           0       -4.414863    0.717911   -0.098280
     89          1           0        3.317856    3.199103    1.328469
     90          1           0        1.705048    3.337732    0.528086
     91          1           0        3.091593    3.765422   -0.369300
     92          1           0       -3.217886   -2.790915    0.146067
     93          1           0       -2.715512   -2.488672   -1.594224
     94          1           0       -1.331790   -2.500292   -0.694568
     95          1           0        2.650759   -0.138406   -0.317317
     96          1           0       -2.236084    1.277704   -0.258045
     97          1           0        0.293366    2.000335    0.137766
     98          1           0        0.049972   -1.112699   -0.533778
 ---------------------------------------------------------------------

 SCF Done:  E(RCAM-B3LYP) =  -1706.79485675     A.U. after   13 cycles

 Excitation energies and oscillator strengths:

 Excited State   1:      Singlet-A      3.6768 eV  337.21 nm  f=3.5598  <S**2>=0.000
     154 ->159        -0.10257
     155 ->158        -0.24764
     156 ->157         0.64070
 This state for optimization and/or second-order correction.
 Total Energy, E(TD-HF/TD-DFT) =  -1706.65973623
 Copying the excited state density for this state as the 1-particle RhoCI density.

 The electronic state is 1-A.
 Alpha  occ. eigenvalues --  -19.21988 -19.20806 -10.31142 -10.29459 -10.28170
 Alpha  occ. eigenvalues --  -10.27604 -10.27587 -10.27556 -10.27544 -10.27526
 Alpha  occ. eigenvalues --  -10.27348 -10.27309 -10.27204 -10.27105 -10.27105
 Alpha  occ. eigenvalues --  -10.27023 -10.26904 -10.26823 -10.26740 -10.26731
 Alpha  occ. eigenvalues --  -10.26697 -10.26495 -10.26370 -10.26321 -10.26234
 Alpha  occ. eigenvalues --  -10.26096 -10.26068 -10.25905 -10.25865 -10.25827
 Alpha  occ. eigenvalues --  -10.25717 -10.25624 -10.25541 -10.25371 -10.25255
 Alpha  occ. eigenvalues --  -10.25206 -10.25051 -10.24933 -10.24849 -10.24723
 Alpha  occ. eigenvalues --  -10.24286 -10.23676  -1.08069  -1.07210  -0.94520
 Alpha  occ. eigenvalues --   -0.93555  -0.92608  -0.91936  -0.91247  -0.90122
 Alpha  occ. eigenvalues --   -0.87983  -0.86927  -0.86440  -0.85946  -0.85252
 Alpha  occ. eigenvalues --   -0.84171  -0.82274  -0.80354  -0.79990  -0.78467
 Alpha  occ. eigenvalues --   -0.76945  -0.76692  -0.76518  -0.76487  -0.75831
 Alpha  occ. eigenvalues --   -0.75156  -0.74759  -0.73955  -0.73164  -0.69717
 Alpha  occ. eigenvalues --   -0.68967  -0.67282  -0.65443  -0.65219  -0.63822
 Alpha  occ. eigenvalues --   -0.63065  -0.62007  -0.61146  -0.60314  -0.59951
 Alpha  occ. eigenvalues --   -0.59297  -0.58273  -0.57975  -0.57638  -0.56370
 Alpha  occ. eigenvalues --   -0.56036  -0.55462  -0.55370  -0.54857  -0.53920
 Alpha  occ. eigenvalues --   -0.53358  -0.52762  -0.51797  -0.51655  -0.51075
 Alpha  occ. eigenvalues --   -0.50988  -0.50766  -0.50703  -0.50450  -0.49853
 Alpha  occ. eigenvalues --   -0.49212  -0.48801  -0.48249  -0.48105  -0.47423
 Alpha  occ. eigenvalues --   -0.47228  -0.47096  -0.46621  -0.46111  -0.46002
 Alpha  occ. eigenvalues --   -0.45266  -0.44929  -0.44876  -0.44727  -0.44472
 Alpha  occ. eigenvalues --   -0.44162  -0.43973  -0.43638  -0.43426  -0.42896
 Alpha  occ. eigenvalues --   -0.42742  -0.42671  -0.42491  -0.42234  -0.42142
 Alpha  occ. eigenvalues --   -0.41462  -0.40991  -0.40745  -0.40684  -0.40331
 Alpha  occ. eigenvalues --   -0.39800  -0.39403  -0.39331  -0.38958  -0.38831
 Alpha  occ. eigenvalues --   -0.38619  -0.38477  -0.37491  -0.37346  -0.37256
 Alpha  occ. eigenvalues --   -0.37025  -0.36558  -0.36312  -0.35886  -0.35362
 Alpha  occ. eigenvalues --   -0.34439  -0.33904  -0.33065  -0.32647  -0.32185
 Alpha  occ. eigenvalues --   -0.32117  -0.30422  -0.29138  -0.27193  -0.24895
 Alpha  occ. eigenvalues --   -0.23126
 Alpha virt. eigenvalues --   -0.01970   0.00367   0.03299   0.06317   0.07773
 Alpha virt. eigenvalues --    0.09647   0.10259   0.10346   0.10950   0.11222
 Alpha virt. eigenvalues --    0.11435   0.11506   0.12117   0.12588   0.13202

 Mulliken charges:
               1
     1  O   -0.596932
     2  O   -0.569946
     3  C   -0.014540
     4  C   -0.031494
     5  C   -0.182609
     6  C   -0.177586
     7  C    0.220665
     8  C    0.208270
     9  C    0.126229
    10  C    0.075377
    11  C   -0.228878
    12  C   -0.221455
    13  C   -0.015918
    14  C    0.028765
    15  C   -0.284811
    16  C   -0.301194
    17  C   -0.266809
    18  C   -0.296389
    19  C   -0.137962
    20  C   -0.122064
    21  C   -0.348158
    22  C   -0.348306
    23  C   -0.079159
    24  C   -0.052252
    25  C    0.098412
    26  C    0.129906
    27  C   -0.410101
    28  C   -0.324762
    29  C   -0.103367
    30  C   -0.155033
    31  C   -0.069203
    32  C   -0.068456
    33  C   -0.108806
    34  C   -0.115649
    35  C    0.102525
    36  C    0.126889
    37  C   -0.365654
    38  C   -0.371931
    39  C   -0.084912
    40  C   -0.147837
    41  C   -0.091714
    42  C   -0.102637
    43  H    0.081100
    44  H    0.069858
    45  H    0.056546
    46  H    0.061845
    47  H    0.101902
    48  H    0.068253
    49  H    0.094334
    50  H    0.107058
    51  H    0.115843
    52  H    0.124255
    53  H    0.106108
    54  H    0.110327
    55  H    0.067258
    56  H    0.108924
    57  H    0.107741
    58  H    0.076073
    59  H    0.073869
    60  H    0.077491
    61  H    0.109214
    62  H    0.094525
    63  H    0.095994
    64  H    0.101216
    65  H    0.085386
    66  H    0.080045
    67  H    0.097779
    68  H    0.131689
    69  H    0.115886
    70  H    0.084434
    71  H    0.100207
    72  H    0.118838
    73  H    0.301868
    74  H    0.313795
    75  H    0.090859
    76  H    0.089915
    77  H    0.099611
    78  H    0.108461
    79  H    0.117361
    80  H    0.066237
    81  H    0.096692
    82  H    0.112890
    83  H    0.071186
    84  H    0.078484
    85  H    0.081889
    86  H    0.054688
    87  H    0.069980
    88  H    0.072179
    89  H    0.136875
    90  H    0.103838
    91  H    0.105406
    92  H    0.118775
    93  H    0.137195
    94  H    0.106507
    95  H    0.069334
    96  H    0.084288
    97  H    0.083863
    98  H    0.083306
 Sum of Mulliken charges =  -0.00000

 Dipole moment (field-independent basis, Debye):
    X=              0.2013    Y=             -1.0731    Z=              1.9211  Tot=              2.2097
 Quadrupole moment (field-independent basis, Debye-Ang):
   XX=           -276.5233   YY=           -246.6647   ZZ=           -262.1645
   XY=              9.1221   XZ=             -1.7761   YZ=             -0.3718

 Normal termination of Gaussian 16 at Sat Jul  6 17:54:34 2019.
