 Gaussian 16, Revision A.03,
 Gaussian 16:  ES64L-G16RevA.03 25-Dec-2016

 -------------------------------------
 # td=(NStates=1) CAM-B3LYP/6-31G(d,p)
 -------------------------------------

 --
 TD
 --
 Symbolic Z-matrix:
 Charge =  0 Multiplicity = 1

                         Standard orientation:
 ---------------------------------------------------------------------
 Center     Atomic      Atomic             Coordinates (Angstroms)
 Number     Number       Type             X           Y           Z
 ---------------------------------------------------------------------
      1          8           0       14.738541   -2.020872   -0.564581
      2          8           0      -14.729591    2.191778    0.655150
      3          6           0       11.493960   -1.032124    1.247506
      4          6           0      -12.308891   -0.780023    0.693365
      5          6           0       12.965561   -1.313484    0.962872
      6          6           0      -13.643898   -0.044097    0.703615
      7          6           0       13.367202   -1.922330   -0.374044
      8          6           0      -13.486488    1.393981    0.658457
      9          6           0       10.954553   -0.320917   -0.001251
     10          6           0      -11.341028   -0.236158   -0.276677
     11          6           0       12.978157   -0.851383   -1.377564
     12          6           0      -12.703278    1.714667   -0.605475
     13          6           0       11.657041   -0.225637   -1.158545
     14          6           0      -11.498935    0.947583   -0.848024
     15          6           0       11.335917   -0.194738    2.425050
     16          6           0       10.820328   -2.419052    1.463646
     17          6           0      -11.739959   -0.936023    2.152079
     18          6           0      -12.666156   -2.343510    0.299285
     19          6           0        9.590435    0.337205    0.264673
     20          6           0      -10.017902   -1.056305   -0.398999
     21          6           0       11.072156    0.537660   -2.454099
     22          6           0      -10.585752    1.389137   -2.014140
     23          6           0        9.298901    1.625674   -0.094842
     24          6           0       -8.824043   -0.518913   -0.259572
     25          6           0        7.965169    2.232765    0.073182
     26          6           0       -7.614410   -1.417973   -0.485487
     27          6           0        8.032251    3.651357    0.479410
     28          6           0       -7.719395   -2.833361   -0.972015
     29          6           0        6.789639    1.567965   -0.209738
     30          6           0       -6.463763   -0.668635   -0.250688
     31          6           0        5.499350    1.986755    0.027776
     32          6           0       -5.064273   -1.195709   -0.281133
     33          6           0        4.461578    1.184712   -0.039284
     34          6           0       -3.927646   -0.519860   -0.018591
     35          6           0        3.028103    1.559887    0.133080
     36          6           0       -2.596673   -0.956380   -0.153927
     37          6           0        2.858250    3.058642    0.705490
     38          6           0       -2.360701   -2.379601   -0.570827
     39          6           0        2.026638    0.702695   -0.074769
     40          6           0       -1.661034    0.069917   -0.054527
     41          6           0        0.661331    0.905015    0.021825
     42          6           0       -0.192909   -0.041838   -0.053228
     43          1           0       13.607101   -0.455676    1.103143
     44          1           0       13.170011   -1.898534    1.811119
     45          1           0      -14.182279   -0.368739    1.662849
     46          1           0      -14.253826   -0.450300   -0.076226
     47          1           0       12.851423   -2.820174   -0.574892
     48          1           0      -13.051927    1.772551    1.400385
     49          1           0       13.592101    0.085535   -1.579122
     50          1           0       12.956949   -1.278769   -2.371864
     51          1           0      -13.482751    1.722244   -1.461006
     52          1           0      -12.531141    2.879948   -0.653266
     53          1           0       11.613340   -0.885637    3.283943
     54          1           0       10.298219    0.106607    2.537258
     55          1           0       11.835482    0.708251    2.368647
     56          1           0       10.861027   -3.151277    0.555724
     57          1           0       11.257315   -2.952310    2.211883
     58          1           0        9.786968   -2.316206    1.576892
     59          1           0      -11.340202   -0.011982    2.531141
     60          1           0      -10.946790   -1.754548    1.971816
     61          1           0      -12.820862   -1.097101    2.876772
     62          1           0      -13.347755   -2.574517    0.899003
     63          1           0      -11.880101   -3.070292    0.418591
     64          1           0      -13.082057   -2.351108   -0.700131
     65          1           0        8.835716   -0.056386    0.791452
     66          1           0      -10.095657   -2.134194   -0.694577
     67          1           0        9.929894    0.506637   -2.615530
     68          1           0       11.679858    1.378533   -2.673326
     69          1           0       11.245478   -0.019978   -3.378933
     70          1           0      -10.931756    1.475230   -3.124301
     71          1           0       -9.774280    0.587709   -2.136335
     72          1           0      -10.118768    2.335028   -1.536321
     73          1           0       15.021900   -2.622659    0.017380
     74          1           0      -15.276523    1.798262    1.570178
     75          1           0       10.072300    2.255866   -0.631810
     76          1           0       -8.650836    0.433678   -0.200423
     77          1           0        8.674639    4.174115   -0.267347
     78          1           0        7.063979    4.254985    0.170448
     79          1           0        8.232895    3.873216    1.579549
     80          1           0       -8.188304   -3.515632   -0.134242
     81          1           0       -8.258076   -2.723985   -1.929307
     82          1           0       -6.593299   -3.242575   -0.681981
     83          1           0        6.714576    0.616434   -0.656940
     84          1           0       -6.566271    0.390563    0.124780
     85          1           0        5.219964    2.826377    0.426515
     86          1           0       -4.878162   -2.316026   -0.641547
     87          1           0        4.641378    0.146622   -0.437580
     88          1           0       -3.819532    0.583296    0.382374
     89          1           0        3.410943    3.102494    1.687182
     90          1           0        1.817946    3.381318    0.898894
     91          1           0        3.317885    3.966436    0.100221
     92          1           0       -2.595854   -3.263776    0.224285
     93          1           0       -2.854995   -2.444660   -1.506951
     94          1           0       -1.252000   -2.491233   -0.947188
     95          1           0        2.236007   -0.339144   -0.184635
     96          1           0       -2.128101    1.121702    0.167357
     97          1           0        0.129375    1.971707    0.287232
     98          1           0        0.119492   -1.160556   -0.268992
 ---------------------------------------------------------------------

 SCF Done:  E(RCAM-B3LYP) =  -1706.92989396     A.U. after   14 cycles

 Excitation energies and oscillator strengths:

 Excited State   1:      Singlet-A      2.9908 eV  414.55 nm  f=3.6885  <S**2>=0.000
     155 ->158         0.18657
     156 ->157         0.67576
 This state for optimization and/or second-order correction.
 Total Energy, E(TD-HF/TD-DFT) =  -1706.81998256
 Copying the excited state density for this state as the 1-particle RhoCI density.

 The electronic state is 1-A.
 Alpha  occ. eigenvalues --  -19.21686 -19.20857 -10.30129 -10.28607 -10.28145
 Alpha  occ. eigenvalues --  -10.28107 -10.27845 -10.27495 -10.27460 -10.27392
 Alpha  occ. eigenvalues --  -10.27382 -10.27295 -10.27260 -10.27179 -10.27008
 Alpha  occ. eigenvalues --  -10.26931 -10.26724 -10.26512 -10.26396 -10.26358
 Alpha  occ. eigenvalues --  -10.26285 -10.26264 -10.26253 -10.26023 -10.26000
 Alpha  occ. eigenvalues --  -10.25698 -10.25682 -10.25678 -10.25661 -10.25545
 Alpha  occ. eigenvalues --  -10.25472 -10.25327 -10.25124 -10.24965 -10.24801
 Alpha  occ. eigenvalues --  -10.24781 -10.24758 -10.24081 -10.23549 -10.23412
 Alpha  occ. eigenvalues --  -10.23402 -10.23159  -1.12690  -1.05418  -0.94062
 Alpha  occ. eigenvalues --   -0.93711  -0.92470  -0.91721  -0.90643  -0.89956
 Alpha  occ. eigenvalues --   -0.87884  -0.87260  -0.86558  -0.85162  -0.84508
 Alpha  occ. eigenvalues --   -0.83164  -0.81947  -0.80026  -0.79790  -0.77921
 Alpha  occ. eigenvalues --   -0.77079  -0.76740  -0.76348  -0.75736  -0.75506
 Alpha  occ. eigenvalues --   -0.75224  -0.75047  -0.74781  -0.74214  -0.70327
 Alpha  occ. eigenvalues --   -0.69307  -0.67879  -0.66408  -0.65078  -0.64086
 Alpha  occ. eigenvalues --   -0.63720  -0.62828  -0.61777  -0.60417  -0.60255
 Alpha  occ. eigenvalues --   -0.59932  -0.58719  -0.58111  -0.57426  -0.56753
 Alpha  occ. eigenvalues --   -0.55587  -0.54883  -0.54426  -0.54223  -0.53191
 Alpha  occ. eigenvalues --   -0.53001  -0.52428  -0.51669  -0.51508  -0.51238
 Alpha  occ. eigenvalues --   -0.50968  -0.50546  -0.49863  -0.49398  -0.49286
 Alpha  occ. eigenvalues --   -0.49251  -0.48989  -0.48383  -0.48364  -0.48048
 Alpha  occ. eigenvalues --   -0.47630  -0.47232  -0.47038  -0.46482  -0.46308
 Alpha  occ. eigenvalues --   -0.46079  -0.45598  -0.45407  -0.45035  -0.44427
 Alpha  occ. eigenvalues --   -0.44176  -0.43808  -0.43505  -0.43451  -0.42959
 Alpha  occ. eigenvalues --   -0.42762  -0.42573  -0.42182  -0.42046  -0.41942
 Alpha  occ. eigenvalues --   -0.41588  -0.41381  -0.41149  -0.41049  -0.40585
 Alpha  occ. eigenvalues --   -0.40360  -0.40170  -0.39666  -0.39552  -0.39375
 Alpha  occ. eigenvalues --   -0.39051  -0.38924  -0.38464  -0.38291  -0.37874
 Alpha  occ. eigenvalues --   -0.37473  -0.37409  -0.37147  -0.36045  -0.35687
 Alpha  occ. eigenvalues --   -0.34936  -0.34577  -0.33124  -0.32949  -0.32363
 Alpha  occ. eigenvalues --   -0.31984  -0.29637  -0.27891  -0.26700  -0.24205
 Alpha  occ. eigenvalues --   -0.21338
 Alpha virt. eigenvalues --   -0.03598   0.00266   0.03645   0.06139   0.07838
 Alpha virt. eigenvalues --    0.09218   0.10000   0.10539   0.10988   0.11697
 Alpha virt. eigenvalues --    0.11883   0.12082   0.13503   0.13702   0.14040

 Mulliken charges:
               1
     1  O   -0.520916
     2  O   -0.583326
     3  C   -0.023162
     4  C   -0.056467
     5  C   -0.197667
     6  C   -0.193605
     7  C    0.163967
     8  C    0.211338
     9  C    0.061297
    10  C    0.091007
    11  C   -0.210681
    12  C   -0.254370
    13  C    0.024266
    14  C    0.064275
    15  C   -0.283761
    16  C   -0.309004
    17  C   -0.264501
    18  C   -0.307115
    19  C   -0.118421
    20  C   -0.185559
    21  C   -0.371608
    22  C   -0.352274
    23  C   -0.101536
    24  C   -0.019762
    25  C    0.055887
    26  C    0.081827
    27  C   -0.371737
    28  C   -0.367108
    29  C   -0.101994
    30  C   -0.122907
    31  C   -0.002852
    32  C   -0.143852
    33  C   -0.140114
    34  C   -0.079571
    35  C    0.106847
    36  C    0.139133
    37  C   -0.380416
    38  C   -0.376399
    39  C   -0.142786
    40  C   -0.159068
    41  C   -0.046017
    42  C   -0.078425
    43  H    0.099910
    44  H    0.067053
    45  H    0.058860
    46  H    0.109043
    47  H    0.087533
    48  H    0.091069
    49  H    0.116533
    50  H    0.109726
    51  H    0.114447
    52  H    0.089853
    53  H    0.083786
    54  H    0.106048
    55  H    0.115337
    56  H    0.085298
    57  H    0.109736
    58  H    0.109717
    59  H    0.109794
    60  H    0.109346
    61  H    0.055497
    62  H    0.112343
    63  H    0.098295
    64  H    0.101148
    65  H    0.085048
    66  H    0.088740
    67  H    0.124290
    68  H    0.120284
    69  H    0.099084
    70  H    0.108604
    71  H    0.110749
    72  H    0.100714
    73  H    0.287549
    74  H    0.291250
    75  H    0.090457
    76  H    0.080097
    77  H    0.119871
    78  H    0.091965
    79  H    0.123387
    80  H    0.119152
    81  H    0.144584
    82  H    0.107338
    83  H    0.075688
    84  H    0.089181
    85  H    0.055408
    86  H    0.076589
    87  H    0.064774
    88  H    0.069399
    89  H    0.125500
    90  H    0.109173
    91  H    0.106339
    92  H    0.115060
    93  H    0.142377
    94  H    0.095242
    95  H    0.087868
    96  H    0.075483
    97  H    0.074551
    98  H    0.070966
 Sum of Mulliken charges =  -0.00000

 Dipole moment (field-independent basis, Debye):
    X=              0.8164    Y=             -2.5052    Z=              1.4702  Tot=              3.0172
 Quadrupole moment (field-independent basis, Debye-Ang):
   XX=           -278.0457   YY=           -246.2172   ZZ=           -259.2438
   XY=             13.8633   XZ=             -1.1342   YZ=              2.2147

 Normal termination of Gaussian 16 at Tue Jul  2 08:21:01 2019.
