 Gaussian 16, Revision A.03,
 Gaussian 16:  ES64L-G16RevA.03 25-Dec-2016

 -------------------------------------
 # td=(NStates=1) CAM-B3LYP/6-31G(d,p)
 -------------------------------------

 --
 TD
 --
 Symbolic Z-matrix:
 Charge =  0 Multiplicity = 1

                         Standard orientation:
 ---------------------------------------------------------------------
 Center     Atomic      Atomic             Coordinates (Angstroms)
 Number     Number       Type             X           Y           Z
 ---------------------------------------------------------------------
      1          8           0       14.864948   -1.915191   -0.195154
      2          8           0      -14.776218    1.895968    0.802355
      3          6           0       11.414094   -1.262669    1.226597
      4          6           0      -12.357802   -0.895051    0.761595
      5          6           0       12.921310   -1.325196    1.133928
      6          6           0      -13.706138   -0.266563    0.750966
      7          6           0       13.403147   -1.791793   -0.249288
      8          6           0      -13.549838    1.279270    0.789051
      9          6           0       10.929441   -0.419902   -0.073146
     10          6           0      -11.277470   -0.263130   -0.261977
     11          6           0       12.995589   -0.868232   -1.386523
     12          6           0      -12.767765    1.758197   -0.479719
     13          6           0       11.584823   -0.215431   -1.187955
     14          6           0      -11.511577    0.876948   -0.787652
     15          6           0       11.011097   -0.434935    2.464321
     16          6           0       10.633402   -2.530367    1.264525
     17          6           0      -11.797249   -0.778650    2.198063
     18          6           0      -12.440889   -2.408267    0.676042
     19          6           0        9.593972    0.264735    0.154998
     20          6           0      -10.139403   -1.136221   -0.497173
     21          6           0       11.049661    0.526913   -2.314014
     22          6           0      -10.758364    1.492718   -1.869088
     23          6           0        9.385845    1.545442   -0.042845
     24          6           0       -8.880772   -0.562926   -0.436622
     25          6           0        8.075476    2.189612    0.204714
     26          6           0       -7.632648   -1.304723   -0.529075
     27          6           0        8.091647    3.588217    0.614313
     28          6           0       -7.688119   -2.729839   -0.946880
     29          6           0        6.907720    1.596559   -0.151260
     30          6           0       -6.379402   -0.773241   -0.264083
     31          6           0        5.514157    2.080133    0.191256
     32          6           0       -5.040054   -1.242576   -0.480177
     33          6           0        4.480936    1.278221   -0.115139
     34          6           0       -3.985182   -0.327348   -0.362915
     35          6           0        3.110480    1.622272    0.076823
     36          6           0       -2.595375   -0.724867   -0.523207
     37          6           0        2.865902    3.122279    0.663641
     38          6           0       -2.229946   -2.142631   -0.699873
     39          6           0        2.072270    0.804464   -0.318226
     40          6           0       -1.638034    0.267258   -0.398188
     41          6           0        0.642109    0.988136   -0.134685
     42          6           0       -0.181832   -0.003758   -0.497442
     43          1           0       13.322166   -0.172903    1.170027
     44          1           0       13.331857   -2.017058    1.864401
     45          1           0      -14.302465   -0.628314    1.552980
     46          1           0      -14.224901   -0.441357   -0.222559
     47          1           0       12.918878   -2.693606   -0.521501
     48          1           0      -12.966579    1.490716    1.765907
     49          1           0       13.782613   -0.164020   -1.436733
     50          1           0       13.154296   -1.292803   -2.182977
     51          1           0      -13.524233    1.783004   -1.259959
     52          1           0      -12.299636    2.668159   -0.162632
     53          1           0       11.541458   -1.024297    3.225945
     54          1           0        9.880821   -0.267155    2.625671
     55          1           0       11.393899    0.803200    2.206614
     56          1           0       11.170770   -3.357460    0.475637
     57          1           0       10.657544   -2.831783    2.320309
     58          1           0        9.511724   -2.338045    1.260813
     59          1           0      -11.470444    0.256636    2.403606
     60          1           0      -10.791777   -1.147964    2.468998
     61          1           0      -12.583700   -0.901190    3.092606
     62          1           0      -13.332723   -2.754472    1.093924
     63          1           0      -11.568475   -3.011569    0.893964
     64          1           0      -12.373597   -2.684542   -0.518904
     65          1           0        8.951148   -0.464556    0.522238
     66          1           0      -10.201322   -2.215857   -0.495675
     67          1           0       10.010087    0.366083   -2.401801
     68          1           0       11.514039    1.601855   -2.313497
     69          1           0       11.478382   -0.122023   -3.293532
     70          1           0      -11.492423    1.720171   -2.730274
     71          1           0      -10.249058    0.680754   -2.206814
     72          1           0      -10.128593    2.431824   -1.572782
     73          1           0       14.962775   -2.847247    0.328856
     74          1           0      -14.995716    2.072265    1.719944
     75          1           0       10.368637    1.942918   -0.516395
     76          1           0       -8.819648    0.468640   -0.092956
     77          1           0        9.120171    4.214727    0.164427
     78          1           0        7.110182    3.989075    0.562818
     79          1           0        8.360548    3.701979    1.669865
     80          1           0       -7.990308   -3.492874   -0.233322
     81          1           0       -8.593340   -2.833896   -1.699456
     82          1           0       -6.625684   -3.132154   -1.575651
     83          1           0        7.008449    0.633153   -0.680818
     84          1           0       -6.504289    0.288657    0.095678
     85          1           0        5.235240    3.056957    0.420217
     86          1           0       -4.814618   -2.176370   -0.699627
     87          1           0        4.648225    0.243140   -0.235017
     88          1           0       -4.101961    0.594256    0.215158
     89          1           0        3.457689    3.382235    1.646231
     90          1           0        1.856715    3.117168    0.780064
     91          1           0        3.100676    3.865309    0.086276
     92          1           0       -2.903789   -2.639504    0.103581
     93          1           0       -2.599068   -2.326139   -1.772217
     94          1           0       -1.105115   -2.363804   -0.385740
     95          1           0        2.466848   -0.274145   -0.715822
     96          1           0       -1.901193    1.174880   -0.220326
     97          1           0        0.529912    1.936890    0.412739
     98          1           0        0.157754   -0.952099   -0.842199
 ---------------------------------------------------------------------

 SCF Done:  E(RCAM-B3LYP) =  -1706.90861250     A.U. after   14 cycles

 Excitation energies and oscillator strengths:

 Excited State   1:      Singlet-A      2.7572 eV  449.67 nm  f=3.5416  <S**2>=0.000
     155 ->158        -0.17698
     156 ->157         0.68000
 This state for optimization and/or second-order correction.
 Total Energy, E(TD-HF/TD-DFT) =  -1706.80728699
 Copying the excited state density for this state as the 1-particle RhoCI density.

 The electronic state is 1-A.
 Alpha  occ. eigenvalues --  -19.22149 -19.21093 -10.30201 -10.29812 -10.27781
 Alpha  occ. eigenvalues --  -10.27777 -10.27455 -10.27407 -10.27319 -10.27181
 Alpha  occ. eigenvalues --  -10.27126 -10.27103 -10.27072 -10.27052 -10.27048
 Alpha  occ. eigenvalues --  -10.27047 -10.26941 -10.26863 -10.26617 -10.26584
 Alpha  occ. eigenvalues --  -10.26361 -10.26291 -10.26287 -10.26282 -10.26177
 Alpha  occ. eigenvalues --  -10.26131 -10.25989 -10.25988 -10.25597 -10.25385
 Alpha  occ. eigenvalues --  -10.25230 -10.25149 -10.25093 -10.25069 -10.24875
 Alpha  occ. eigenvalues --  -10.24847 -10.24769 -10.24769 -10.24608 -10.24298
 Alpha  occ. eigenvalues --  -10.23878 -10.22896  -1.11036  -1.06777  -0.93736
 Alpha  occ. eigenvalues --   -0.93571  -0.92256  -0.91421  -0.90409  -0.89811
 Alpha  occ. eigenvalues --   -0.88123  -0.87900  -0.87394  -0.85399  -0.84831
 Alpha  occ. eigenvalues --   -0.82996  -0.81844  -0.80618  -0.79605  -0.78301
 Alpha  occ. eigenvalues --   -0.77025  -0.76482  -0.75615  -0.75533  -0.75355
 Alpha  occ. eigenvalues --   -0.75035  -0.74920  -0.74519  -0.73820  -0.70797
 Alpha  occ. eigenvalues --   -0.68414  -0.67066  -0.65874  -0.65125  -0.64457
 Alpha  occ. eigenvalues --   -0.63208  -0.62332  -0.62024  -0.60816  -0.60353
 Alpha  occ. eigenvalues --   -0.59631  -0.59446  -0.58114  -0.57865  -0.57002
 Alpha  occ. eigenvalues --   -0.55949  -0.55310  -0.55217  -0.54023  -0.53687
 Alpha  occ. eigenvalues --   -0.53281  -0.52762  -0.52198  -0.51762  -0.51321
 Alpha  occ. eigenvalues --   -0.50374  -0.50210  -0.49903  -0.49526  -0.49161
 Alpha  occ. eigenvalues --   -0.48828  -0.48711  -0.48510  -0.48110  -0.47883
 Alpha  occ. eigenvalues --   -0.47322  -0.47108  -0.46936  -0.46690  -0.46328
 Alpha  occ. eigenvalues --   -0.46052  -0.45792  -0.45304  -0.45268  -0.45216
 Alpha  occ. eigenvalues --   -0.44975  -0.44359  -0.44291  -0.43879  -0.43787
 Alpha  occ. eigenvalues --   -0.43400  -0.43185  -0.42873  -0.42605  -0.41849
 Alpha  occ. eigenvalues --   -0.41749  -0.41523  -0.41407  -0.40928  -0.40811
 Alpha  occ. eigenvalues --   -0.40639  -0.40153  -0.40139  -0.39847  -0.39494
 Alpha  occ. eigenvalues --   -0.38835  -0.37812  -0.37712  -0.37540  -0.37187
 Alpha  occ. eigenvalues --   -0.37132  -0.36873  -0.36506  -0.36230  -0.34960
 Alpha  occ. eigenvalues --   -0.34481  -0.33602  -0.33455  -0.32481  -0.32199
 Alpha  occ. eigenvalues --   -0.30741  -0.30297  -0.28736  -0.27120  -0.24124
 Alpha  occ. eigenvalues --   -0.21115
 Alpha virt. eigenvalues --   -0.04452  -0.00533   0.03235   0.05903   0.08278
 Alpha virt. eigenvalues --    0.09477   0.10231   0.11090   0.11222   0.11894
 Alpha virt. eigenvalues --    0.12147   0.12503   0.12974   0.13188   0.13455

 Mulliken charges:
               1
     1  O   -0.562413
     2  O   -0.543178
     3  C    0.002082
     4  C    0.006677
     5  C   -0.158182
     6  C   -0.173134
     7  C    0.127070
     8  C    0.136274
     9  C    0.024651
    10  C    0.097084
    11  C   -0.197384
    12  C   -0.199733
    13  C    0.047676
    14  C    0.003368
    15  C   -0.277140
    16  C   -0.285194
    17  C   -0.308751
    18  C   -0.296302
    19  C   -0.101924
    20  C   -0.145463
    21  C   -0.360002
    22  C   -0.347694
    23  C   -0.109144
    24  C   -0.094818
    25  C    0.102958
    26  C    0.124164
    27  C   -0.364216
    28  C   -0.376713
    29  C   -0.129715
    30  C   -0.132777
    31  C   -0.090725
    32  C   -0.073536
    33  C   -0.087806
    34  C   -0.105566
    35  C    0.064871
    36  C    0.085091
    37  C   -0.363198
    38  C   -0.362594
    39  C   -0.135117
    40  C   -0.092141
    41  C   -0.062577
    42  C   -0.100132
    43  H    0.096841
    44  H    0.074414
    45  H    0.085615
    46  H    0.093214
    47  H    0.081657
    48  H    0.059324
    49  H    0.114961
    50  H    0.102525
    51  H    0.124506
    52  H    0.111499
    53  H    0.101263
    54  H    0.104496
    55  H    0.069735
    56  H    0.082477
    57  H    0.096541
    58  H    0.108039
    59  H    0.087573
    60  H    0.106724
    61  H    0.079945
    62  H    0.108781
    63  H    0.111498
    64  H    0.056111
    65  H    0.078086
    66  H    0.094900
    67  H    0.140431
    68  H    0.116444
    69  H    0.066878
    70  H    0.096865
    71  H    0.125214
    72  H    0.101351
    73  H    0.305878
    74  H    0.308877
    75  H    0.089818
    76  H    0.093206
    77  H    0.088791
    78  H    0.113402
    79  H    0.121060
    80  H    0.127805
    81  H    0.095059
    82  H    0.077550
    83  H    0.085890
    84  H    0.065817
    85  H    0.087149
    86  H    0.080645
    87  H    0.078538
    88  H    0.098602
    89  H    0.103255
    90  H    0.098720
    91  H    0.141725
    92  H    0.116997
    93  H    0.129056
    94  H    0.107852
    95  H    0.063506
    96  H    0.064381
    97  H    0.096551
    98  H    0.097264
 Sum of Mulliken charges =  -0.00000

 Dipole moment (field-independent basis, Debye):
    X=             -0.0978    Y=             -1.1796    Z=              2.5652  Tot=              2.8251
 Quadrupole moment (field-independent basis, Debye-Ang):
   XX=           -303.9264   YY=           -243.7930   ZZ=           -261.3977
   XY=            -14.1831   XZ=            -13.9556   YZ=              4.5005

 Normal termination of Gaussian 16 at Fri Jul  5 04:18:48 2019.
