 Gaussian 16, Revision A.03,
 Gaussian 16:  ES64L-G16RevA.03 25-Dec-2016

 -------------------------------------
 # td=(NStates=1) CAM-B3LYP/6-31G(d,p)
 -------------------------------------

 --
 TD
 --
 Symbolic Z-matrix:
 Charge =  0 Multiplicity = 1

                         Standard orientation:
 ---------------------------------------------------------------------
 Center     Atomic      Atomic             Coordinates (Angstroms)
 Number     Number       Type             X           Y           Z
 ---------------------------------------------------------------------
      1          8           0       14.671265   -2.155353   -0.465038
      2          8           0      -14.727610    2.126894    0.744977
      3          6           0       11.506153   -1.009475    1.197572
      4          6           0      -12.375890   -0.871910    0.597023
      5          6           0       12.989254   -1.400124    0.930031
      6          6           0      -13.701493   -0.107447    0.574871
      7          6           0       13.318821   -1.913260   -0.419479
      8          6           0      -13.479156    1.416942    0.751379
      9          6           0       11.048336   -0.109247   -0.042959
     10          6           0      -11.350499   -0.231132   -0.293559
     11          6           0       13.018201   -0.848823   -1.343214
     12          6           0      -12.713590    1.936881   -0.449182
     13          6           0       11.680882   -0.089554   -1.176577
     14          6           0      -11.542234    1.048070   -0.812920
     15          6           0       11.259275   -0.236842    2.489738
     16          6           0       10.703219   -2.300785    1.155762
     17          6           0      -11.896137   -1.117276    2.113390
     18          6           0      -12.716321   -2.205070    0.035181
     19          6           0        9.621043    0.424563    0.136486
     20          6           0      -10.015260   -0.982722   -0.529893
     21          6           0       11.160449    0.633795   -2.380951
     22          6           0      -10.581008    1.724489   -1.903185
     23          6           0        9.295943    1.653555   -0.183176
     24          6           0       -8.758252   -0.575615   -0.273620
     25          6           0        8.010792    2.318729    0.119921
     26          6           0       -7.509316   -1.269872   -0.369248
     27          6           0        8.046573    3.742221    0.402559
     28          6           0       -7.790386   -2.731944   -0.749294
     29          6           0        6.899783    1.568185    0.110601
     30          6           0       -6.422811   -0.593765   -0.171048
     31          6           0        5.511121    2.004786    0.335874
     32          6           0       -5.124145   -1.198714   -0.398309
     33          6           0        4.462322    1.218657   -0.069278
     34          6           0       -3.898290   -0.484148   -0.169698
     35          6           0        3.090696    1.522075    0.160031
     36          6           0       -2.564288   -1.055498   -0.238055
     37          6           0        2.659975    2.901064    0.571694
     38          6           0       -2.324503   -2.474669   -0.554321
     39          6           0        2.096741    0.600640   -0.058101
     40          6           0       -1.576252   -0.107376   -0.075794
     41          6           0        0.670252    0.655828    0.079153
     42          6           0       -0.199197   -0.387784   -0.056038
     43          1           0       13.684465   -0.649832    0.951115
     44          1           0       13.167912   -2.035216    1.694208
     45          1           0      -14.130946   -0.699973    1.450114
     46          1           0      -14.144448   -0.450437   -0.207770
     47          1           0       12.793872   -2.975608   -0.470972
     48          1           0      -12.743866    1.516331    1.603814
     49          1           0       13.844325   -0.185944   -1.262124
     50          1           0       13.015326   -0.972734   -2.457817
     51          1           0      -13.334127    1.962581   -1.141265
     52          1           0      -12.448876    2.928150   -0.269535
     53          1           0       11.851195   -0.806887    3.303000
     54          1           0       10.146110   -0.213404    2.880176
     55          1           0       11.652082    0.698883    2.253011
     56          1           0       10.819698   -2.868339    0.234641
     57          1           0       11.006169   -2.969716    1.979682
     58          1           0        9.656162   -1.886609    1.628819
     59          1           0      -11.867384   -0.106508    2.323241
     60          1           0      -10.969158   -1.532454    2.108676
     61          1           0      -12.639749   -1.544944    2.864146
     62          1           0      -13.465828   -2.507532    0.763237
     63          1           0      -11.859947   -3.052621   -0.075249
     64          1           0      -13.213362   -2.254195   -1.090779
     65          1           0        8.961212   -0.259753    0.655968
     66          1           0      -10.079842   -2.088125   -0.882283
     67          1           0       10.086993    0.836515   -2.382858
     68          1           0       11.698915    1.473564   -2.609744
     69          1           0       11.248584    0.046797   -3.281681
     70          1           0      -11.285864    1.973950   -2.633827
     71          1           0      -10.042077    0.899472   -2.469796
     72          1           0       -9.778636    2.254658   -1.402482
     73          1           0       14.905386   -2.654066    0.217866
     74          1           0      -15.479068    1.415760    1.312726
     75          1           0        9.976476    2.325026   -0.491331
     76          1           0       -8.717256    0.573989    0.032350
     77          1           0        8.506204    4.184783   -0.412572
     78          1           0        7.023506    4.319221    0.390708
     79          1           0        8.544128    4.141038    1.338596
     80          1           0       -8.347221   -3.122893    0.155184
     81          1           0       -8.370712   -2.867147   -1.588628
     82          1           0       -6.791407   -3.368840   -0.930739
     83          1           0        6.952557    0.446837   -0.056255
     84          1           0       -6.596484    0.562183    0.168619
     85          1           0        5.340664    3.038863    0.479006
     86          1           0       -4.953426   -2.247609   -0.476109
     87          1           0        4.802671    0.208733   -0.515759
     88          1           0       -3.951635    0.446805    0.100133
     89          1           0        2.973732    3.059209    1.624209
     90          1           0        1.657060    2.985269    0.503592
     91          1           0        3.339368    3.548307   -0.154449
     92          1           0       -2.751342   -3.277060    0.251945
     93          1           0       -2.617095   -2.797191   -1.653857
     94          1           0       -1.160354   -2.667181   -0.729576
     95          1           0        2.733478   -0.328802   -0.234772
     96          1           0       -1.928859    0.971148   -0.053769
     97          1           0        0.397610    1.711534    0.538233
     98          1           0        0.269072   -1.314872   -0.370724
 ---------------------------------------------------------------------

 SCF Done:  E(RCAM-B3LYP) =  -1706.92853651     A.U. after   14 cycles

 Excitation energies and oscillator strengths:

 Excited State   1:      Singlet-A      2.6439 eV  468.95 nm  f=3.5896  <S**2>=0.000
     155 ->158        -0.15467
     156 ->157         0.68749
 This state for optimization and/or second-order correction.
 Total Energy, E(TD-HF/TD-DFT) =  -1706.83137666
 Copying the excited state density for this state as the 1-particle RhoCI density.

 The electronic state is 1-A.
 Alpha  occ. eigenvalues --  -19.22924 -19.20663 -10.30751 -10.30739 -10.28426
 Alpha  occ. eigenvalues --  -10.27629 -10.27331 -10.27201 -10.26923 -10.26904
 Alpha  occ. eigenvalues --  -10.26897 -10.26856 -10.26702 -10.26683 -10.26601
 Alpha  occ. eigenvalues --  -10.26465 -10.26411 -10.26411 -10.26339 -10.26301
 Alpha  occ. eigenvalues --  -10.26252 -10.26047 -10.26038 -10.25987 -10.25977
 Alpha  occ. eigenvalues --  -10.25821 -10.25797 -10.25758 -10.25739 -10.25686
 Alpha  occ. eigenvalues --  -10.25637 -10.25344 -10.25327 -10.25009 -10.24880
 Alpha  occ. eigenvalues --  -10.24821 -10.24521 -10.24094 -10.23695 -10.23634
 Alpha  occ. eigenvalues --  -10.22965 -10.22691  -1.13547  -1.06470  -0.93948
 Alpha  occ. eigenvalues --   -0.93460  -0.92247  -0.91829  -0.91219  -0.90485
 Alpha  occ. eigenvalues --   -0.87457  -0.87043  -0.86883  -0.86043  -0.84479
 Alpha  occ. eigenvalues --   -0.83305  -0.81639  -0.81183  -0.78711  -0.77618
 Alpha  occ. eigenvalues --   -0.77144  -0.77089  -0.76822  -0.76590  -0.76118
 Alpha  occ. eigenvalues --   -0.75810  -0.75634  -0.74905  -0.73941  -0.70880
 Alpha  occ. eigenvalues --   -0.69179  -0.67247  -0.66506  -0.65674  -0.63501
 Alpha  occ. eigenvalues --   -0.63200  -0.62549  -0.61476  -0.60453  -0.60254
 Alpha  occ. eigenvalues --   -0.60016  -0.58540  -0.57748  -0.57077  -0.56810
 Alpha  occ. eigenvalues --   -0.55634  -0.55258  -0.54669  -0.54411  -0.53821
 Alpha  occ. eigenvalues --   -0.53192  -0.52501  -0.52400  -0.52073  -0.51812
 Alpha  occ. eigenvalues --   -0.51073  -0.50767  -0.50304  -0.49703  -0.49394
 Alpha  occ. eigenvalues --   -0.49075  -0.49019  -0.48839  -0.48600  -0.48321
 Alpha  occ. eigenvalues --   -0.48227  -0.47985  -0.47668  -0.47226  -0.46676
 Alpha  occ. eigenvalues --   -0.46438  -0.45379  -0.45152  -0.44890  -0.44719
 Alpha  occ. eigenvalues --   -0.44588  -0.44355  -0.44088  -0.43754  -0.43322
 Alpha  occ. eigenvalues --   -0.43242  -0.43075  -0.42592  -0.42548  -0.42108
 Alpha  occ. eigenvalues --   -0.41930  -0.41647  -0.41179  -0.40988  -0.40792
 Alpha  occ. eigenvalues --   -0.40271  -0.40198  -0.39678  -0.39405  -0.39234
 Alpha  occ. eigenvalues --   -0.39077  -0.38549  -0.38340  -0.38132  -0.38051
 Alpha  occ. eigenvalues --   -0.37460  -0.37295  -0.37038  -0.35702  -0.35553
 Alpha  occ. eigenvalues --   -0.34919  -0.34375  -0.33726  -0.32137  -0.32027
 Alpha  occ. eigenvalues --   -0.31907  -0.29933  -0.28289  -0.26811  -0.24262
 Alpha  occ. eigenvalues --   -0.20407
 Alpha virt. eigenvalues --   -0.04540   0.00273   0.03608   0.06374   0.07685
 Alpha virt. eigenvalues --    0.08150   0.09859   0.11454   0.11989   0.11994
 Alpha virt. eigenvalues --    0.12296   0.12654   0.12928   0.13248   0.13792

 Mulliken charges:
               1
     1  O   -0.523416
     2  O   -0.571621
     3  C   -0.033734
     4  C   -0.063252
     5  C   -0.190339
     6  C   -0.192274
     7  C    0.170564
     8  C    0.179938
     9  C    0.023874
    10  C    0.072088
    11  C   -0.212515
    12  C   -0.186942
    13  C    0.061605
    14  C   -0.021535
    15  C   -0.292630
    16  C   -0.287170
    17  C   -0.297589
    18  C   -0.274264
    19  C   -0.104198
    20  C   -0.159899
    21  C   -0.382030
    22  C   -0.353821
    23  C   -0.081026
    24  C   -0.087598
    25  C    0.093566
    26  C    0.178156
    27  C   -0.386617
    28  C   -0.374560
    29  C   -0.129439
    30  C   -0.147077
    31  C   -0.082848
    32  C   -0.121499
    33  C   -0.122706
    34  C   -0.092723
    35  C    0.097365
    36  C    0.140711
    37  C   -0.348387
    38  C   -0.381728
    39  C   -0.121408
    40  C   -0.126096
    41  C   -0.094361
    42  C   -0.084880
    43  H    0.100934
    44  H    0.077170
    45  H    0.074237
    46  H    0.109168
    47  H    0.050994
    48  H    0.080126
    49  H    0.130183
    50  H    0.097692
    51  H    0.126025
    52  H    0.117857
    53  H    0.086308
    54  H    0.096146
    55  H    0.123629
    56  H    0.117871
    57  H    0.094083
    58  H    0.077914
    59  H    0.110264
    60  H    0.119032
    61  H    0.093992
    62  H    0.092489
    63  H    0.081199
    64  H    0.071854
    65  H    0.092133
    66  H    0.068901
    67  H    0.125752
    68  H    0.124299
    69  H    0.102780
    70  H    0.123719
    71  H    0.109823
    72  H    0.129308
    73  H    0.288241
    74  H    0.300924
    75  H    0.078106
    76  H    0.056683
    77  H    0.129097
    78  H    0.098636
    79  H    0.123968
    80  H    0.125771
    81  H    0.141909
    82  H    0.087280
    83  H    0.076766
    84  H    0.087290
    85  H    0.080194
    86  H    0.089103
    87  H    0.083698
    88  H    0.062285
    89  H    0.122165
    90  H    0.109368
    91  H    0.101229
    92  H    0.110854
    93  H    0.118368
    94  H    0.096793
    95  H    0.060833
    96  H    0.095223
    97  H    0.079430
    98  H    0.102219
 Sum of Mulliken charges =  -0.00000

 Dipole moment (field-independent basis, Debye):
    X=              1.6802    Y=             -1.3036    Z=              1.3651  Tot=              2.5271
 Quadrupole moment (field-independent basis, Debye-Ang):
   XX=           -260.2625   YY=           -248.8757   ZZ=           -260.7565
   XY=             19.9599   XZ=              7.1978   YZ=             -1.9588

 Normal termination of Gaussian 16 at Mon Jul  8 05:18:09 2019.
