 Gaussian 16, Revision A.03,
 Gaussian 16:  ES64L-G16RevA.03 25-Dec-2016

 -------------------------------------
 # td=(NStates=1) CAM-B3LYP/6-31G(d,p)
 -------------------------------------

 --
 TD
 --
 Symbolic Z-matrix:
 Charge =  0 Multiplicity = 1

                         Standard orientation:
 ---------------------------------------------------------------------
 Center     Atomic      Atomic             Coordinates (Angstroms)
 Number     Number       Type             X           Y           Z
 ---------------------------------------------------------------------
      1          8           0       14.739233   -2.232814   -0.364486
      2          8           0      -14.741979    2.063609    0.622313
      3          6           0       11.479195   -1.109386    1.066663
      4          6           0      -12.499349   -0.940765    0.672495
      5          6           0       13.003630   -1.442788    0.996235
      6          6           0      -13.814440   -0.184834    0.631155
      7          6           0       13.295620   -2.037740   -0.396798
      8          6           0      -13.554340    1.346312    0.616887
      9          6           0       10.958650   -0.218856   -0.069484
     10          6           0      -11.331719   -0.225310   -0.105074
     11          6           0       13.016667   -0.922569   -1.360197
     12          6           0      -12.720357    1.797038   -0.551596
     13          6           0       11.719531   -0.188069   -1.158544
     14          6           0      -11.596439    0.931837   -0.858979
     15          6           0       11.260536   -0.366739    2.375824
     16          6           0       10.632126   -2.497460    1.241025
     17          6           0      -11.963347   -1.144305    2.090677
     18          6           0      -12.674509   -2.363349    0.157995
     19          6           0        9.608504    0.404512    0.069966
     20          6           0      -10.082757   -1.038276   -0.429495
     21          6           0       11.305837    0.687420   -2.342077
     22          6           0      -10.574121    1.669805   -1.705604
     23          6           0        9.352873    1.675413   -0.156672
     24          6           0       -8.890933   -0.562688   -0.192636
     25          6           0        8.000830    2.340701    0.124793
     26          6           0       -7.616346   -1.305211   -0.322585
     27          6           0        8.157179    3.790835    0.455587
     28          6           0       -7.666899   -2.805600   -0.807102
     29          6           0        6.937438    1.561095    0.024262
     30          6           0       -6.447935   -0.693673   -0.160854
     31          6           0        5.536349    1.942812    0.135939
     32          6           0       -5.082086   -1.197843   -0.377265
     33          6           0        4.491799    1.135580    0.038372
     34          6           0       -3.941483   -0.445342   -0.134868
     35          6           0        3.117877    1.625529    0.222170
     36          6           0       -2.547621   -0.766188   -0.384180
     37          6           0        2.950640    3.055537    0.773586
     38          6           0       -2.351145   -2.145834   -0.981869
     39          6           0        2.110208    0.624428    0.060839
     40          6           0       -1.596791    0.129147   -0.133811
     41          6           0        0.682488    0.886032    0.132063
     42          6           0       -0.207913   -0.020827   -0.158969
     43          1           0       13.612937   -0.519417    1.105914
     44          1           0       13.214109   -2.069834    1.848325
     45          1           0      -14.578288   -0.451953    1.408352
     46          1           0      -14.270322   -0.395873   -0.441770
     47          1           0       12.719846   -2.971102   -0.575805
     48          1           0      -12.952137    1.461317    1.695652
     49          1           0       13.804913   -0.205793   -1.363817
     50          1           0       13.133062   -1.164034   -2.256921
     51          1           0      -13.403091    1.585227   -1.322286
     52          1           0      -12.325857    2.915717   -0.498083
     53          1           0       11.509663   -1.106436    3.065678
     54          1           0       10.204129   -0.179090    2.716281
     55          1           0       11.750701    0.645747    2.328084
     56          1           0       11.247052   -3.080283    0.573444
     57          1           0       10.816401   -2.697242    2.362055
     58          1           0        9.494042   -2.275956    0.902234
     59          1           0      -11.488949   -0.235361    2.558425
     60          1           0      -10.951112   -1.614564    2.193479
     61          1           0      -12.649078   -1.556918    2.797344
     62          1           0      -13.575098   -2.949804    0.576014
     63          1           0      -11.873684   -3.167658    0.367716
     64          1           0      -12.907024   -2.392521   -0.897366
     65          1           0        8.858500   -0.234129    0.793056
     66          1           0      -10.288994   -2.000873   -0.646613
     67          1           0       10.162066    1.001385   -2.249959
     68          1           0       11.743095    1.719412   -2.209460
     69          1           0       11.428759    0.258713   -3.556791
     70          1           0      -11.249579    2.084429   -2.418520
     71          1           0      -10.030293    1.049387   -2.234609
     72          1           0      -10.154339    2.640293   -1.181121
     73          1           0       14.708286   -2.930165    0.373914
     74          1           0      -15.429157    1.716711    1.307820
     75          1           0       10.345821    2.208429   -0.648209
     76          1           0       -8.770739    0.366191    0.138232
     77          1           0        8.460923    4.412197   -0.485588
     78          1           0        7.081949    3.991323    0.764470
     79          1           0        8.803194    3.897999    1.352802
     80          1           0       -8.493011   -3.300494   -0.125509
     81          1           0       -8.098139   -2.548383   -2.000974
     82          1           0       -6.603630   -3.207526   -0.623843
     83          1           0        7.288795    0.514891   -0.649137
     84          1           0       -6.433387    0.433411    0.033785
     85          1           0        5.390159    2.883976    0.502367
     86          1           0       -4.918455   -2.169275   -0.818321
     87          1           0        4.515974    0.070912   -0.357848
     88          1           0       -4.255081    0.640112   -0.179412
     89          1           0        3.618163    3.114434    1.699282
     90          1           0        1.964880    3.281439    0.993457
     91          1           0        3.205737    3.851722    0.089659
     92          1           0       -2.750688   -2.745731   -0.256422
     93          1           0       -2.795930   -2.293206   -1.881752
     94          1           0       -1.288503   -2.516504   -1.179761
     95          1           0        2.327576   -0.394367   -0.284802
     96          1           0       -1.921747    1.083326    0.156830
     97          1           0        0.165913    1.901589    0.337644
     98          1           0        0.156938   -0.884439   -0.347472
 ---------------------------------------------------------------------

 SCF Done:  E(RCAM-B3LYP) =  -1706.93796801     A.U. after   13 cycles

 Excitation energies and oscillator strengths:

 Excited State   1:      Singlet-A      2.9846 eV  415.42 nm  f=3.6489  <S**2>=0.000
     155 ->158         0.16985
     156 ->157         0.68038
 This state for optimization and/or second-order correction.
 Total Energy, E(TD-HF/TD-DFT) =  -1706.82828681
 Copying the excited state density for this state as the 1-particle RhoCI density.

 The electronic state is 1-A.
 Alpha  occ. eigenvalues --  -19.21744 -19.21543 -10.31372 -10.30847 -10.28883
 Alpha  occ. eigenvalues --  -10.28477 -10.28041 -10.27447 -10.27402 -10.27152
 Alpha  occ. eigenvalues --  -10.27101 -10.27101 -10.26970 -10.26969 -10.26894
 Alpha  occ. eigenvalues --  -10.26755 -10.26725 -10.26636 -10.26620 -10.26536
 Alpha  occ. eigenvalues --  -10.26498 -10.26436 -10.26338 -10.26307 -10.26206
 Alpha  occ. eigenvalues --  -10.26173 -10.26172 -10.26052 -10.25418 -10.25406
 Alpha  occ. eigenvalues --  -10.25329 -10.25211 -10.25201 -10.24903 -10.24871
 Alpha  occ. eigenvalues --  -10.24609 -10.24476 -10.24234 -10.24175 -10.23710
 Alpha  occ. eigenvalues --  -10.23602 -10.23314  -1.09371  -1.08487  -0.93435
 Alpha  occ. eigenvalues --   -0.93324  -0.92490  -0.91471  -0.90563  -0.89692
 Alpha  occ. eigenvalues --   -0.87982  -0.87820  -0.86803  -0.85608  -0.85104
 Alpha  occ. eigenvalues --   -0.82787  -0.81731  -0.80121  -0.79816  -0.79042
 Alpha  occ. eigenvalues --   -0.76751  -0.76409  -0.76172  -0.75733  -0.75526
 Alpha  occ. eigenvalues --   -0.74888  -0.74734  -0.74546  -0.74019  -0.70442
 Alpha  occ. eigenvalues --   -0.68358  -0.67156  -0.66094  -0.64586  -0.63749
 Alpha  occ. eigenvalues --   -0.63426  -0.63255  -0.62208  -0.60637  -0.59708
 Alpha  occ. eigenvalues --   -0.58957  -0.58325  -0.57821  -0.57320  -0.56013
 Alpha  occ. eigenvalues --   -0.55899  -0.55573  -0.54724  -0.53912  -0.53597
 Alpha  occ. eigenvalues --   -0.53101  -0.52134  -0.51637  -0.51523  -0.50902
 Alpha  occ. eigenvalues --   -0.50661  -0.50473  -0.50219  -0.49584  -0.49266
 Alpha  occ. eigenvalues --   -0.49076  -0.48642  -0.48429  -0.48373  -0.47812
 Alpha  occ. eigenvalues --   -0.47742  -0.47297  -0.47146  -0.46574  -0.46228
 Alpha  occ. eigenvalues --   -0.46130  -0.45464  -0.45386  -0.45020  -0.44772
 Alpha  occ. eigenvalues --   -0.44396  -0.43907  -0.43605  -0.43556  -0.43311
 Alpha  occ. eigenvalues --   -0.43027  -0.42933  -0.42610  -0.42499  -0.42264
 Alpha  occ. eigenvalues --   -0.42064  -0.41934  -0.41740  -0.41450  -0.41333
 Alpha  occ. eigenvalues --   -0.40838  -0.40373  -0.40103  -0.39800  -0.39200
 Alpha  occ. eigenvalues --   -0.39029  -0.38560  -0.38010  -0.37536  -0.37284
 Alpha  occ. eigenvalues --   -0.37205  -0.37078  -0.36662  -0.36156  -0.35993
 Alpha  occ. eigenvalues --   -0.35464  -0.34791  -0.33813  -0.32412  -0.31585
 Alpha  occ. eigenvalues --   -0.30845  -0.29850  -0.27871  -0.26570  -0.24663
 Alpha  occ. eigenvalues --   -0.21401
 Alpha virt. eigenvalues --   -0.03720   0.00340   0.03475   0.05747   0.07724
 Alpha virt. eigenvalues --    0.09334   0.10894   0.11068   0.11486   0.11741
 Alpha virt. eigenvalues --    0.12190   0.12347   0.12736   0.13076   0.13314

 Mulliken charges:
               1
     1  O   -0.555586
     2  O   -0.562764
     3  C   -0.067546
     4  C    0.019920
     5  C   -0.187900
     6  C   -0.202813
     7  C    0.127516
     8  C    0.194543
     9  C    0.075282
    10  C    0.018443
    11  C   -0.180641
    12  C   -0.204493
    13  C    0.042550
    14  C    0.029976
    15  C   -0.287086
    16  C   -0.287516
    17  C   -0.312012
    18  C   -0.312914
    19  C   -0.093126
    20  C   -0.130939
    21  C   -0.382224
    22  C   -0.341893
    23  C   -0.123850
    24  C   -0.036404
    25  C    0.078808
    26  C    0.073488
    27  C   -0.348984
    28  C   -0.334951
    29  C   -0.118701
    30  C   -0.124636
    31  C   -0.103748
    32  C   -0.099180
    33  C   -0.086032
    34  C   -0.137625
    35  C    0.091292
    36  C    0.105077
    37  C   -0.372525
    38  C   -0.375711
    39  C   -0.155299
    40  C   -0.126918
    41  C   -0.072936
    42  C   -0.024375
    43  H    0.115941
    44  H    0.080198
    45  H    0.086484
    46  H    0.079762
    47  H    0.095810
    48  H    0.038042
    49  H    0.127054
    50  H    0.107203
    51  H    0.127208
    52  H    0.107387
    53  H    0.090214
    54  H    0.090987
    55  H    0.096887
    56  H    0.097384
    57  H    0.092145
    58  H    0.101608
    59  H    0.093971
    60  H    0.103485
    61  H    0.100593
    62  H    0.087755
    63  H    0.097930
    64  H    0.104354
    65  H    0.087430
    66  H    0.084834
    67  H    0.113794
    68  H    0.114094
    69  H    0.072987
    70  H    0.110173
    71  H    0.120063
    72  H    0.110089
    73  H    0.303814
    74  H    0.312621
    75  H    0.085629
    76  H    0.077975
    77  H    0.125156
    78  H    0.098827
    79  H    0.129943
    80  H    0.110268
    81  H    0.101817
    82  H    0.113470
    83  H    0.079804
    84  H    0.071792
    85  H    0.080494
    86  H    0.084210
    87  H    0.082701
    88  H    0.082760
    89  H    0.121874
    90  H    0.119037
    91  H    0.127614
    92  H    0.132876
    93  H    0.135694
    94  H    0.097479
    95  H    0.093773
    96  H    0.069506
    97  H    0.071563
    98  H    0.047866
 Sum of Mulliken charges =  -0.00000

 Dipole moment (field-independent basis, Debye):
    X=             -1.5290    Y=             -0.8028    Z=              1.0490  Tot=              2.0206
 Quadrupole moment (field-independent basis, Debye-Ang):
   XX=           -272.7010   YY=           -247.4104   ZZ=           -261.2000
   XY=             15.9372   XZ=              3.7513   YZ=             -0.0560

 Normal termination of Gaussian 16 at Mon Jul  8 10:10:02 2019.
