 Gaussian 16, Revision A.03,
 Gaussian 16:  ES64L-G16RevA.03 25-Dec-2016

 -------------------------------------
 # td=(NStates=1) CAM-B3LYP/6-31G(d,p)
 -------------------------------------

 --
 TD
 --
 Symbolic Z-matrix:
 Charge =  0 Multiplicity = 1

                         Standard orientation:
 ---------------------------------------------------------------------
 Center     Atomic      Atomic             Coordinates (Angstroms)
 Number     Number       Type             X           Y           Z
 ---------------------------------------------------------------------
      1          8           0       14.695036   -2.155925   -0.191972
      2          8           0      -14.681852    1.934732    0.778833
      3          6           0       11.433168   -1.091563    1.274583
      4          6           0      -12.315907   -0.928279    0.815704
      5          6           0       12.881365   -1.382325    1.116795
      6          6           0      -13.654737   -0.133743    0.789951
      7          6           0       13.339831   -2.019614   -0.204374
      8          6           0      -13.467131    1.386594    0.810282
      9          6           0       10.948194   -0.379611    0.015579
     10          6           0      -11.333046   -0.286959   -0.195980
     11          6           0       12.938052   -1.036093   -1.314965
     12          6           0      -12.790833    1.790055   -0.484659
     13          6           0       11.633897   -0.323433   -1.187609
     14          6           0      -11.549353    0.836821   -0.849613
     15          6           0       11.133872   -0.144008    2.442879
     16          6           0       10.596718   -2.366556    1.470715
     17          6           0      -11.657306   -0.993641    2.190743
     18          6           0      -12.491459   -2.403314    0.471579
     19          6           0        9.577904    0.283531    0.187029
     20          6           0      -10.108848   -1.022748   -0.374524
     21          6           0       11.179642    0.212030   -2.452220
     22          6           0      -10.744455    1.445427   -1.934845
     23          6           0        9.369022    1.590560   -0.057340
     24          6           0       -8.852769   -0.565425   -0.169362
     25          6           0        8.089309    2.247270    0.123424
     26          6           0       -7.553247   -1.386898   -0.427284
     27          6           0        8.217115    3.754075    0.500481
     28          6           0       -7.734884   -2.726696   -1.025044
     29          6           0        6.932888    1.569552   -0.218263
     30          6           0       -6.432819   -0.610897   -0.174801
     31          6           0        5.580569    2.155725    0.009877
     32          6           0       -5.081219   -1.221947   -0.342115
     33          6           0        4.402493    1.446949   -0.159253
     34          6           0       -3.999322   -0.481317   -0.169023
     35          6           0        3.065966    1.765490    0.082868
     36          6           0       -2.589290   -0.890722   -0.374208
     37          6           0        2.857926    3.193376    0.487891
     38          6           0       -2.252075   -2.277800   -0.986807
     39          6           0        2.042272    0.924790   -0.239581
     40          6           0       -1.726631    0.099020   -0.085446
     41          6           0        0.623419    1.019963   -0.145016
     42          6           0       -0.251439    0.021788   -0.324970
     43          1           0       13.563057   -0.399064    1.089012
     44          1           0       13.164167   -1.912763    1.907505
     45          1           0      -14.293918   -0.448129    1.750236
     46          1           0      -14.261578   -0.340739   -0.089263
     47          1           0       12.780460   -2.866485   -0.254046
     48          1           0      -13.001828    1.572237    1.702838
     49          1           0       13.687852   -0.379190   -1.488688
     50          1           0       12.799686   -1.680042   -2.343101
     51          1           0      -13.439031    1.753602   -1.314279
     52          1           0      -12.421407    2.816209   -0.333865
     53          1           0       11.611314   -0.469089    3.604360
     54          1           0       10.165737    0.234781    2.678386
     55          1           0       11.783337    0.767288    2.191757
     56          1           0       10.879094   -3.086681    0.632610
     57          1           0       10.913093   -3.053852    2.352147
     58          1           0        9.607964   -2.285769    1.699572
     59          1           0      -11.661478    0.217424    2.511955
     60          1           0      -10.525622   -1.212119    2.074981
     61          1           0      -12.373403   -1.491375    2.855558
     62          1           0      -13.378765   -2.700821    1.117585
     63          1           0      -11.745798   -3.133976    0.377640
     64          1           0      -12.983889   -2.533551   -0.557663
     65          1           0        8.862471   -0.353080    0.493609
     66          1           0      -10.105277   -2.196987   -0.804976
     67          1           0       10.232129    0.918390   -2.314922
     68          1           0       11.950173    0.990835   -2.679173
     69          1           0       10.941618   -0.509339   -3.334963
     70          1           0      -11.415622    1.779180   -2.847362
     71          1           0      -10.117957    0.782212   -2.408083
     72          1           0      -10.177040    2.265984   -1.803867
     73          1           0       14.825487   -3.378624   -0.112648
     74          1           0      -15.383959    1.241370    1.351857
     75          1           0       10.252385    2.252764   -0.399879
     76          1           0       -8.575418    0.385098    0.399460
     77          1           0        8.851158    4.300514   -0.423520
     78          1           0        7.336814    4.305845    0.751272
     79          1           0        9.003102    3.788208    1.413575
     80          1           0       -8.519383   -3.276598   -0.430084
     81          1           0       -8.085967   -2.730398   -1.938568
     82          1           0       -6.800419   -3.257894   -0.980923
     83          1           0        6.863573    0.718770   -0.737103
     84          1           0       -6.420985    0.525816   -0.169844
     85          1           0        5.542681    3.284476    0.273490
     86          1           0       -4.879373   -2.305230   -0.475059
     87          1           0        4.758340    0.414846   -0.395760
     88          1           0       -4.291506    0.671703    0.003901
     89          1           0        3.365525    3.419834    1.352123
     90          1           0        1.750365    3.539228    0.518211
     91          1           0        3.210646    3.734314   -0.294802
     92          1           0       -2.435679   -3.035720   -0.178521
     93          1           0       -2.775933   -2.346614   -1.975251
     94          1           0       -1.054753   -2.236906   -1.156919
     95          1           0        2.406156    0.008527   -0.567839
     96          1           0       -1.958451    1.135709    0.250835
     97          1           0        0.309150    2.046785    0.340281
     98          1           0        0.020312   -0.897943   -0.937156
 ---------------------------------------------------------------------

 SCF Done:  E(RCAM-B3LYP) =  -1706.93599099     A.U. after   14 cycles

 Excitation energies and oscillator strengths:

 Excited State   1:      Singlet-A      2.9832 eV  415.61 nm  f=3.5221  <S**2>=0.000
     155 ->158         0.17620
     156 ->157         0.67823
 This state for optimization and/or second-order correction.
 Total Energy, E(TD-HF/TD-DFT) =  -1706.82636028
 Copying the excited state density for this state as the 1-particle RhoCI density.

 The electronic state is 1-A.
 Alpha  occ. eigenvalues --  -19.23818 -19.21431 -10.29351 -10.28518 -10.28396
 Alpha  occ. eigenvalues --  -10.28394 -10.27990 -10.27917 -10.27849 -10.27342
 Alpha  occ. eigenvalues --  -10.27330 -10.27325 -10.27008 -10.26942 -10.26821
 Alpha  occ. eigenvalues --  -10.26767 -10.26713 -10.26691 -10.26505 -10.26383
 Alpha  occ. eigenvalues --  -10.26285 -10.26246 -10.26184 -10.26063 -10.26030
 Alpha  occ. eigenvalues --  -10.25940 -10.25934 -10.25849 -10.25771 -10.25717
 Alpha  occ. eigenvalues --  -10.25654 -10.25334 -10.25245 -10.25125 -10.25117
 Alpha  occ. eigenvalues --  -10.25102 -10.24777 -10.24710 -10.24694 -10.24034
 Alpha  occ. eigenvalues --  -10.23594 -10.23498  -1.10179  -1.09447  -0.93510
 Alpha  occ. eigenvalues --   -0.93230  -0.91845  -0.91072  -0.89954  -0.89442
 Alpha  occ. eigenvalues --   -0.87385  -0.86926  -0.86536  -0.84717  -0.83992
 Alpha  occ. eigenvalues --   -0.82828  -0.81618  -0.79952  -0.79442  -0.78298
 Alpha  occ. eigenvalues --   -0.77237  -0.76074  -0.76010  -0.75713  -0.75435
 Alpha  occ. eigenvalues --   -0.75248  -0.74748  -0.74528  -0.73883  -0.69781
 Alpha  occ. eigenvalues --   -0.68194  -0.67144  -0.65799  -0.64908  -0.63980
 Alpha  occ. eigenvalues --   -0.63374  -0.62038  -0.60444  -0.60280  -0.60183
 Alpha  occ. eigenvalues --   -0.59788  -0.59124  -0.57775  -0.57566  -0.56202
 Alpha  occ. eigenvalues --   -0.55718  -0.54890  -0.54175  -0.53617  -0.53314
 Alpha  occ. eigenvalues --   -0.53144  -0.52686  -0.52083  -0.51843  -0.50752
 Alpha  occ. eigenvalues --   -0.50496  -0.50340  -0.50133  -0.49952  -0.49678
 Alpha  occ. eigenvalues --   -0.49360  -0.48981  -0.48814  -0.48692  -0.48181
 Alpha  occ. eigenvalues --   -0.47935  -0.47480  -0.47367  -0.46797  -0.46163
 Alpha  occ. eigenvalues --   -0.45952  -0.45680  -0.45301  -0.44964  -0.44625
 Alpha  occ. eigenvalues --   -0.44553  -0.44132  -0.43959  -0.43370  -0.43255
 Alpha  occ. eigenvalues --   -0.43137  -0.42695  -0.42260  -0.42195  -0.42048
 Alpha  occ. eigenvalues --   -0.41936  -0.41420  -0.40927  -0.40782  -0.40721
 Alpha  occ. eigenvalues --   -0.40285  -0.40081  -0.39551  -0.39459  -0.39094
 Alpha  occ. eigenvalues --   -0.38542  -0.38480  -0.38156  -0.37442  -0.37274
 Alpha  occ. eigenvalues --   -0.36758  -0.36067  -0.36040  -0.35934  -0.35397
 Alpha  occ. eigenvalues --   -0.35169  -0.34552  -0.33525  -0.31853  -0.31274
 Alpha  occ. eigenvalues --   -0.31069  -0.29385  -0.28193  -0.26785  -0.24316
 Alpha  occ. eigenvalues --   -0.21191
 Alpha virt. eigenvalues --   -0.03433   0.00393   0.03315   0.04348   0.06322
 Alpha virt. eigenvalues --    0.07908   0.08808   0.09222   0.10566   0.11149
 Alpha virt. eigenvalues --    0.11846   0.12204   0.12776   0.13090   0.13304

 Mulliken charges:
               1
     1  O   -0.531174
     2  O   -0.557155
     3  C    0.001997
     4  C   -0.006173
     5  C   -0.168810
     6  C   -0.232552
     7  C    0.164745
     8  C    0.226038
     9  C    0.029067
    10  C    0.081302
    11  C   -0.214986
    12  C   -0.216921
    13  C    0.078439
    14  C    0.036664
    15  C   -0.288795
    16  C   -0.303848
    17  C   -0.278325
    18  C   -0.301820
    19  C   -0.101751
    20  C   -0.177361
    21  C   -0.365636
    22  C   -0.361511
    23  C   -0.105326
    24  C   -0.072479
    25  C    0.077210
    26  C    0.094150
    27  C   -0.346475
    28  C   -0.367151
    29  C   -0.106750
    30  C   -0.151205
    31  C   -0.095172
    32  C   -0.091929
    33  C   -0.128513
    34  C   -0.095620
    35  C    0.114744
    36  C    0.068941
    37  C   -0.375193
    38  C   -0.354979
    39  C   -0.117890
    40  C   -0.100332
    41  C   -0.084383
    42  C   -0.094713
    43  H    0.078372
    44  H    0.086746
    45  H    0.048140
    46  H    0.108520
    47  H    0.082950
    48  H    0.077631
    49  H    0.125453
    50  H    0.066946
    51  H    0.124051
    52  H    0.110148
    53  H    0.048810
    54  H    0.122935
    55  H    0.096232
    56  H    0.088496
    57  H    0.084287
    58  H    0.119187
    59  H    0.055810
    60  H    0.121777
    61  H    0.106052
    62  H    0.088266
    63  H    0.117659
    64  H    0.081434
    65  H    0.092279
    66  H    0.063757
    67  H    0.100250
    68  H    0.111910
    69  H    0.112922
    70  H    0.080996
    71  H    0.119607
    72  H    0.127266
    73  H    0.297957
    74  H    0.296840
    75  H    0.087174
    76  H    0.084805
    77  H    0.099960
    78  H    0.123725
    79  H    0.105967
    80  H    0.112118
    81  H    0.149048
    82  H    0.112153
    83  H    0.088916
    84  H    0.103575
    85  H    0.066270
    86  H    0.080227
    87  H    0.069729
    88  H    0.065023
    89  H    0.126942
    90  H    0.090273
    91  H    0.138747
    92  H    0.134687
    93  H    0.136134
    94  H    0.096207
    95  H    0.067806
    96  H    0.089851
    97  H    0.071372
    98  H    0.077234
 Sum of Mulliken charges =  -0.00000

 Dipole moment (field-independent basis, Debye):
    X=              0.5598    Y=             -3.0033    Z=             -0.5677  Tot=              3.1073
 Quadrupole moment (field-independent basis, Debye-Ang):
   XX=           -273.1618   YY=           -240.2912   ZZ=           -263.2326
   XY=              2.6165   XZ=             -5.2218   YZ=              3.1801

 Normal termination of Gaussian 16 at Thu Jun 27 08:30:26 2019.
