 Gaussian 16, Revision A.03,
 Gaussian 16:  ES64L-G16RevA.03 25-Dec-2016

 -------------------------------------
 # td=(NStates=1) CAM-B3LYP/6-31G(d,p)
 -------------------------------------

 --
 TD
 --
 Symbolic Z-matrix:
 Charge =  0 Multiplicity = 1

                         Standard orientation:
 ---------------------------------------------------------------------
 Center     Atomic      Atomic             Coordinates (Angstroms)
 Number     Number       Type             X           Y           Z
 ---------------------------------------------------------------------
      1          8           0       14.676317   -2.411158   -0.219039
      2          8           0      -14.746623    1.889083    0.892696
      3          6           0       11.432329   -1.063609    1.302659
      4          6           0      -12.321431   -1.030945    0.828352
      5          6           0       12.823800   -1.553190    1.165420
      6          6           0      -13.662237   -0.219446    0.831596
      7          6           0       13.255970   -2.004273   -0.155711
      8          6           0      -13.498519    1.214029    0.884944
      9          6           0       11.059150   -0.296062    0.069140
     10          6           0      -11.340889   -0.300128   -0.094997
     11          6           0       13.058623   -1.056799   -1.298644
     12          6           0      -12.767489    1.702184   -0.299903
     13          6           0       11.689994   -0.296983   -1.061539
     14          6           0      -11.538097    0.880287   -0.732112
     15          6           0       11.294206   -0.182997    2.450819
     16          6           0       10.552185   -2.271682    1.404555
     17          6           0      -11.742190   -1.008679    2.217610
     18          6           0      -12.620468   -2.420499    0.419706
     19          6           0        9.756726    0.298887    0.164242
     20          6           0      -10.144077   -1.085359   -0.361235
     21          6           0       11.279734    0.462105   -2.331812
     22          6           0      -10.754595    1.560488   -1.776176
     23          6           0        9.470011    1.573101   -0.059111
     24          6           0       -8.837878   -0.546381   -0.336918
     25          6           0        8.121614    2.306955    0.171692
     26          6           0       -7.704156   -1.237556   -0.581907
     27          6           0        8.246279    3.749151    0.383614
     28          6           0       -7.730564   -2.730005   -1.022587
     29          6           0        7.031782    1.593108   -0.154031
     30          6           0       -6.459778   -0.521264   -0.323865
     31          6           0        5.558714    2.106182    0.020894
     32          6           0       -5.151764   -1.085868   -0.642789
     33          6           0        4.450441    1.295507   -0.153306
     34          6           0       -4.077887   -0.296122   -0.410357
     35          6           0        3.073489    1.711254    0.102190
     36          6           0       -2.655514   -0.696938   -0.564177
     37          6           0        2.791711    3.158235    0.547228
     38          6           0       -2.418027   -2.179463   -1.004601
     39          6           0        2.098174    0.828257   -0.198404
     40          6           0       -1.655346    0.242063   -0.378909
     41          6           0        0.667218    0.971727   -0.126833
     42          6           0       -0.197731    0.024066   -0.374697
     43          1           0       13.444452   -0.675480    1.398477
     44          1           0       13.082051   -2.324015    1.892014
     45          1           0      -14.212997   -0.776138    1.559669
     46          1           0      -14.195793   -0.519990   -0.221837
     47          1           0       12.536392   -2.951177   -0.247005
     48          1           0      -12.946513    1.653096    1.620770
     49          1           0       13.935528   -0.242799   -1.356967
     50          1           0       13.129314   -1.668670   -2.175055
     51          1           0      -13.579420    1.628379   -1.161979
     52          1           0      -12.414768    2.736278    0.080210
     53          1           0       11.414893   -0.692109    3.487300
     54          1           0       10.235869    0.192977    2.695411
     55          1           0       12.003909    0.508841    2.425256
     56          1           0       10.617409   -2.816418    0.372580
     57          1           0       10.743489   -2.838289    2.355894
     58          1           0        9.498778   -1.877478    1.412863
     59          1           0      -11.631119    0.082062    2.711928
     60          1           0      -10.610975   -1.409584    2.420701
     61          1           0      -12.393696   -1.424724    2.972193
     62          1           0      -13.491320   -3.015802    0.934924
     63          1           0      -11.706020   -3.034158    0.450084
     64          1           0      -12.890976   -2.321483   -0.743963
     65          1           0        9.019858   -0.444682    0.658966
     66          1           0      -10.168976   -2.271998   -0.694262
     67          1           0       10.113470    0.328807   -2.261117
     68          1           0       11.801252    1.499416   -2.415636
     69          1           0       11.747409   -0.159812   -3.216769
     70          1           0      -11.332118    2.161830   -2.548657
     71          1           0      -10.307387    0.734597   -2.410793
     72          1           0       -9.913125    2.412163   -1.404125
     73          1           0       14.778729   -3.135521    0.343743
     74          1           0      -15.134411    1.886190    1.873523
     75          1           0       10.251366    2.200274   -0.374722
     76          1           0       -8.619955    0.496924   -0.105402
     77          1           0        9.196794    4.040329   -0.413565
     78          1           0        7.107630    4.197400   -0.129406
     79          1           0        8.384492    4.016621    1.442377
     80          1           0       -8.024457   -3.590956   -0.250408
     81          1           0       -8.458840   -2.933457   -1.952819
     82          1           0       -6.667616   -3.066154   -1.313363
     83          1           0        7.053588    0.635486   -0.622966
     84          1           0       -6.639332    0.386780   -0.088930
     85          1           0        5.516674    3.219829    0.233861
     86          1           0       -5.022551   -2.151773   -0.712105
     87          1           0        4.721843    0.305882   -0.287849
     88          1           0       -4.139049    0.858958   -0.223536
     89          1           0        3.317056    3.336126    1.525616
     90          1           0        1.752145    3.398694    0.871140
     91          1           0        3.048298    3.664325   -0.312197
     92          1           0       -2.674204   -2.914963   -0.266784
     93          1           0       -2.930129   -2.370224   -1.914094
     94          1           0       -1.250550   -2.402272   -0.891556
     95          1           0        2.348728   -0.103346   -0.655627
     96          1           0       -1.998715    1.134481   -0.210718
     97          1           0        0.355062    2.032152   -0.053059
     98          1           0        0.159891   -0.998863   -0.611729
 ---------------------------------------------------------------------

 SCF Done:  E(RCAM-B3LYP) =  -1706.96080786     A.U. after   14 cycles

 Excitation energies and oscillator strengths:

 Excited State   1:      Singlet-A      2.7956 eV  443.50 nm  f=3.4486  <S**2>=0.000
     155 ->158        -0.17715
     156 ->157         0.67868
 This state for optimization and/or second-order correction.
 Total Energy, E(TD-HF/TD-DFT) =  -1706.85807288
 Copying the excited state density for this state as the 1-particle RhoCI density.

 The electronic state is 1-A.
 Alpha  occ. eigenvalues --  -19.20932 -19.20556 -10.30637 -10.29535 -10.28136
 Alpha  occ. eigenvalues --  -10.28069 -10.27861 -10.27512 -10.27386 -10.27358
 Alpha  occ. eigenvalues --  -10.27281 -10.27240 -10.27189 -10.27030 -10.26881
 Alpha  occ. eigenvalues --  -10.26875 -10.26726 -10.26544 -10.26376 -10.26259
 Alpha  occ. eigenvalues --  -10.26258 -10.26233 -10.26170 -10.26141 -10.26138
 Alpha  occ. eigenvalues --  -10.25969 -10.25960 -10.25914 -10.25898 -10.25844
 Alpha  occ. eigenvalues --  -10.25798 -10.25789 -10.25749 -10.25630 -10.25559
 Alpha  occ. eigenvalues --  -10.25515 -10.25358 -10.25285 -10.24950 -10.24647
 Alpha  occ. eigenvalues --  -10.24161 -10.24023  -1.08521  -1.07865  -0.96004
 Alpha  occ. eigenvalues --   -0.93918  -0.91694  -0.91083  -0.90338  -0.89558
 Alpha  occ. eigenvalues --   -0.87781  -0.87242  -0.86948  -0.85970  -0.84739
 Alpha  occ. eigenvalues --   -0.83147  -0.81696  -0.80134  -0.78807  -0.78113
 Alpha  occ. eigenvalues --   -0.77341  -0.76271  -0.76062  -0.75742  -0.75412
 Alpha  occ. eigenvalues --   -0.75277  -0.75123  -0.74653  -0.73965  -0.69958
 Alpha  occ. eigenvalues --   -0.68279  -0.67080  -0.65119  -0.64872  -0.63456
 Alpha  occ. eigenvalues --   -0.63219  -0.62612  -0.61997  -0.60871  -0.59903
 Alpha  occ. eigenvalues --   -0.59127  -0.58353  -0.58182  -0.57933  -0.56233
 Alpha  occ. eigenvalues --   -0.55837  -0.55362  -0.55078  -0.54162  -0.53750
 Alpha  occ. eigenvalues --   -0.53248  -0.52768  -0.52610  -0.51942  -0.51229
 Alpha  occ. eigenvalues --   -0.50474  -0.50195  -0.50053  -0.49906  -0.49715
 Alpha  occ. eigenvalues --   -0.49190  -0.48925  -0.48608  -0.48109  -0.47506
 Alpha  occ. eigenvalues --   -0.46899  -0.46663  -0.46463  -0.46328  -0.45963
 Alpha  occ. eigenvalues --   -0.45816  -0.45638  -0.45526  -0.44927  -0.44623
 Alpha  occ. eigenvalues --   -0.44205  -0.43811  -0.43751  -0.43322  -0.42997
 Alpha  occ. eigenvalues --   -0.42572  -0.42267  -0.42207  -0.42000  -0.41883
 Alpha  occ. eigenvalues --   -0.41561  -0.41426  -0.40784  -0.40644  -0.40613
 Alpha  occ. eigenvalues --   -0.40522  -0.40151  -0.39343  -0.39143  -0.38756
 Alpha  occ. eigenvalues --   -0.38708  -0.38652  -0.38500  -0.37885  -0.37670
 Alpha  occ. eigenvalues --   -0.37234  -0.37033  -0.36405  -0.35549  -0.35446
 Alpha  occ. eigenvalues --   -0.34854  -0.34378  -0.33717  -0.32166  -0.32152
 Alpha  occ. eigenvalues --   -0.31925  -0.30049  -0.28784  -0.27032  -0.23878
 Alpha  occ. eigenvalues --   -0.20796
 Alpha virt. eigenvalues --   -0.04069  -0.00547   0.03084   0.05921   0.07501
 Alpha virt. eigenvalues --    0.09140   0.10714   0.11199   0.11673   0.12024
 Alpha virt. eigenvalues --    0.12231   0.12407   0.12635   0.13123   0.13336

 Mulliken charges:
               1
     1  O   -0.559738
     2  O   -0.573388
     3  C   -0.020334
     4  C   -0.004087
     5  C   -0.168420
     6  C   -0.168075
     7  C    0.151789
     8  C    0.186318
     9  C    0.104160
    10  C    0.065387
    11  C   -0.197709
    12  C   -0.221244
    13  C    0.004212
    14  C    0.079633
    15  C   -0.291139
    16  C   -0.290766
    17  C   -0.294929
    18  C   -0.296208
    19  C   -0.133513
    20  C   -0.175812
    21  C   -0.344236
    22  C   -0.357402
    23  C   -0.101463
    24  C   -0.087240
    25  C    0.093038
    26  C    0.128758
    27  C   -0.339918
    28  C   -0.371661
    29  C   -0.111187
    30  C   -0.099517
    31  C   -0.115070
    32  C   -0.099395
    33  C   -0.103985
    34  C   -0.101652
    35  C    0.078646
    36  C    0.087284
    37  C   -0.365398
    38  C   -0.376083
    39  C   -0.124636
    40  C   -0.103035
    41  C   -0.067813
    42  C   -0.082569
    43  H    0.089123
    44  H    0.078555
    45  H    0.083911
    46  H    0.076571
    47  H    0.052873
    48  H    0.085239
    49  H    0.104370
    50  H    0.120843
    51  H    0.103617
    52  H    0.095539
    53  H    0.077552
    54  H    0.104557
    55  H    0.114302
    56  H    0.098693
    57  H    0.102917
    58  H    0.090139
    59  H    0.076016
    60  H    0.097445
    61  H    0.100758
    62  H    0.098111
    63  H    0.107379
    64  H    0.086701
    65  H    0.084149
    66  H    0.083769
    67  H    0.119621
    68  H    0.113825
    69  H    0.090031
    70  H    0.112938
    71  H    0.119132
    72  H    0.088644
    73  H    0.296640
    74  H    0.303608
    75  H    0.080868
    76  H    0.081752
    77  H    0.100088
    78  H    0.078880
    79  H    0.137855
    80  H    0.108190
    81  H    0.105677
    82  H    0.098647
    83  H    0.090099
    84  H    0.064134
    85  H    0.077058
    86  H    0.101140
    87  H    0.087401
    88  H    0.077822
    89  H    0.120729
    90  H    0.109693
    91  H    0.142088
    92  H    0.126616
    93  H    0.134929
    94  H    0.088998
    95  H    0.075162
    96  H    0.062122
    97  H    0.079374
    98  H    0.081508
 Sum of Mulliken charges =  -0.00000

 Dipole moment (field-independent basis, Debye):
    X=              0.3278    Y=             -0.8735    Z=              2.3789  Tot=              2.5553
 Quadrupole moment (field-independent basis, Debye-Ang):
   XX=           -299.3147   YY=           -244.5869   ZZ=           -258.5017
   XY=              9.0569   XZ=             -5.0225   YZ=              2.3959

 Normal termination of Gaussian 16 at Sat Jun 29 01:23:30 2019.
