 Gaussian 16, Revision A.03,
 Gaussian 16:  ES64L-G16RevA.03 25-Dec-2016

 -------------------------------------
 # td=(NStates=1) CAM-B3LYP/6-31G(d,p)
 -------------------------------------

 --
 TD
 --
 Symbolic Z-matrix:
 Charge =  0 Multiplicity = 1

                         Standard orientation:
 ---------------------------------------------------------------------
 Center     Atomic      Atomic             Coordinates (Angstroms)
 Number     Number       Type             X           Y           Z
 ---------------------------------------------------------------------
      1          8           0       14.749640   -2.065988   -0.274953
      2          8           0      -14.856085    1.868183    0.784259
      3          6           0       11.273855   -1.243770    1.174113
      4          6           0      -12.256028   -0.967032    0.810627
      5          6           0       12.853657   -1.549397    1.157715
      6          6           0      -13.620018   -0.197341    0.802917
      7          6           0       13.326648   -1.878082   -0.329685
      8          6           0      -13.575884    1.331270    0.748513
      9          6           0       10.946397   -0.361393   -0.106824
     10          6           0      -11.324703   -0.441739   -0.197011
     11          6           0       13.042060   -0.775434   -1.293075
     12          6           0      -12.846355    1.662059   -0.610182
     13          6           0       11.526323   -0.211641   -1.213069
     14          6           0      -11.530166    0.875096   -0.714956
     15          6           0       10.978280   -0.633581    2.528300
     16          6           0       10.537333   -2.711027    1.144973
     17          6           0      -11.646538   -0.899864    2.178463
     18          6           0      -12.477445   -2.450384    0.401957
     19          6           0        9.599150    0.301704    0.103058
     20          6           0      -10.100160   -1.225741   -0.324884
     21          6           0       11.202455    0.646502   -2.364454
     22          6           0      -10.682934    1.441799   -1.823399
     23          6           0        9.374585    1.694457   -0.053158
     24          6           0       -8.888529   -0.651496   -0.251198
     25          6           0        8.045465    2.252963    0.177315
     26          6           0       -7.585265   -1.168344   -0.459436
     27          6           0        8.132770    3.753534    0.664546
     28          6           0       -7.627180   -2.645279   -0.783926
     29          6           0        6.839967    1.652613   -0.115665
     30          6           0       -6.413320   -0.457305   -0.362189
     31          6           0        5.561559    2.056741    0.286606
     32          6           0       -5.070183   -1.017752   -0.544665
     33          6           0        4.449106    1.256060    0.048926
     34          6           0       -3.894806   -0.224839   -0.413499
     35          6           0        3.124148    1.680009    0.201807
     36          6           0       -2.550182   -0.579546   -0.569994
     37          6           0        2.868803    3.020260    0.776872
     38          6           0       -2.257910   -2.005204   -1.066067
     39          6           0        2.112991    0.782637   -0.180277
     40          6           0       -1.571459    0.284708   -0.328140
     41          6           0        0.713922    0.941751   -0.027822
     42          6           0       -0.117595    0.065568   -0.449871
     43          1           0       13.369592   -0.816380    1.458906
     44          1           0       13.154439   -2.385830    1.713840
     45          1           0      -14.312559   -0.569458    1.704475
     46          1           0      -13.947740   -0.442894   -0.071950
     47          1           0       12.765571   -2.870309   -0.632910
     48          1           0      -13.015905    1.729161    1.570482
     49          1           0       13.856331   -0.022681   -1.067694
     50          1           0       12.941659   -1.001919   -2.358518
     51          1           0      -13.311970    1.207115   -1.578112
     52          1           0      -12.567323    2.780576   -0.488744
     53          1           0       11.365614   -1.319666    3.363638
     54          1           0        9.969883   -0.614802    2.638961
     55          1           0       11.395680    0.603352    2.529570
     56          1           0       10.969676   -3.192652    0.108623
     57          1           0       10.773135   -3.442009    2.012271
     58          1           0        9.468689   -2.483693    1.136814
     59          1           0      -11.663289    0.127589    2.495913
     60          1           0      -10.567030   -1.039242    2.219717
     61          1           0      -12.131852   -1.541766    2.942548
     62          1           0      -13.122294   -2.948895    1.213867
     63          1           0      -11.517517   -2.954453    0.513226
     64          1           0      -12.786904   -2.846671   -0.634944
     65          1           0        8.760635   -0.179001    0.544276
     66          1           0      -10.300800   -2.142225   -0.584331
     67          1           0       10.085924    0.849089   -2.427004
     68          1           0       11.936894    1.549099   -2.383475
     69          1           0       11.325972    0.255119   -3.373094
     70          1           0      -11.266743    1.452981   -2.910473
     71          1           0       -9.791184    0.983596   -2.006953
     72          1           0      -10.345718    2.411900   -1.390153
     73          1           0       14.989761   -2.847394    0.278150
     74          1           0      -15.160912    1.514286    1.641805
     75          1           0       10.210413    2.294545   -0.447397
     76          1           0       -9.033130    0.441005    0.029556
     77          1           0        8.561830    4.341593   -0.005497
     78          1           0        7.267392    4.224961    0.568659
     79          1           0        8.688385    3.809455    1.576898
     80          1           0       -8.271458   -3.362304   -0.220740
     81          1           0       -8.017084   -2.923473   -1.769310
     82          1           0       -6.837257   -3.176642   -0.886833
     83          1           0        6.741434    0.645819   -0.770627
     84          1           0       -6.296880    0.479573    0.093216
     85          1           0        5.491161    3.165155    0.864122
     86          1           0       -5.116775   -1.920212   -1.049082
     87          1           0        4.735944    0.152836   -0.371577
     88          1           0       -4.131172    0.722145   -0.115233
     89          1           0        3.228675    3.091683    1.950077
     90          1           0        1.884509    3.088484    0.906035
     91          1           0        3.263042    3.716650    0.139665
     92          1           0       -2.798644   -2.668594   -0.368866
     93          1           0       -2.712243   -2.281113   -2.186684
     94          1           0       -1.185896   -2.268885   -0.909378
     95          1           0        2.429140   -0.183020   -0.568583
     96          1           0       -1.757755    1.135959    0.134829
     97          1           0        0.309025    1.672272    0.270508
     98          1           0        0.042295   -0.838598   -0.856490
 ---------------------------------------------------------------------

 SCF Done:  E(RCAM-B3LYP) =  -1706.87463285     A.U. after   15 cycles

 Excitation energies and oscillator strengths:

 Excited State   1:      Singlet-A      2.5593 eV  484.45 nm  f=3.8130  <S**2>=0.000
     155 ->158         0.18773
     156 ->157         0.67690
 This state for optimization and/or second-order correction.
 Total Energy, E(TD-HF/TD-DFT) =  -1706.78058136
 Copying the excited state density for this state as the 1-particle RhoCI density.

 The electronic state is 1-A.
 Alpha  occ. eigenvalues --  -19.21220 -19.20929 -10.30980 -10.30014 -10.28661
 Alpha  occ. eigenvalues --  -10.27787 -10.27748 -10.27377 -10.27186 -10.27046
 Alpha  occ. eigenvalues --  -10.27032 -10.27002 -10.27001 -10.26912 -10.26769
 Alpha  occ. eigenvalues --  -10.26740 -10.26708 -10.26461 -10.26360 -10.26293
 Alpha  occ. eigenvalues --  -10.26228 -10.26210 -10.26178 -10.26074 -10.26039
 Alpha  occ. eigenvalues --  -10.26034 -10.25983 -10.25702 -10.25614 -10.25438
 Alpha  occ. eigenvalues --  -10.25419 -10.25071 -10.25034 -10.24770 -10.24522
 Alpha  occ. eigenvalues --  -10.24411 -10.24138 -10.24040 -10.23705 -10.23540
 Alpha  occ. eigenvalues --  -10.23376 -10.22983  -1.10657  -1.08162  -0.93966
 Alpha  occ. eigenvalues --   -0.93158  -0.92892  -0.91569  -0.90687  -0.89641
 Alpha  occ. eigenvalues --   -0.88182  -0.86802  -0.86441  -0.85650  -0.84303
 Alpha  occ. eigenvalues --   -0.82954  -0.82358  -0.80049  -0.79967  -0.78476
 Alpha  occ. eigenvalues --   -0.77343  -0.77083  -0.76449  -0.76274  -0.75785
 Alpha  occ. eigenvalues --   -0.75306  -0.74794  -0.74406  -0.73948  -0.71285
 Alpha  occ. eigenvalues --   -0.69301  -0.67680  -0.66112  -0.65583  -0.64768
 Alpha  occ. eigenvalues --   -0.64148  -0.63490  -0.63082  -0.61845  -0.60686
 Alpha  occ. eigenvalues --   -0.58851  -0.58657  -0.58368  -0.58184  -0.56991
 Alpha  occ. eigenvalues --   -0.55506  -0.55142  -0.54606  -0.54160  -0.53680
 Alpha  occ. eigenvalues --   -0.52925  -0.52613  -0.51904  -0.51681  -0.51430
 Alpha  occ. eigenvalues --   -0.50815  -0.50500  -0.50442  -0.49770  -0.49390
 Alpha  occ. eigenvalues --   -0.49196  -0.49070  -0.48836  -0.48610  -0.48084
 Alpha  occ. eigenvalues --   -0.47196  -0.47067  -0.47015  -0.46373  -0.46229
 Alpha  occ. eigenvalues --   -0.45467  -0.45361  -0.45076  -0.44855  -0.44577
 Alpha  occ. eigenvalues --   -0.44370  -0.44266  -0.44074  -0.44024  -0.43696
 Alpha  occ. eigenvalues --   -0.43448  -0.43295  -0.43113  -0.42735  -0.42513
 Alpha  occ. eigenvalues --   -0.42170  -0.41978  -0.41390  -0.41244  -0.40913
 Alpha  occ. eigenvalues --   -0.40578  -0.40437  -0.40360  -0.40115  -0.39495
 Alpha  occ. eigenvalues --   -0.39081  -0.38875  -0.38790  -0.38221  -0.38025
 Alpha  occ. eigenvalues --   -0.37669  -0.37467  -0.36220  -0.35803  -0.35545
 Alpha  occ. eigenvalues --   -0.34969  -0.34557  -0.33697  -0.32313  -0.31791
 Alpha  occ. eigenvalues --   -0.30770  -0.30242  -0.28258  -0.26697  -0.23385
 Alpha  occ. eigenvalues --   -0.20315
 Alpha virt. eigenvalues --   -0.04762  -0.01185   0.02918   0.05270   0.07582
 Alpha virt. eigenvalues --    0.09004   0.10690   0.11554   0.11716   0.12323
 Alpha virt. eigenvalues --    0.12521   0.12613   0.13423   0.13780   0.14245

 Mulliken charges:
               1
     1  O   -0.570258
     2  O   -0.541506
     3  C   -0.023371
     4  C   -0.004936
     5  C   -0.157915
     6  C   -0.178127
     7  C    0.152769
     8  C    0.177299
     9  C    0.080534
    10  C    0.044589
    11  C   -0.198120
    12  C   -0.221565
    13  C    0.045976
    14  C   -0.014037
    15  C   -0.269513
    16  C   -0.300207
    17  C   -0.304758
    18  C   -0.325783
    19  C   -0.145773
    20  C   -0.082673
    21  C   -0.375493
    22  C   -0.328587
    23  C   -0.105749
    24  C   -0.121394
    25  C    0.031545
    26  C    0.134778
    27  C   -0.354320
    28  C   -0.387415
    29  C   -0.113365
    30  C   -0.138070
    31  C   -0.075256
    32  C   -0.090400
    33  C   -0.126614
    34  C   -0.114249
    35  C    0.097853
    36  C    0.131557
    37  C   -0.348821
    38  C   -0.367429
    39  C   -0.138182
    40  C   -0.135396
    41  C    0.006591
    42  C   -0.050990
    43  H    0.104199
    44  H    0.073887
    45  H    0.051599
    46  H    0.111685
    47  H    0.057488
    48  H    0.076873
    49  H    0.115613
    50  H    0.103741
    51  H    0.127257
    52  H    0.106000
    53  H    0.097048
    54  H    0.110757
    55  H    0.068013
    56  H    0.086338
    57  H    0.100931
    58  H    0.107827
    59  H    0.099953
    60  H    0.111407
    61  H    0.095455
    62  H    0.085572
    63  H    0.108869
    64  H    0.101525
    65  H    0.090770
    66  H    0.083527
    67  H    0.124231
    68  H    0.116037
    69  H    0.113981
    70  H    0.085087
    71  H    0.125195
    72  H    0.104507
    73  H    0.306910
    74  H    0.303673
    75  H    0.097493
    76  H    0.078981
    77  H    0.125437
    78  H    0.104421
    79  H    0.125090
    80  H    0.113423
    81  H    0.111712
    82  H    0.110517
    83  H    0.075394
    84  H    0.083299
    85  H    0.083799
    86  H    0.080186
    87  H    0.076664
    88  H    0.074088
    89  H    0.097865
    90  H    0.116158
    91  H    0.135193
    92  H    0.123313
    93  H    0.100398
    94  H    0.108144
    95  H    0.079444
    96  H    0.063457
    97  H    0.027870
    98  H    0.058479
 Sum of Mulliken charges =  -0.00000

 Dipole moment (field-independent basis, Debye):
    X=              1.3250    Y=             -1.3527    Z=              1.5031  Tot=              2.4176
 Quadrupole moment (field-independent basis, Debye-Ang):
   XX=           -298.3823   YY=           -243.1172   ZZ=           -256.8874
   XY=             13.3795   XZ=             -3.8362   YZ=              2.2437

 Normal termination of Gaussian 16 at Wed Jul  3 20:08:55 2019.
