 Gaussian 16, Revision A.03,
 Gaussian 16:  ES64L-G16RevA.03 25-Dec-2016

 -------------------------------------
 # td=(NStates=1) CAM-B3LYP/6-31G(d,p)
 -------------------------------------

 --
 TD
 --
 Symbolic Z-matrix:
 Charge =  0 Multiplicity = 1

                         Standard orientation:
 ---------------------------------------------------------------------
 Center     Atomic      Atomic             Coordinates (Angstroms)
 Number     Number       Type             X           Y           Z
 ---------------------------------------------------------------------
      1          8           0       14.686746   -2.234507   -0.423561
      2          8           0      -14.840900    1.929906    0.658947
      3          6           0       11.410342   -1.148236    1.184711
      4          6           0      -12.310077   -0.887936    0.831379
      5          6           0       12.851677   -1.566371    1.028798
      6          6           0      -13.712206   -0.174348    0.759074
      7          6           0       13.304663   -1.993937   -0.374626
      8          6           0      -13.497937    1.245550    0.797408
      9          6           0       11.028016   -0.317970    0.036371
     10          6           0      -11.336157   -0.297356   -0.178463
     11          6           0       13.019555   -0.849661   -1.319531
     12          6           0      -12.811836    1.673204   -0.572702
     13          6           0       11.715111   -0.129197   -1.062014
     14          6           0      -11.661993    0.884460   -0.824335
     15          6           0       11.183997   -0.261692    2.498060
     16          6           0       10.474387   -2.437083    1.292786
     17          6           0      -11.780307   -0.826562    2.197302
     18          6           0      -12.471281   -2.435004    0.444324
     19          6           0        9.668777    0.440075    0.097157
     20          6           0      -10.030539   -0.991149   -0.366308
     21          6           0       11.355432    0.590465   -2.333098
     22          6           0      -10.783069    1.480389   -1.806570
     23          6           0        9.319466    1.640194   -0.161067
     24          6           0       -8.817068   -0.466765   -0.315165
     25          6           0        8.064473    2.236967    0.050177
     26          6           0       -7.630776   -1.202503   -0.605559
     27          6           0        8.138461    3.674737    0.436640
     28          6           0       -7.793211   -2.659643   -1.026119
     29          6           0        6.923398    1.554944   -0.117730
     30          6           0       -6.421845   -0.607806   -0.367358
     31          6           0        5.549289    2.053722    0.207250
     32          6           0       -5.084326   -1.094430   -0.464506
     33          6           0        4.464634    1.334593    0.048670
     34          6           0       -3.958876   -0.453137   -0.123131
     35          6           0        3.135616    1.665484    0.204624
     36          6           0       -2.546054   -0.842146   -0.367487
     37          6           0        2.857258    3.150615    0.633221
     38          6           0       -2.320355   -2.210969   -0.851510
     39          6           0        2.101136    0.762345   -0.010940
     40          6           0       -1.552728    0.116326   -0.227190
     41          6           0        0.698895    0.873123    0.011145
     42          6           0       -0.194790   -0.006720   -0.300940
     43          1           0       13.554023   -0.746951    1.392647
     44          1           0       13.233690   -2.331422    1.781074
     45          1           0      -14.212182   -0.596476    1.623226
     46          1           0      -14.253177   -0.603490   -0.132611
     47          1           0       12.777274   -3.000645   -0.708618
     48          1           0      -12.736540    1.546944    1.533545
     49          1           0       13.804763   -0.224970   -0.973088
     50          1           0       13.055582   -1.198792   -2.265649
     51          1           0      -13.445465    1.600813   -1.397901
     52          1           0      -12.707314    2.666047   -0.432285
     53          1           0       11.776878   -0.534607    3.504355
     54          1           0       10.143242   -0.221336    2.687094
     55          1           0       11.632295    0.776757    2.246883
     56          1           0       10.656578   -3.104593    0.460768
     57          1           0       10.838771   -3.034757    2.270302
     58          1           0        9.386368   -2.391525    1.636397
     59          1           0      -11.539019    0.198292    2.409359
     60          1           0      -10.889202   -1.511611    2.324089
     61          1           0      -12.590370   -1.165367    2.840729
     62          1           0      -13.190987   -2.839284    1.213427
     63          1           0      -11.673970   -3.150821    0.575167
     64          1           0      -12.948200   -2.520233   -0.540316
     65          1           0        8.917029   -0.320799    0.525359
     66          1           0      -10.198182   -2.033466   -0.809193
     67          1           0       10.270362    0.714633   -2.399222
     68          1           0       11.875058    1.497613   -2.389007
     69          1           0       11.556380    0.039314   -3.312061
     70          1           0      -11.514318    2.073003   -2.437785
     71          1           0      -10.077613    0.629900   -2.428207
     72          1           0      -10.058255    2.155581   -1.125082
     73          1           0       14.951184   -2.815203    0.408112
     74          1           0      -15.387606    1.487722    1.299683
     75          1           0       10.009597    2.333203   -0.583833
     76          1           0       -8.611256    0.517176    0.054610
     77          1           0        8.557826    4.265589   -0.602069
     78          1           0        7.095848    4.054111    0.618174
     79          1           0        8.650017    3.687046    1.473139
     80          1           0       -8.201508   -3.331966   -0.362592
     81          1           0       -8.313414   -2.698947   -2.024057
     82          1           0       -6.810582   -3.123484   -1.397623
     83          1           0        6.964995    0.390745   -0.558341
     84          1           0       -6.434855    0.465273    0.024452
     85          1           0        5.713929    3.076378    0.283449
     86          1           0       -4.884046   -2.261906   -0.636067
     87          1           0        4.621773    0.258114   -0.356870
     88          1           0       -3.962891    0.627648    0.205131
     89          1           0        3.267000    3.365322    1.462957
     90          1           0        1.653887    3.214067    0.765858
     91          1           0        3.277234    3.905059   -0.069765
     92          1           0       -2.677705   -2.999170   -0.171659
     93          1           0       -2.758354   -2.533013   -1.856636
     94          1           0       -1.274896   -2.463767   -0.761683
     95          1           0        2.435215   -0.203523   -0.315084
     96          1           0       -1.970715    1.059366    0.010114
     97          1           0        0.336509    1.836856    0.281917
     98          1           0        0.247651   -1.143062   -0.644280
 ---------------------------------------------------------------------

 SCF Done:  E(RCAM-B3LYP) =  -1707.02356155     A.U. after   14 cycles

 Excitation energies and oscillator strengths:

 Excited State   1:      Singlet-A      2.7595 eV  449.30 nm  f=3.7830  <S**2>=0.000
     155 ->158         0.15725
     156 ->157         0.68556
 This state for optimization and/or second-order correction.
 Total Energy, E(TD-HF/TD-DFT) =  -1706.92215292
 Copying the excited state density for this state as the 1-particle RhoCI density.

 The electronic state is 1-A.
 Alpha  occ. eigenvalues --  -19.21820 -19.20971 -10.30739 -10.30691 -10.28598
 Alpha  occ. eigenvalues --  -10.28265 -10.27818 -10.27368 -10.27364 -10.27078
 Alpha  occ. eigenvalues --  -10.26880 -10.26855 -10.26800 -10.26648 -10.26616
 Alpha  occ. eigenvalues --  -10.26577 -10.26495 -10.26213 -10.26111 -10.26042
 Alpha  occ. eigenvalues --  -10.25937 -10.25884 -10.25864 -10.25816 -10.25803
 Alpha  occ. eigenvalues --  -10.25752 -10.25700 -10.25572 -10.25571 -10.25399
 Alpha  occ. eigenvalues --  -10.25380 -10.25374 -10.25304 -10.25176 -10.25127
 Alpha  occ. eigenvalues --  -10.25013 -10.24823 -10.24636 -10.24220 -10.24049
 Alpha  occ. eigenvalues --  -10.23240 -10.23151  -1.08921  -1.07443  -0.94225
 Alpha  occ. eigenvalues --   -0.94114  -0.92628  -0.92025  -0.91316  -0.90497
 Alpha  occ. eigenvalues --   -0.88344  -0.88235  -0.86894  -0.85714  -0.84810
 Alpha  occ. eigenvalues --   -0.83463  -0.82361  -0.80364  -0.80019  -0.78782
 Alpha  occ. eigenvalues --   -0.76865  -0.76516  -0.76303  -0.76094  -0.75899
 Alpha  occ. eigenvalues --   -0.75716  -0.75119  -0.75054  -0.74098  -0.70920
 Alpha  occ. eigenvalues --   -0.68918  -0.67480  -0.66385  -0.65067  -0.64944
 Alpha  occ. eigenvalues --   -0.63563  -0.62654  -0.61346  -0.60641  -0.59448
 Alpha  occ. eigenvalues --   -0.59061  -0.58087  -0.57955  -0.57487  -0.56355
 Alpha  occ. eigenvalues --   -0.55940  -0.55254  -0.55231  -0.54966  -0.53416
 Alpha  occ. eigenvalues --   -0.53233  -0.52323  -0.52138  -0.51690  -0.50824
 Alpha  occ. eigenvalues --   -0.50543  -0.50257  -0.49948  -0.49807  -0.49531
 Alpha  occ. eigenvalues --   -0.49443  -0.49347  -0.49024  -0.48596  -0.48458
 Alpha  occ. eigenvalues --   -0.48210  -0.47921  -0.47528  -0.46835  -0.46693
 Alpha  occ. eigenvalues --   -0.46167  -0.45942  -0.45523  -0.45190  -0.44527
 Alpha  occ. eigenvalues --   -0.44414  -0.43980  -0.43674  -0.43571  -0.43287
 Alpha  occ. eigenvalues --   -0.43080  -0.42923  -0.42323  -0.42078  -0.42017
 Alpha  occ. eigenvalues --   -0.41921  -0.41535  -0.41493  -0.41247  -0.40975
 Alpha  occ. eigenvalues --   -0.40766  -0.40404  -0.39877  -0.39398  -0.39296
 Alpha  occ. eigenvalues --   -0.39175  -0.39063  -0.38076  -0.37807  -0.37698
 Alpha  occ. eigenvalues --   -0.37658  -0.36886  -0.36378  -0.36090  -0.35772
 Alpha  occ. eigenvalues --   -0.35252  -0.34977  -0.34285  -0.32757  -0.32319
 Alpha  occ. eigenvalues --   -0.32014  -0.29761  -0.28043  -0.26585  -0.24478
 Alpha  occ. eigenvalues --   -0.20953
 Alpha virt. eigenvalues --   -0.04545   0.00094   0.03672   0.06471   0.08294
 Alpha virt. eigenvalues --    0.09954   0.10763   0.11485   0.11720   0.12284
 Alpha virt. eigenvalues --    0.12581   0.12658   0.13032   0.13444   0.13761

 Mulliken charges:
               1
     1  O   -0.561991
     2  O   -0.571689
     3  C   -0.002004
     4  C   -0.052490
     5  C   -0.217061
     6  C   -0.180002
     7  C    0.174116
     8  C    0.136134
     9  C    0.081898
    10  C    0.057991
    11  C   -0.198408
    12  C   -0.222123
    13  C    0.032039
    14  C    0.058744
    15  C   -0.303006
    16  C   -0.312616
    17  C   -0.278509
    18  C   -0.322809
    19  C   -0.124774
    20  C   -0.158185
    21  C   -0.369523
    22  C   -0.334088
    23  C   -0.064080
    24  C   -0.060932
    25  C    0.063497
    26  C    0.126773
    27  C   -0.352681
    28  C   -0.382200
    29  C   -0.117323
    30  C   -0.143851
    31  C   -0.080081
    32  C   -0.081907
    33  C   -0.107051
    34  C   -0.113920
    35  C    0.113598
    36  C    0.122696
    37  C   -0.355823
    38  C   -0.392186
    39  C   -0.139836
    40  C   -0.122165
    41  C   -0.059808
    42  C   -0.060948
    43  H    0.097586
    44  H    0.069350
    45  H    0.081137
    46  H    0.105605
    47  H    0.055148
    48  H    0.100822
    49  H    0.128299
    50  H    0.111444
    51  H    0.130155
    52  H    0.124954
    53  H    0.083337
    54  H    0.119357
    55  H    0.099834
    56  H    0.115685
    57  H    0.078543
    58  H    0.108669
    59  H    0.099410
    60  H    0.104673
    61  H    0.093863
    62  H    0.081461
    63  H    0.110036
    64  H    0.104363
    65  H    0.075107
    66  H    0.094295
    67  H    0.119199
    68  H    0.127812
    69  H    0.101422
    70  H    0.095478
    71  H    0.095167
    72  H    0.102867
    73  H    0.307134
    74  H    0.299667
    75  H    0.080481
    76  H    0.082133
    77  H    0.104139
    78  H    0.106595
    79  H    0.129172
    80  H    0.136068
    81  H    0.116602
    82  H    0.097637
    83  H    0.063181
    84  H    0.077804
    85  H    0.073350
    86  H    0.076770
    87  H    0.074653
    88  H    0.068368
    89  H    0.136457
    90  H    0.082940
    91  H    0.114983
    92  H    0.117710
    93  H    0.123958
    94  H    0.107668
    95  H    0.069690
    96  H    0.079443
    97  H    0.073901
    98  H    0.061001
 Sum of Mulliken charges =  -0.00000

 Dipole moment (field-independent basis, Debye):
    X=              0.6103    Y=             -1.4834    Z=              1.9605  Tot=              2.5331
 Quadrupole moment (field-independent basis, Debye-Ang):
   XX=           -268.0851   YY=           -247.2774   ZZ=           -259.9629
   XY=             20.2955   XZ=              3.7817   YZ=              0.5221

 Normal termination of Gaussian 16 at Thu Jun 27 20:14:19 2019.
