 Gaussian 16, Revision A.03,
 Gaussian 16:  ES64L-G16RevA.03 25-Dec-2016

 -------------------------------------
 # td=(NStates=1) CAM-B3LYP/6-31G(d,p)
 -------------------------------------

 --
 TD
 --
 Symbolic Z-matrix:
 Charge =  0 Multiplicity = 1

                         Standard orientation:
 ---------------------------------------------------------------------
 Center     Atomic      Atomic             Coordinates (Angstroms)
 Number     Number       Type             X           Y           Z
 ---------------------------------------------------------------------
      1          8           0       14.801352   -2.153869   -0.235019
      2          8           0      -14.654333    2.136533    0.886666
      3          6           0       11.599375   -0.911767    1.296933
      4          6           0      -12.490935   -1.079776    0.586975
      5          6           0       13.077540   -1.351668    1.181160
      6          6           0      -13.696201   -0.211621    0.590016
      7          6           0       13.386444   -1.902158   -0.132767
      8          6           0      -13.478995    1.358697    0.906337
      9          6           0       11.021617   -0.332553   -0.022281
     10          6           0      -11.283450   -0.312304   -0.127258
     11          6           0       13.027205   -0.933359   -1.226064
     12          6           0      -12.653174    1.844690   -0.345309
     13          6           0       11.554034   -0.360175   -1.204342
     14          6           0      -11.398436    0.952484   -0.655872
     15          6           0       11.299847   -0.062039    2.512888
     16          6           0       10.706324   -2.232194    1.493804
     17          6           0      -12.102499   -1.349946    2.099330
     18          6           0      -12.818893   -2.403835   -0.105363
     19          6           0        9.594076    0.328530    0.090088
     20          6           0      -10.080164   -1.029248   -0.532176
     21          6           0       10.982869    0.019069   -2.588246
     22          6           0      -10.419709    1.693050   -1.687195
     23          6           0        9.349583    1.587746   -0.291757
     24          6           0       -8.878982   -0.549940   -0.203825
     25          6           0        8.061982    2.263264   -0.078045
     26          6           0       -7.526697   -1.181023   -0.449201
     27          6           0        8.055122    3.741099    0.357043
     28          6           0       -7.700677   -2.687812   -0.844136
     29          6           0        6.932305    1.414779   -0.208046
     30          6           0       -6.392146   -0.591858   -0.175248
     31          6           0        5.603413    1.937168    0.026444
     32          6           0       -5.038571   -1.181555   -0.309779
     33          6           0        4.450042    1.220224   -0.190088
     34          6           0       -3.973358   -0.318067   -0.130542
     35          6           0        3.080433    1.647856   -0.049956
     36          6           0       -2.651904   -0.716989   -0.311609
     37          6           0        2.822347    3.004955    0.478492
     38          6           0       -2.367339   -2.107043   -0.672946
     39          6           0        2.054339    0.712530   -0.190891
     40          6           0       -1.664252    0.138404   -0.028831
     41          6           0        0.639510    0.902869   -0.006016
     42          6           0       -0.227637   -0.104653   -0.222812
     43          1           0       13.552185   -0.438133    1.257423
     44          1           0       13.311667   -1.976751    2.090719
     45          1           0      -14.258239   -0.652057    1.377116
     46          1           0      -14.277121   -0.365489   -0.345530
     47          1           0       12.917782   -2.862703   -0.118534
     48          1           0      -12.921784    1.585442    1.773415
     49          1           0       13.791400   -0.119729   -1.180227
     50          1           0       13.152711   -1.525372   -2.457061
     51          1           0      -13.443499    1.676041   -1.123825
     52          1           0      -12.492135    2.841235   -0.318881
     53          1           0       11.491292   -0.455948    3.711480
     54          1           0       10.257737    0.523578    2.393813
     55          1           0       11.838353    0.884986    2.300855
     56          1           0       10.462836   -3.079103    0.726041
     57          1           0       10.994887   -2.618936    2.557453
     58          1           0        9.719298   -1.888862    1.678694
     59          1           0      -11.929426   -0.380692    2.668038
     60          1           0      -11.224908   -1.937162    2.290977
     61          1           0      -13.075646   -1.851233    2.740698
     62          1           0      -13.708197   -2.500399    0.224791
     63          1           0      -12.178888   -3.293339    0.001640
     64          1           0      -12.892656   -2.335015   -1.278091
     65          1           0        8.772464   -0.249921    0.629374
     66          1           0      -10.200280   -2.115762   -0.729512
     67          1           0       10.132375    0.566868   -2.532936
     68          1           0       11.643261    0.651204   -3.044371
     69          1           0       10.851313   -0.985321   -3.232493
     70          1           0      -11.050234    1.973393   -2.496878
     71          1           0       -9.693592    1.106669   -2.049661
     72          1           0       -9.848716    2.544060   -1.157134
     73          1           0       15.051699   -2.832956    0.389325
     74          1           0      -15.436791    1.563921    1.357125
     75          1           0       10.072069    2.438367   -0.817332
     76          1           0       -8.827287    0.555274   -0.002689
     77          1           0        8.864759    4.472027   -0.113411
     78          1           0        7.180791    4.229431    0.518503
     79          1           0        8.475316    3.744306    1.526341
     80          1           0       -8.236938   -3.187766    0.007256
     81          1           0       -8.355289   -2.872328   -1.955355
     82          1           0       -6.462876   -2.943375   -0.993039
     83          1           0        7.116968    0.444561   -0.671341
     84          1           0       -6.494758    0.487493    0.079039
     85          1           0        5.436088    3.005479    0.338773
     86          1           0       -5.049738   -2.154483   -0.982655
     87          1           0        4.514893    0.247370   -0.703667
     88          1           0       -3.985620    0.706710    0.396985
     89          1           0        3.394888    3.221159    1.250868
     90          1           0        1.655834    3.436997    0.603179
     91          1           0        3.276953    3.770167   -0.213892
     92          1           0       -2.871285   -2.913869   -0.149404
     93          1           0       -2.617830   -2.249619   -1.802591
     94          1           0       -1.274527   -2.440001   -0.704317
     95          1           0        2.442630   -0.317869   -0.673409
     96          1           0       -1.781313    1.057945    0.269499
     97          1           0        0.185397    1.928223    0.253767
     98          1           0        0.129246   -1.115007   -0.551578
 ---------------------------------------------------------------------

 SCF Done:  E(RCAM-B3LYP) =  -1706.92070441     A.U. after   14 cycles

 Excitation energies and oscillator strengths:

 Excited State   1:      Singlet-A      2.7676 eV  447.98 nm  f=3.5978  <S**2>=0.000
     155 ->158         0.16589
     156 ->157         0.68150
 This state for optimization and/or second-order correction.
 Total Energy, E(TD-HF/TD-DFT) =  -1706.81899580
 Copying the excited state density for this state as the 1-particle RhoCI density.

 The electronic state is 1-A.
 Alpha  occ. eigenvalues --  -19.22123 -19.20130 -10.30438 -10.29651 -10.28769
 Alpha  occ. eigenvalues --  -10.28710 -10.28528 -10.28520 -10.28166 -10.27729
 Alpha  occ. eigenvalues --  -10.27714 -10.27694 -10.27501 -10.27429 -10.27416
 Alpha  occ. eigenvalues --  -10.27382 -10.27079 -10.26957 -10.26939 -10.26934
 Alpha  occ. eigenvalues --  -10.26733 -10.26612 -10.26560 -10.26457 -10.26428
 Alpha  occ. eigenvalues --  -10.26412 -10.26159 -10.26144 -10.26008 -10.25966
 Alpha  occ. eigenvalues --  -10.25719 -10.25642 -10.25482 -10.25454 -10.25333
 Alpha  occ. eigenvalues --  -10.25215 -10.24901 -10.24897 -10.24552 -10.24482
 Alpha  occ. eigenvalues --  -10.24245 -10.24033  -1.08622  -1.08037  -0.93495
 Alpha  occ. eigenvalues --   -0.92835  -0.92653  -0.91360  -0.90100  -0.89695
 Alpha  occ. eigenvalues --   -0.87443  -0.86589  -0.86274  -0.84737  -0.84116
 Alpha  occ. eigenvalues --   -0.82765  -0.81186  -0.80067  -0.79007  -0.78118
 Alpha  occ. eigenvalues --   -0.77069  -0.76498  -0.76267  -0.75682  -0.75065
 Alpha  occ. eigenvalues --   -0.74865  -0.74529  -0.74044  -0.73595  -0.70414
 Alpha  occ. eigenvalues --   -0.68550  -0.67111  -0.65672  -0.64593  -0.63829
 Alpha  occ. eigenvalues --   -0.63545  -0.62442  -0.62012  -0.60134  -0.59480
 Alpha  occ. eigenvalues --   -0.59049  -0.58060  -0.57301  -0.56931  -0.56441
 Alpha  occ. eigenvalues --   -0.55689  -0.54831  -0.54520  -0.54158  -0.53474
 Alpha  occ. eigenvalues --   -0.52596  -0.51905  -0.51431  -0.51148  -0.50378
 Alpha  occ. eigenvalues --   -0.49973  -0.49917  -0.49674  -0.49267  -0.48638
 Alpha  occ. eigenvalues --   -0.48341  -0.48253  -0.48174  -0.48128  -0.47707
 Alpha  occ. eigenvalues --   -0.47084  -0.47033  -0.46356  -0.46282  -0.46130
 Alpha  occ. eigenvalues --   -0.45881  -0.45582  -0.45214  -0.44844  -0.44213
 Alpha  occ. eigenvalues --   -0.44091  -0.43701  -0.43681  -0.43408  -0.43325
 Alpha  occ. eigenvalues --   -0.43161  -0.42432  -0.42251  -0.42072  -0.41806
 Alpha  occ. eigenvalues --   -0.41753  -0.41421  -0.41186  -0.41016  -0.40858
 Alpha  occ. eigenvalues --   -0.40464  -0.40263  -0.39719  -0.39437  -0.39415
 Alpha  occ. eigenvalues --   -0.39117  -0.39024  -0.38427  -0.38170  -0.37701
 Alpha  occ. eigenvalues --   -0.37458  -0.37206  -0.36670  -0.35556  -0.34943
 Alpha  occ. eigenvalues --   -0.34896  -0.34390  -0.33854  -0.32375  -0.32232
 Alpha  occ. eigenvalues --   -0.31795  -0.29757  -0.28685  -0.26671  -0.24086
 Alpha  occ. eigenvalues --   -0.20801
 Alpha virt. eigenvalues --   -0.04169  -0.00055   0.03536   0.06113   0.08331
 Alpha virt. eigenvalues --    0.09419   0.09997   0.10599   0.10708   0.11322
 Alpha virt. eigenvalues --    0.11386   0.12101   0.12662   0.13088   0.13226

 Mulliken charges:
               1
     1  O   -0.565796
     2  O   -0.563706
     3  C   -0.010360
     4  C    0.010464
     5  C   -0.170725
     6  C   -0.228353
     7  C    0.178446
     8  C    0.177430
     9  C    0.054124
    10  C    0.042432
    11  C   -0.208025
    12  C   -0.214740
    13  C    0.047532
    14  C    0.020385
    15  C   -0.314196
    16  C   -0.308952
    17  C   -0.297708
    18  C   -0.298054
    19  C   -0.163816
    20  C   -0.137127
    21  C   -0.335090
    22  C   -0.343870
    23  C   -0.084558
    24  C   -0.088195
    25  C    0.081677
    26  C    0.087906
    27  C   -0.358329
    28  C   -0.326942
    29  C   -0.121485
    30  C   -0.100263
    31  C   -0.096424
    32  C   -0.135254
    33  C   -0.118422
    34  C   -0.106090
    35  C    0.133596
    36  C    0.164759
    37  C   -0.379475
    38  C   -0.389740
    39  C   -0.148017
    40  C   -0.124287
    41  C   -0.085168
    42  C   -0.066421
    43  H    0.103805
    44  H    0.083067
    45  H    0.083595
    46  H    0.102589
    47  H    0.086933
    48  H    0.090756
    49  H    0.122803
    50  H    0.044551
    51  H    0.107077
    52  H    0.106840
    53  H    0.091294
    54  H    0.103756
    55  H    0.107145
    56  H    0.098843
    57  H    0.079821
    58  H    0.107900
    59  H    0.105830
    60  H    0.116065
    61  H    0.058636
    62  H    0.113892
    63  H    0.108406
    64  H    0.090410
    65  H    0.111711
    66  H    0.076362
    67  H    0.120796
    68  H    0.125436
    69  H    0.100882
    70  H    0.117280
    71  H    0.128501
    72  H    0.102587
    73  H    0.299727
    74  H    0.307606
    75  H    0.079790
    76  H    0.073449
    77  H    0.112070
    78  H    0.132569
    79  H    0.094560
    80  H    0.130190
    81  H    0.086340
    82  H    0.060992
    83  H    0.104360
    84  H    0.080693
    85  H    0.075931
    86  H    0.106579
    87  H    0.076049
    88  H    0.092457
    89  H    0.137259
    90  H    0.090812
    91  H    0.109119
    92  H    0.128895
    93  H    0.106658
    94  H    0.100830
    95  H    0.073029
    96  H    0.059690
    97  H    0.088334
    98  H    0.085281
 Sum of Mulliken charges =  -0.00000

 Dipole moment (field-independent basis, Debye):
    X=             -0.3636    Y=             -0.7592    Z=              1.4210  Tot=              1.6516
 Quadrupole moment (field-independent basis, Debye-Ang):
   XX=           -271.1777   YY=           -246.9576   ZZ=           -261.5500
   XY=             23.7779   XZ=              9.0563   YZ=              0.5856

 Normal termination of Gaussian 16 at Sat Jul  6 12:14:08 2019.
