 Gaussian 16, Revision A.03,
 Gaussian 16:  ES64L-G16RevA.03 25-Dec-2016

 -------------------------------------
 # td=(NStates=1) CAM-B3LYP/6-31G(d,p)
 -------------------------------------

 --
 TD
 --
 Symbolic Z-matrix:
 Charge =  0 Multiplicity = 1

                         Standard orientation:
 ---------------------------------------------------------------------
 Center     Atomic      Atomic             Coordinates (Angstroms)
 Number     Number       Type             X           Y           Z
 ---------------------------------------------------------------------
      1          8           0      -14.899570   -2.114560    0.481840
      2          8           0       14.910736    1.910320   -0.162054
      3          6           0      -11.604062   -0.976155   -1.127965
      4          6           0       12.354997   -0.819626   -0.783626
      5          6           0      -13.032805   -1.257238   -0.908951
      6          6           0       13.816241   -0.166037   -0.560363
      7          6           0      -13.481980   -1.940820    0.338157
      8          6           0       13.683286    1.333043   -0.400806
      9          6           0      -11.079866   -0.293053    0.097143
     10          6           0       11.331115   -0.297101    0.239598
     11          6           0      -13.054530   -1.015954    1.505512
     12          6           0       12.880368    1.609442    0.782166
     13          6           0      -11.614402   -0.399752    1.288171
     14          6           0       11.629175    0.831659    0.873715
     15          6           0      -11.474568   -0.134759   -2.358356
     16          6           0      -10.765672   -2.278033   -1.406126
     17          6           0       11.821359   -0.730695   -2.181154
     18          6           0       12.567201   -2.424413   -0.591852
     19          6           0       -9.779320    0.424304   -0.130023
     20          6           0       10.049906   -0.997535    0.461170
     21          6           0      -11.067645    0.320410    2.576477
     22          6           0       10.657442    1.421718    1.965023
     23          6           0       -9.381123    1.695183    0.194592
     24          6           0        8.874659   -0.500845    0.224337
     25          6           0       -8.045033    2.274383   -0.036814
     26          6           0        7.669364   -1.311133    0.409462
     27          6           0       -8.065530    3.699117   -0.562767
     28          6           0        7.664192   -2.792447    0.720221
     29          6           0       -6.943442    1.558995    0.180246
     30          6           0        6.512059   -0.616760    0.169782
     31          6           0       -5.563111    1.997353   -0.129067
     32          6           0        5.159809   -1.092475    0.213697
     33          6           0       -4.486030    1.231335    0.039639
     34          6           0        3.986454   -0.361805   -0.048697
     35          6           0       -3.092325    1.634416   -0.355989
     36          6           0        2.645810   -0.766138    0.164212
     37          6           0       -2.836342    2.954095   -0.720221
     38          6           0        2.526998   -2.117851    0.625316
     39          6           0       -2.110650    0.685070   -0.111049
     40          6           0        1.593691    0.015677   -0.128381
     41          6           0       -0.722965    0.851966   -0.262254
     42          6           0        0.194774   -0.143398    0.028772
     43          1           0      -13.547409   -0.432157   -0.901301
     44          1           0      -13.530587   -1.790564   -1.776989
     45          1           0       14.399052   -0.516788   -1.645769
     46          1           0       14.236250   -0.911644    0.181259
     47          1           0      -12.998419   -2.873461    0.496743
     48          1           0       13.325036    1.805481   -1.452590
     49          1           0      -13.664853   -0.175014    1.571535
     50          1           0      -13.137677   -1.588251    2.498475
     51          1           0       13.701281    1.592600    1.547943
     52          1           0       12.582390    2.514801    0.734035
     53          1           0      -11.948684   -0.683098   -3.107119
     54          1           0      -10.525340    0.133892   -2.646008
     55          1           0      -12.084069    0.797474   -2.205641
     56          1           0      -10.342718   -2.927810   -0.497351
     57          1           0      -11.298239   -2.872851   -2.050012
     58          1           0       -9.780246   -1.965546   -1.763192
     59          1           0       11.955786    0.624043   -2.279069
     60          1           0       10.853646   -0.978225   -2.189018
     61          1           0       12.506567   -1.083149   -3.040465
     62          1           0       13.281577   -2.851005   -1.199099
     63          1           0       11.563080   -2.904181   -0.571123
     64          1           0       12.925934   -2.537689    0.432842
     65          1           0       -9.078202   -0.113639   -0.567136
     66          1           0       10.145892   -2.124646    0.799042
     67          1           0       -9.897757    0.419826    2.422192
     68          1           0      -11.613904    1.251800    2.694289
     69          1           0      -11.286108   -0.277599    3.394375
     70          1           0       11.173554    1.819890    2.785453
     71          1           0        9.949773    0.643984    2.225555
     72          1           0       10.147965    2.211760    1.429939
     73          1           0      -15.171400   -3.029385    0.072561
     74          1           0       15.565938    1.536836   -0.821781
     75          1           0      -10.286953    1.990395    0.872857
     76          1           0        8.871661    0.575777    0.104084
     77          1           0       -8.929668    4.250496   -0.111359
     78          1           0       -6.954042    4.233272   -0.131646
     79          1           0       -8.061463    3.820953   -1.875626
     80          1           0        8.308657   -3.163068   -0.183728
     81          1           0        8.177496   -2.912623    1.610414
     82          1           0        6.619288   -3.141522    0.652683
     83          1           0       -7.152369    0.564959    0.629531
     84          1           0        6.486864    0.360789   -0.236102
     85          1           0       -5.313304    3.043693   -0.546537
     86          1           0        5.049351   -2.043028    0.454223
     87          1           0       -4.476906    0.271488    0.343896
     88          1           0        4.084077    0.588279   -0.436543
     89          1           0       -3.449116    3.340663   -1.633486
     90          1           0       -1.692824    3.144839   -1.093856
     91          1           0       -2.754305    3.494191    0.318590
     92          1           0        3.318448   -2.991305    0.123506
     93          1           0        2.533846   -2.122729    1.815728
     94          1           0        1.556772   -2.494817    0.597928
     95          1           0       -2.633449   -0.268917    0.267653
     96          1           0        2.000872    1.193503   -0.262908
     97          1           0       -0.221686    1.686007   -0.767008
     98          1           0       -0.083663   -1.127909    0.599176
 ---------------------------------------------------------------------

 SCF Done:  E(RCAM-B3LYP) =  -1706.92138458     A.U. after   14 cycles

 Excitation energies and oscillator strengths:

 Excited State   1:      Singlet-A      2.6937 eV  460.27 nm  f=3.5628  <S**2>=0.000
     155 ->158         0.14401
     156 ->157         0.69052
 This state for optimization and/or second-order correction.
 Total Energy, E(TD-HF/TD-DFT) =  -1706.82239217
 Copying the excited state density for this state as the 1-particle RhoCI density.

 The electronic state is 1-A.
 Alpha  occ. eigenvalues --  -19.21744 -19.21077 -10.30806 -10.29741 -10.29348
 Alpha  occ. eigenvalues --  -10.27661 -10.27540 -10.27527 -10.27510 -10.27492
 Alpha  occ. eigenvalues --  -10.27142 -10.27115 -10.27082 -10.27074 -10.27013
 Alpha  occ. eigenvalues --  -10.26712 -10.26670 -10.26600 -10.26581 -10.26472
 Alpha  occ. eigenvalues --  -10.26422 -10.26368 -10.26226 -10.26202 -10.26067
 Alpha  occ. eigenvalues --  -10.25734 -10.25620 -10.25542 -10.25500 -10.25452
 Alpha  occ. eigenvalues --  -10.25274 -10.25208 -10.25138 -10.25125 -10.24906
 Alpha  occ. eigenvalues --  -10.24894 -10.24733 -10.23968 -10.23960 -10.23276
 Alpha  occ. eigenvalues --  -10.23129 -10.23021  -1.10581  -1.07789  -0.94386
 Alpha  occ. eigenvalues --   -0.93672  -0.92687  -0.92127  -0.90996  -0.90333
 Alpha  occ. eigenvalues --   -0.87438  -0.86789  -0.86674  -0.85937  -0.85020
 Alpha  occ. eigenvalues --   -0.83300  -0.82371  -0.80284  -0.79872  -0.78282
 Alpha  occ. eigenvalues --   -0.76829  -0.76558  -0.76089  -0.75963  -0.75695
 Alpha  occ. eigenvalues --   -0.75480  -0.75363  -0.75212  -0.73865  -0.70965
 Alpha  occ. eigenvalues --   -0.68513  -0.67361  -0.65987  -0.65221  -0.64189
 Alpha  occ. eigenvalues --   -0.63558  -0.62423  -0.61918  -0.60378  -0.59685
 Alpha  occ. eigenvalues --   -0.59335  -0.59015  -0.58825  -0.58001  -0.56450
 Alpha  occ. eigenvalues --   -0.55743  -0.55516  -0.55174  -0.54684  -0.53693
 Alpha  occ. eigenvalues --   -0.53050  -0.52378  -0.52172  -0.51697  -0.51159
 Alpha  occ. eigenvalues --   -0.50815  -0.50346  -0.50203  -0.49791  -0.49529
 Alpha  occ. eigenvalues --   -0.49206  -0.48827  -0.48418  -0.48336  -0.47826
 Alpha  occ. eigenvalues --   -0.47717  -0.47422  -0.47015  -0.46891  -0.46275
 Alpha  occ. eigenvalues --   -0.46204  -0.46167  -0.45774  -0.45350  -0.45204
 Alpha  occ. eigenvalues --   -0.45084  -0.44590  -0.44346  -0.43567  -0.43260
 Alpha  occ. eigenvalues --   -0.42869  -0.42749  -0.42607  -0.42235  -0.42036
 Alpha  occ. eigenvalues --   -0.41645  -0.41307  -0.40946  -0.40832  -0.40804
 Alpha  occ. eigenvalues --   -0.40210  -0.40052  -0.39955  -0.39756  -0.39630
 Alpha  occ. eigenvalues --   -0.39256  -0.38794  -0.38320  -0.38203  -0.37876
 Alpha  occ. eigenvalues --   -0.37351  -0.37163  -0.36131  -0.35763  -0.34900
 Alpha  occ. eigenvalues --   -0.34792  -0.34299  -0.32932  -0.32336  -0.31839
 Alpha  occ. eigenvalues --   -0.30697  -0.29743  -0.28654  -0.27249  -0.24950
 Alpha  occ. eigenvalues --   -0.20705
 Alpha virt. eigenvalues --   -0.04654   0.00236   0.03384   0.06416   0.07841
 Alpha virt. eigenvalues --    0.09428   0.10536   0.10622   0.11297   0.11626
 Alpha virt. eigenvalues --    0.12023   0.12208   0.12455   0.12557   0.13368

 Mulliken charges:
               1
     1  O   -0.567419
     2  O   -0.567822
     3  C   -0.016624
     4  C   -0.037846
     5  C   -0.174434
     6  C   -0.191952
     7  C    0.153885
     8  C    0.188518
     9  C    0.085457
    10  C    0.083804
    11  C   -0.214019
    12  C   -0.187655
    13  C   -0.002819
    14  C    0.005464
    15  C   -0.288262
    16  C   -0.303115
    17  C   -0.239610
    18  C   -0.326500
    19  C   -0.122634
    20  C   -0.182817
    21  C   -0.356118
    22  C   -0.364189
    23  C   -0.125235
    24  C   -0.042371
    25  C    0.087708
    26  C    0.070683
    27  C   -0.324359
    28  C   -0.352987
    29  C   -0.103426
    30  C   -0.106227
    31  C   -0.110466
    32  C   -0.072007
    33  C   -0.068606
    34  C   -0.123288
    35  C    0.136900
    36  C    0.181490
    37  C   -0.401510
    38  C   -0.380539
    39  C   -0.125089
    40  C   -0.147285
    41  C   -0.096555
    42  C   -0.081017
    43  H    0.110718
    44  H    0.060453
    45  H    0.039607
    46  H    0.108465
    47  H    0.083369
    48  H    0.068996
    49  H    0.128425
    50  H    0.088353
    51  H    0.132014
    52  H    0.116448
    53  H    0.101811
    54  H    0.112941
    55  H    0.096310
    56  H    0.084009
    57  H    0.110108
    58  H    0.105364
    59  H    0.019545
    60  H    0.117431
    61  H    0.098747
    62  H    0.110541
    63  H    0.093974
    64  H    0.094821
    65  H    0.072012
    66  H    0.081186
    67  H    0.112881
    68  H    0.121819
    69  H    0.112226
    70  H    0.114381
    71  H    0.121822
    72  H    0.116029
    73  H    0.308279
    74  H    0.306632
    75  H    0.087080
    76  H    0.098561
    77  H    0.123413
    78  H    0.074037
    79  H    0.088792
    80  H    0.117344
    81  H    0.137236
    82  H    0.119230
    83  H    0.091218
    84  H    0.073828
    85  H    0.090470
    86  H    0.050003
    87  H    0.068627
    88  H    0.064740
    89  H    0.121372
    90  H    0.091648
    91  H    0.137106
    92  H    0.091644
    93  H    0.107490
    94  H    0.111491
    95  H    0.079153
    96  H    0.055018
    97  H    0.099341
    98  H    0.082333
 Sum of Mulliken charges =  -0.00000

 Dipole moment (field-independent basis, Debye):
    X=              0.1143    Y=             -2.1144    Z=             -0.8149  Tot=              2.2689
 Quadrupole moment (field-independent basis, Debye-Ang):
   XX=           -266.9334   YY=           -246.7810   ZZ=           -262.1665
   XY=              0.0668   XZ=              0.2161   YZ=             -2.6167

 Normal termination of Gaussian 16 at Wed Jun 26 19:24:10 2019.
