 Gaussian 16, Revision A.03,
 Gaussian 16:  ES64L-G16RevA.03 25-Dec-2016

 -------------------------------------
 # td=(NStates=1) CAM-B3LYP/6-31G(d,p)
 -------------------------------------

 --
 TD
 --
 Symbolic Z-matrix:
 Charge =  0 Multiplicity = 1

                         Standard orientation:
 ---------------------------------------------------------------------
 Center     Atomic      Atomic             Coordinates (Angstroms)
 Number     Number       Type             X           Y           Z
 ---------------------------------------------------------------------
      1          8           0       14.735114   -2.213342   -0.489487
      2          8           0      -14.844867    1.889158    0.626155
      3          6           0       11.655931   -1.058259    1.147914
      4          6           0      -12.275254   -0.936437    0.751623
      5          6           0       13.077404   -1.392214    0.937215
      6          6           0      -13.623803   -0.235138    0.720849
      7          6           0       13.406305   -1.881763   -0.365145
      8          6           0      -13.554081    1.277320    0.790057
      9          6           0       11.052114   -0.293278    0.011658
     10          6           0      -11.415094   -0.316564   -0.223933
     11          6           0       13.111980   -0.804393   -1.390132
     12          6           0      -12.847859    1.723167   -0.613744
     13          6           0       11.636195   -0.289533   -1.241591
     14          6           0      -11.608976    0.901068   -0.841260
     15          6           0       11.493933   -0.251995    2.474232
     16          6           0       10.671076   -2.272835    1.426358
     17          6           0      -11.778374   -0.825255    2.249971
     18          6           0      -12.575701   -2.429904    0.373787
     19          6           0        9.783088    0.357996    0.299772
     20          6           0      -10.090751   -1.028071   -0.395970
     21          6           0       11.022322    0.407495   -2.404887
     22          6           0      -10.691676    1.491049   -1.884814
     23          6           0        9.344585    1.662196   -0.063843
     24          6           0       -8.848099   -0.485450   -0.310309
     25          6           0        8.014810    2.251723    0.087769
     26          6           0       -7.604302   -1.232996   -0.432035
     27          6           0        8.126273    3.687911    0.436273
     28          6           0       -7.805845   -2.560775   -0.918006
     29          6           0        6.870603    1.593336    0.001838
     30          6           0       -6.436424   -0.640291   -0.347010
     31          6           0        5.524198    2.032264    0.148719
     32          6           0       -5.116065   -1.256098   -0.384862
     33          6           0        4.471842    1.166010   -0.048047
     34          6           0       -4.044724   -0.436256   -0.191725
     35          6           0        3.072946    1.612764    0.139238
     36          6           0       -2.627860   -0.747256   -0.343451
     37          6           0        2.742813    3.045256    0.585639
     38          6           0       -2.453187   -2.178722   -0.851948
     39          6           0        2.093722    0.706187   -0.061256
     40          6           0       -1.695084    0.078205   -0.063258
     41          6           0        0.692771    0.863258    0.097619
     42          6           0       -0.202280   -0.097526   -0.216529
     43          1           0       13.836226   -0.440074    1.118874
     44          1           0       13.159664   -2.120641    1.909364
     45          1           0      -14.210508   -0.569510    1.508385
     46          1           0      -14.152397   -0.467347   -0.223274
     47          1           0       12.819509   -2.739704   -0.487759
     48          1           0      -13.052696    1.777132    1.526182
     49          1           0       13.786044    0.020910   -1.517897
     50          1           0       13.021833   -1.517060   -2.312606
     51          1           0      -13.847961    1.851077   -1.245402
     52          1           0      -12.781771    2.942148   -0.485657
     53          1           0       11.905488   -0.987299    3.316767
     54          1           0       10.448076   -0.240679    2.630392
     55          1           0       11.770101    0.810634    2.311210
     56          1           0       10.786913   -2.988510    0.674058
     57          1           0       11.058699   -2.989222    2.278414
     58          1           0        9.670334   -1.832570    1.679064
     59          1           0      -11.459507    0.189486    2.571933
     60          1           0      -10.707173   -1.439362    2.307720
     61          1           0      -12.554236   -1.258232    2.780189
     62          1           0      -13.569726   -2.520499    1.096869
     63          1           0      -11.772530   -3.009726    0.925669
     64          1           0      -12.609795   -2.535342   -0.815895
     65          1           0        8.955904   -0.316395    0.783542
     66          1           0      -10.288692   -2.089707   -0.342098
     67          1           0        9.997919    1.112414   -2.153453
     68          1           0       12.199892    1.013897   -2.716257
     69          1           0       10.878635   -0.205391   -3.299205
     70          1           0      -11.353251    2.071816   -2.588369
     71          1           0       -9.990416    0.674582   -2.371149
     72          1           0      -10.007658    2.336057   -1.621634
     73          1           0       14.926701   -2.978526    0.050054
     74          1           0      -15.641744    1.389818    1.254332
     75          1           0       10.170899    2.198214   -0.736267
     76          1           0       -8.659452    0.602780    0.161526
     77          1           0        8.754915    4.280429   -0.340368
     78          1           0        7.255954    4.160902    0.490221
     79          1           0        8.525433    4.056073    1.397602
     80          1           0       -8.133567   -3.331378   -0.154411
     81          1           0       -8.552453   -2.708876   -1.720395
     82          1           0       -6.917095   -3.118352   -1.196548
     83          1           0        6.911555    0.553094   -0.388238
     84          1           0       -6.452742    0.315613    0.175956
     85          1           0        5.317691    2.922795    0.493467
     86          1           0       -4.899533   -2.194092   -0.696975
     87          1           0        4.544712    0.127203   -0.434118
     88          1           0       -4.178572    0.663934    0.089387
     89          1           0        3.458398    2.987626    1.403445
     90          1           0        1.692359    3.139544    0.865497
     91          1           0        3.233493    3.681981   -0.119627
     92          1           0       -2.575046   -2.880504   -0.147760
     93          1           0       -3.036652   -2.140101   -1.712340
     94          1           0       -1.296836   -2.358900   -1.205633
     95          1           0        2.485879   -0.234732   -0.396297
     96          1           0       -1.901483    1.063006    0.279183
     97          1           0        0.351095    1.822466    0.417222
     98          1           0        0.140353   -1.196601   -0.680900
 ---------------------------------------------------------------------

 SCF Done:  E(RCAM-B3LYP) =  -1706.92106031     A.U. after   14 cycles

 Excitation energies and oscillator strengths:

 Excited State   1:      Singlet-A      3.0368 eV  408.28 nm  f=3.7067  <S**2>=0.000
     155 ->158         0.21863
     156 ->157         0.65943
 This state for optimization and/or second-order correction.
 Total Energy, E(TD-HF/TD-DFT) =  -1706.80946084
 Copying the excited state density for this state as the 1-particle RhoCI density.

 The electronic state is 1-A.
 Alpha  occ. eigenvalues --  -19.21720 -19.20849 -10.29324 -10.29191 -10.28390
 Alpha  occ. eigenvalues --  -10.28174 -10.27944 -10.27441 -10.27418 -10.27364
 Alpha  occ. eigenvalues --  -10.27329 -10.27220 -10.27119 -10.27019 -10.26993
 Alpha  occ. eigenvalues --  -10.26951 -10.26761 -10.26530 -10.26436 -10.26425
 Alpha  occ. eigenvalues --  -10.26413 -10.26355 -10.26163 -10.25955 -10.25950
 Alpha  occ. eigenvalues --  -10.25929 -10.25858 -10.25747 -10.25745 -10.25734
 Alpha  occ. eigenvalues --  -10.25698 -10.25621 -10.25597 -10.25579 -10.25507
 Alpha  occ. eigenvalues --  -10.25350 -10.25268 -10.25266 -10.24825 -10.24734
 Alpha  occ. eigenvalues --  -10.24490 -10.24294  -1.11272  -1.06151  -0.94098
 Alpha  occ. eigenvalues --   -0.93893  -0.92719  -0.92325  -0.91307  -0.90537
 Alpha  occ. eigenvalues --   -0.87318  -0.86617  -0.86277  -0.85614  -0.84814
 Alpha  occ. eigenvalues --   -0.83314  -0.82286  -0.79714  -0.79166  -0.78688
 Alpha  occ. eigenvalues --   -0.77140  -0.76676  -0.76096  -0.75733  -0.75402
 Alpha  occ. eigenvalues --   -0.75050  -0.74921  -0.74545  -0.73888  -0.70809
 Alpha  occ. eigenvalues --   -0.69062  -0.67581  -0.66120  -0.64701  -0.63910
 Alpha  occ. eigenvalues --   -0.63602  -0.62819  -0.62207  -0.60884  -0.60778
 Alpha  occ. eigenvalues --   -0.60344  -0.59619  -0.57664  -0.57104  -0.56628
 Alpha  occ. eigenvalues --   -0.56218  -0.55401  -0.55046  -0.54682  -0.53684
 Alpha  occ. eigenvalues --   -0.53173  -0.52961  -0.52341  -0.51906  -0.51377
 Alpha  occ. eigenvalues --   -0.51150  -0.50779  -0.50474  -0.50246  -0.49400
 Alpha  occ. eigenvalues --   -0.48931  -0.48858  -0.48537  -0.47853  -0.47586
 Alpha  occ. eigenvalues --   -0.47273  -0.47208  -0.46895  -0.46790  -0.46537
 Alpha  occ. eigenvalues --   -0.46034  -0.45684  -0.45314  -0.44745  -0.44323
 Alpha  occ. eigenvalues --   -0.44087  -0.43887  -0.43530  -0.43185  -0.43005
 Alpha  occ. eigenvalues --   -0.42865  -0.42485  -0.42437  -0.41971  -0.41724
 Alpha  occ. eigenvalues --   -0.41679  -0.41352  -0.40983  -0.40808  -0.40617
 Alpha  occ. eigenvalues --   -0.40275  -0.40066  -0.39842  -0.39497  -0.39324
 Alpha  occ. eigenvalues --   -0.38843  -0.38597  -0.38290  -0.38045  -0.37854
 Alpha  occ. eigenvalues --   -0.37304  -0.37245  -0.36699  -0.36617  -0.35696
 Alpha  occ. eigenvalues --   -0.35088  -0.33604  -0.33026  -0.32120  -0.31934
 Alpha  occ. eigenvalues --   -0.31617  -0.29626  -0.27775  -0.26037  -0.24083
 Alpha  occ. eigenvalues --   -0.21843
 Alpha virt. eigenvalues --   -0.03714  -0.00728   0.02285   0.04923   0.07340
 Alpha virt. eigenvalues --    0.09177   0.09367   0.10079   0.11205   0.11508
 Alpha virt. eigenvalues --    0.11666   0.11903   0.12682   0.13212   0.13825

 Mulliken charges:
               1
     1  O   -0.552645
     2  O   -0.583913
     3  C   -0.041733
     4  C   -0.039820
     5  C   -0.166601
     6  C   -0.189018
     7  C    0.189297
     8  C    0.184441
     9  C    0.090322
    10  C    0.065792
    11  C   -0.219053
    12  C   -0.265268
    13  C    0.047806
    14  C    0.084187
    15  C   -0.271702
    16  C   -0.298195
    17  C   -0.282809
    18  C   -0.295342
    19  C   -0.122977
    20  C   -0.147430
    21  C   -0.327521
    22  C   -0.363639
    23  C   -0.158958
    24  C   -0.102580
    25  C    0.090242
    26  C    0.170535
    27  C   -0.367130
    28  C   -0.400181
    29  C   -0.110486
    30  C   -0.140309
    31  C   -0.071834
    32  C   -0.084337
    33  C   -0.103779
    34  C   -0.109198
    35  C    0.078377
    36  C    0.127421
    37  C   -0.361552
    38  C   -0.361750
    39  C   -0.122159
    40  C   -0.147869
    41  C   -0.080280
    42  C   -0.085575
    43  H    0.076543
    44  H    0.052809
    45  H    0.071437
    46  H    0.108036
    47  H    0.077095
    48  H    0.096256
    49  H    0.133940
    50  H    0.102395
    51  H    0.128777
    52  H    0.081581
    53  H    0.082173
    54  H    0.102054
    55  H    0.105494
    56  H    0.107503
    57  H    0.074751
    58  H    0.113805
    59  H    0.117107
    60  H    0.079073
    61  H    0.109150
    62  H    0.081861
    63  H    0.106658
    64  H    0.116913
    65  H    0.081574
    66  H    0.090017
    67  H    0.115665
    68  H    0.046690
    69  H    0.122011
    70  H    0.102248
    71  H    0.109322
    72  H    0.111561
    73  H    0.301650
    74  H    0.293310
    75  H    0.093927
    76  H    0.080364
    77  H    0.103124
    78  H    0.111904
    79  H    0.120755
    80  H    0.107962
    81  H    0.123699
    82  H    0.102194
    83  H    0.078751
    84  H    0.079902
    85  H    0.069340
    86  H    0.089120
    87  H    0.091997
    88  H    0.072349
    89  H    0.128718
    90  H    0.114656
    91  H    0.134263
    92  H    0.140291
    93  H    0.134206
    94  H    0.072582
    95  H    0.068410
    96  H    0.076078
    97  H    0.081308
    98  H    0.071863
 Sum of Mulliken charges =  -0.00000

 Dipole moment (field-independent basis, Debye):
    X=             -0.7078    Y=             -2.1590    Z=              1.7638  Tot=              2.8763
 Quadrupole moment (field-independent basis, Debye-Ang):
   XX=           -282.0773   YY=           -245.7002   ZZ=           -264.8291
   XY=              8.2110   XZ=            -12.3086   YZ=              1.6989

 Normal termination of Gaussian 16 at Sun Jul  7 06:58:44 2019.
