 Gaussian 16, Revision A.03,
 Gaussian 16:  ES64L-G16RevA.03 25-Dec-2016

 -------------------------------------
 # td=(NStates=1) CAM-B3LYP/6-31G(d,p)
 -------------------------------------

 --
 TD
 --
 Symbolic Z-matrix:
 Charge =  0 Multiplicity = 1

                         Standard orientation:
 ---------------------------------------------------------------------
 Center     Atomic      Atomic             Coordinates (Angstroms)
 Number     Number       Type             X           Y           Z
 ---------------------------------------------------------------------
      1          8           0       14.702857   -2.347315   -0.400742
      2          8           0      -14.892227    2.015140    0.637095
      3          6           0       11.464841   -1.122754    1.178448
      4          6           0      -12.388104   -0.969119    0.659575
      5          6           0       12.956710   -1.587242    1.134291
      6          6           0      -13.747608   -0.241432    0.717807
      7          6           0       13.322307   -1.916983   -0.282335
      8          6           0      -13.651124    1.200693    0.777334
      9          6           0       11.026904   -0.316575   -0.040390
     10          6           0      -11.375466   -0.284495   -0.115115
     11          6           0       13.138553   -0.855767   -1.250976
     12          6           0      -12.816889    1.735559   -0.405772
     13          6           0       11.725617   -0.255756   -1.154279
     14          6           0      -11.611841    0.922972   -0.791835
     15          6           0       11.266971   -0.323727    2.470254
     16          6           0       10.559272   -2.472469    1.289413
     17          6           0      -11.882952   -1.061829    2.148391
     18          6           0      -12.732832   -2.409568    0.201950
     19          6           0        9.757381    0.348361    0.136138
     20          6           0      -10.099932   -1.016954   -0.453293
     21          6           0       11.219043    0.514527   -2.484751
     22          6           0      -10.681126    1.587311   -1.748051
     23          6           0        9.486819    1.603278   -0.147697
     24          6           0       -8.901750   -0.550785   -0.159371
     25          6           0        8.185654    2.289232    0.128622
     26          6           0       -7.615526   -1.302356   -0.370815
     27          6           0        8.181919    3.695658    0.511439
     28          6           0       -7.811940   -2.705442   -0.849106
     29          6           0        6.979747    1.621446    0.014524
     30          6           0       -6.452814   -0.622673   -0.303803
     31          6           0        5.614619    2.053317    0.224910
     32          6           0       -5.080206   -1.112917   -0.590045
     33          6           0        4.500114    1.288679   -0.043703
     34          6           0       -4.064500   -0.275003   -0.336903
     35          6           0        3.054433    1.732496    0.125436
     36          6           0       -2.631254   -0.732059   -0.450819
     37          6           0        2.950641    3.134299    0.622756
     38          6           0       -2.394649   -2.086079   -0.888959
     39          6           0        2.130974    0.745183   -0.074792
     40          6           0       -1.597840    0.195809   -0.229478
     41          6           0        0.716876    0.962045   -0.067733
     42          6           0       -0.131414   -0.094133   -0.400660
     43          1           0       13.797294   -0.804820    1.245045
     44          1           0       13.102596   -2.357174    1.851438
     45          1           0      -14.465446   -0.749201    1.374724
     46          1           0      -14.167734   -0.457696   -0.237597
     47          1           0       12.879269   -2.725457   -0.915893
     48          1           0      -13.196341    1.491700    1.789888
     49          1           0       13.774389   -0.095094   -0.853927
     50          1           0       13.469451   -1.099053   -2.209425
     51          1           0      -13.505564    2.060746   -1.096113
     52          1           0      -12.581958    2.775435   -0.087251
     53          1           0       11.948422   -0.761207    3.133787
     54          1           0       10.210979   -0.033692    2.797789
     55          1           0       11.780829    0.812801    2.305963
     56          1           0       10.934315   -3.217725    0.434640
     57          1           0       10.710635   -3.059468    2.183019
     58          1           0        9.588516   -2.136783    1.382717
     59          1           0      -11.640811   -0.133430    2.762717
     60          1           0      -10.848297   -1.600435    2.029428
     61          1           0      -12.695609   -1.572442    2.787737
     62          1           0      -13.521063   -2.737302    1.101273
     63          1           0      -11.830262   -3.036746    0.318486
     64          1           0      -13.130279   -2.556706   -0.808546
     65          1           0        9.024101    0.038568    0.771998
     66          1           0      -10.262295   -2.149304   -0.702562
     67          1           0       10.215684    0.835627   -2.241440
     68          1           0       11.751171    1.630750   -2.525961
     69          1           0       11.644820   -0.054583   -3.481821
     70          1           0      -11.139105    2.304631   -2.439385
     71          1           0      -10.124883    0.786523   -2.275759
     72          1           0       -9.636807    2.131909   -1.213862
     73          1           0       14.777197   -3.062461    0.282608
     74          1           0      -15.480618    1.597879    1.340950
     75          1           0       10.290055    2.268408   -0.566127
     76          1           0       -8.867013    0.487762    0.151191
     77          1           0        8.837562    4.085084   -0.176577
     78          1           0        7.080114    4.143031    0.179099
     79          1           0        8.459598    3.753443    1.592293
     80          1           0       -8.416272   -3.271680   -0.127420
     81          1           0       -8.171561   -2.783408   -1.975889
     82          1           0       -6.890403   -3.114816   -0.726528
     83          1           0        7.033527    0.534079   -0.209988
     84          1           0       -6.493714    0.361730    0.188020
     85          1           0        5.445211    3.030643    0.694579
     86          1           0       -5.068839   -2.302017   -0.642381
     87          1           0        4.846963    0.191546   -0.579264
     88          1           0       -4.325746    0.582410    0.382310
     89          1           0        3.448177    3.180443    1.569296
     90          1           0        1.970182    3.565998    0.796442
     91          1           0        3.569072    3.806676   -0.088619
     92          1           0       -2.892564   -2.792980   -0.138162
     93          1           0       -2.845004   -2.266790   -1.876339
     94          1           0       -1.419511   -2.432948   -0.911251
     95          1           0        2.580310   -0.350744   -0.108611
     96          1           0       -1.744053    1.113532    0.105286
     97          1           0        0.163552    2.021119    0.164423
     98          1           0        0.124949   -1.107384   -0.594921
 ---------------------------------------------------------------------

 SCF Done:  E(RCAM-B3LYP) =  -1706.99250981     A.U. after   14 cycles

 Excitation energies and oscillator strengths:

 Excited State   1:      Singlet-A      2.9070 eV  426.51 nm  f=3.4346  <S**2>=0.000
     155 ->158         0.17732
     156 ->157         0.67609
 This state for optimization and/or second-order correction.
 Total Energy, E(TD-HF/TD-DFT) =  -1706.88568069
 Copying the excited state density for this state as the 1-particle RhoCI density.

 The electronic state is 1-A.
 Alpha  occ. eigenvalues --  -19.21156 -19.20491 -10.30036 -10.29485 -10.28419
 Alpha  occ. eigenvalues --  -10.28372 -10.28356 -10.28209 -10.27727 -10.27723
 Alpha  occ. eigenvalues --  -10.27637 -10.27505 -10.27475 -10.27308 -10.27082
 Alpha  occ. eigenvalues --  -10.27036 -10.27014 -10.26925 -10.26810 -10.26627
 Alpha  occ. eigenvalues --  -10.26493 -10.26343 -10.26339 -10.26319 -10.26311
 Alpha  occ. eigenvalues --  -10.26225 -10.26152 -10.26126 -10.26053 -10.25952
 Alpha  occ. eigenvalues --  -10.25947 -10.25844 -10.25825 -10.25679 -10.25549
 Alpha  occ. eigenvalues --  -10.25501 -10.25447 -10.25295 -10.24821 -10.24142
 Alpha  occ. eigenvalues --  -10.23949 -10.23823  -1.08235  -1.06747  -0.94102
 Alpha  occ. eigenvalues --   -0.93891  -0.91662  -0.91298  -0.90564  -0.89839
 Alpha  occ. eigenvalues --   -0.87178  -0.86543  -0.86502  -0.86108  -0.85121
 Alpha  occ. eigenvalues --   -0.83356  -0.82289  -0.80523  -0.80133  -0.78814
 Alpha  occ. eigenvalues --   -0.76664  -0.76508  -0.75844  -0.75732  -0.75528
 Alpha  occ. eigenvalues --   -0.75302  -0.75084  -0.74571  -0.73622  -0.69480
 Alpha  occ. eigenvalues --   -0.68018  -0.66555  -0.65136  -0.64524  -0.64015
 Alpha  occ. eigenvalues --   -0.63996  -0.62323  -0.61971  -0.60070  -0.59300
 Alpha  occ. eigenvalues --   -0.58962  -0.58821  -0.58078  -0.57366  -0.56825
 Alpha  occ. eigenvalues --   -0.55645  -0.55147  -0.54962  -0.54162  -0.53623
 Alpha  occ. eigenvalues --   -0.52848  -0.52318  -0.51745  -0.51171  -0.50912
 Alpha  occ. eigenvalues --   -0.50258  -0.49898  -0.49267  -0.49240  -0.49057
 Alpha  occ. eigenvalues --   -0.48849  -0.48701  -0.48624  -0.48326  -0.48117
 Alpha  occ. eigenvalues --   -0.47497  -0.47322  -0.47158  -0.46918  -0.46674
 Alpha  occ. eigenvalues --   -0.45853  -0.45831  -0.45597  -0.45367  -0.45002
 Alpha  occ. eigenvalues --   -0.44799  -0.44140  -0.43815  -0.43480  -0.43445
 Alpha  occ. eigenvalues --   -0.42920  -0.42677  -0.42641  -0.42434  -0.42050
 Alpha  occ. eigenvalues --   -0.41734  -0.41525  -0.41480  -0.40945  -0.40790
 Alpha  occ. eigenvalues --   -0.40464  -0.40084  -0.39894  -0.39501  -0.39301
 Alpha  occ. eigenvalues --   -0.39253  -0.39129  -0.38590  -0.38122  -0.37557
 Alpha  occ. eigenvalues --   -0.37315  -0.37139  -0.36255  -0.36096  -0.35893
 Alpha  occ. eigenvalues --   -0.35379  -0.34659  -0.34173  -0.32313  -0.32078
 Alpha  occ. eigenvalues --   -0.31371  -0.29376  -0.27931  -0.25995  -0.24312
 Alpha  occ. eigenvalues --   -0.21395
 Alpha virt. eigenvalues --   -0.03899  -0.00223   0.02713   0.05168   0.07077
 Alpha virt. eigenvalues --    0.08651   0.10310   0.11223   0.11396   0.11679
 Alpha virt. eigenvalues --    0.12456   0.12553   0.12622   0.12830   0.13139

 Mulliken charges:
               1
     1  O   -0.579051
     2  O   -0.571662
     3  C   -0.025866
     4  C   -0.046528
     5  C   -0.203482
     6  C   -0.178584
     7  C    0.148121
     8  C    0.150577
     9  C    0.107667
    10  C    0.056649
    11  C   -0.203292
    12  C   -0.243869
    13  C    0.022765
    14  C    0.088054
    15  C   -0.292247
    16  C   -0.305972
    17  C   -0.288723
    18  C   -0.281994
    19  C   -0.107327
    20  C   -0.160271
    21  C   -0.346286
    22  C   -0.358188
    23  C   -0.113326
    24  C   -0.061053
    25  C    0.045685
    26  C    0.074892
    27  C   -0.350823
    28  C   -0.355025
    29  C   -0.113531
    30  C   -0.123671
    31  C   -0.084492
    32  C   -0.083354
    33  C   -0.128245
    34  C   -0.122762
    35  C    0.114214
    36  C    0.081754
    37  C   -0.380306
    38  C   -0.371356
    39  C   -0.132642
    40  C   -0.101837
    41  C   -0.100592
    42  C   -0.068223
    43  H    0.106759
    44  H    0.096740
    45  H    0.077970
    46  H    0.103633
    47  H    0.078551
    48  H    0.070545
    49  H    0.113037
    50  H    0.113475
    51  H    0.132583
    52  H    0.110537
    53  H    0.111176
    54  H    0.105337
    55  H    0.067562
    56  H    0.097984
    57  H    0.101031
    58  H    0.115924
    59  H    0.104887
    60  H    0.093823
    61  H    0.084668
    62  H    0.076243
    63  H    0.100175
    64  H    0.117173
    65  H    0.083454
    66  H    0.079460
    67  H    0.135208
    68  H    0.081901
    69  H    0.101763
    70  H    0.114174
    71  H    0.126350
    72  H    0.074974
    73  H    0.300473
    74  H    0.300359
    75  H    0.086783
    76  H    0.085149
    77  H    0.123707
    78  H    0.090863
    79  H    0.128897
    80  H    0.119029
    81  H    0.118172
    82  H    0.103098
    83  H    0.070213
    84  H    0.077916
    85  H    0.079181
    86  H    0.097234
    87  H    0.069386
    88  H    0.101257
    89  H    0.141566
    90  H    0.111873
    91  H    0.118383
    92  H    0.108434
    93  H    0.128812
    94  H    0.111544
    95  H    0.098617
    96  H    0.063859
    97  H    0.093442
    98  H    0.088862
 Sum of Mulliken charges =  -0.00000

 Dipole moment (field-independent basis, Debye):
    X=              0.2017    Y=             -1.9624    Z=              2.7636  Tot=              3.3955
 Quadrupole moment (field-independent basis, Debye-Ang):
   XX=           -296.1649   YY=           -247.8723   ZZ=           -260.5703
   XY=             19.1464   XZ=              5.4855   YZ=              0.9919

 Normal termination of Gaussian 16 at Wed Jul  3 22:57:52 2019.
