 Gaussian 16, Revision A.03,
 Gaussian 16:  ES64L-G16RevA.03 25-Dec-2016

 -------------------------------------
 # td=(NStates=1) CAM-B3LYP/6-31G(d,p)
 -------------------------------------

 --
 TD
 --
 Symbolic Z-matrix:
 Charge =  0 Multiplicity = 1

                         Standard orientation:
 ---------------------------------------------------------------------
 Center     Atomic      Atomic             Coordinates (Angstroms)
 Number     Number       Type             X           Y           Z
 ---------------------------------------------------------------------
      1          8           0       14.631012   -2.376257   -0.411446
      2          8           0      -14.936851    1.608843    0.856595
      3          6           0       11.353730   -1.175518    1.165047
      4          6           0      -12.327915   -1.040758    0.665526
      5          6           0       12.914687   -1.650029    1.004373
      6          6           0      -13.683090   -0.368590    0.669323
      7          6           0       13.241152   -2.005640   -0.398503
      8          6           0      -13.641008    1.083351    0.850353
      9          6           0       10.943224   -0.325715    0.021333
     10          6           0      -11.233103   -0.240190   -0.183679
     11          6           0       12.913546   -0.841754   -1.347157
     12          6           0      -12.927106    1.759592   -0.296209
     13          6           0       11.663462   -0.085431   -1.085448
     14          6           0      -11.599374    0.975391   -0.677658
     15          6           0       11.178369   -0.479194    2.578040
     16          6           0       10.546800   -2.449474    1.220549
     17          6           0      -11.653661   -1.092265    2.048422
     18          6           0      -12.435863   -2.475295    0.081338
     19          6           0        9.616425    0.389073    0.252769
     20          6           0      -10.028157   -0.922334   -0.570419
     21          6           0       11.253154    0.636376   -2.289010
     22          6           0      -10.722424    1.794560   -1.763604
     23          6           0        9.365619    1.602328   -0.068559
     24          6           0       -8.805652   -0.433031   -0.324308
     25          6           0        8.054995    2.322505   -0.001391
     26          6           0       -7.539941   -1.174147   -0.408556
     27          6           0        8.045032    3.845044    0.318736
     28          6           0       -7.644108   -2.600313   -0.881643
     29          6           0        6.861912    1.594749   -0.104500
     30          6           0       -6.358490   -0.521051   -0.272883
     31          6           0        5.632201    2.060951    0.073787
     32          6           0       -4.961881   -1.039641   -0.516633
     33          6           0        4.518078    1.280365    0.040619
     34          6           0       -3.926991   -0.249028   -0.277872
     35          6           0        3.140639    1.686698    0.296540
     36          6           0       -2.580102   -0.694751   -0.497047
     37          6           0        2.854856    2.995138    0.765169
     38          6           0       -2.417697   -2.113388   -0.893125
     39          6           0        2.167464    0.826439   -0.045390
     40          6           0       -1.558739    0.099127   -0.156510
     41          6           0        0.771162    0.889865    0.222867
     42          6           0       -0.066132   -0.082396   -0.207975
     43          1           0       13.409957   -0.600011    1.298287
     44          1           0       13.102695   -2.226859    1.920718
     45          1           0      -14.254930   -0.753191    1.539575
     46          1           0      -14.257371   -0.745321   -0.251726
     47          1           0       12.687761   -2.931365   -0.746922
     48          1           0      -13.313306    1.255126    1.755147
     49          1           0       13.767802   -0.157164   -1.360486
     50          1           0       13.034224   -1.186543   -2.435192
     51          1           0      -13.384430    1.832810   -1.105251
     52          1           0      -12.825255    2.848551    0.094751
     53          1           0       11.250912   -1.173747    3.240310
     54          1           0       10.104209   -0.103103    2.637188
     55          1           0       11.776267    0.441690    2.845450
     56          1           0       10.892244   -3.059314    0.371298
     57          1           0       10.652223   -3.029658    2.080413
     58          1           0        9.422307   -2.194366    1.188416
     59          1           0      -11.347980   -0.025153    2.192005
     60          1           0      -10.842207   -1.674781    1.799405
     61          1           0      -12.492592   -1.539985    2.796801
     62          1           0      -13.093661   -3.026093    0.534682
     63          1           0      -11.507967   -2.891321    0.151622
     64          1           0      -12.830440   -2.276712   -1.005737
     65          1           0        8.806204   -0.075139    0.941000
     66          1           0      -10.099300   -1.852218   -0.939716
     67          1           0       10.156584    0.960661   -2.338467
     68          1           0       11.646118    1.595751   -2.556075
     69          1           0       11.364219   -0.073998   -3.151811
     70          1           0      -11.145487    2.308704   -2.558827
     71          1           0      -10.106956    0.990003   -2.316073
     72          1           0       -9.924639    2.399197   -1.436195
     73          1           0       14.611008   -3.193448    0.121349
     74          1           0      -15.344010    1.380513    1.639069
     75          1           0       10.225673    2.270142   -0.570126
     76          1           0       -8.783183    0.533276    0.107908
     77          1           0        8.761694    4.356028   -0.357152
     78          1           0        7.155562    4.358841    0.294930
     79          1           0        8.412814    4.148994    1.291517
     80          1           0       -8.236350   -3.138492   -0.049108
     81          1           0       -8.175762   -2.648652   -1.771828
     82          1           0       -6.577649   -2.867259   -1.093738
     83          1           0        7.084701    0.509046   -0.395390
     84          1           0       -6.406805    0.473267   -0.306445
     85          1           0        5.479113    3.038740    0.455674
     86          1           0       -4.710545   -2.066298   -0.680621
     87          1           0        4.766623    0.225500   -0.433044
     88          1           0       -3.915128    0.870659    0.104091
     89          1           0        2.914997    2.878874    1.944527
     90          1           0        1.832623    3.486464    0.555728
     91          1           0        3.566166    3.688112    0.315103
     92          1           0       -3.078592   -3.118911   -0.340393
     93          1           0       -2.687334   -2.210496   -2.172893
     94          1           0       -1.233625   -2.448558   -0.830956
     95          1           0        2.434378    0.040301   -0.640620
     96          1           0       -1.994794    1.078646    0.052692
     97          1           0       -0.039999    1.757617    0.609752
     98          1           0        0.187507   -0.989758   -0.636053
 ---------------------------------------------------------------------

 SCF Done:  E(RCAM-B3LYP) =  -1706.94855951     A.U. after   14 cycles

 Excitation energies and oscillator strengths:

 Excited State   1:      Singlet-A      2.8322 eV  437.77 nm  f=3.5022  <S**2>=0.000
     155 ->158         0.17041
     156 ->157         0.67925
 This state for optimization and/or second-order correction.
 Total Energy, E(TD-HF/TD-DFT) =  -1706.84447824
 Copying the excited state density for this state as the 1-particle RhoCI density.

 The electronic state is 1-A.
 Alpha  occ. eigenvalues --  -19.20938 -19.19596 -10.31295 -10.30490 -10.28240
 Alpha  occ. eigenvalues --  -10.28089 -10.27943 -10.27462 -10.27392 -10.27063
 Alpha  occ. eigenvalues --  -10.26979 -10.26816 -10.26738 -10.26734 -10.26734
 Alpha  occ. eigenvalues --  -10.26575 -10.26565 -10.26532 -10.26429 -10.26384
 Alpha  occ. eigenvalues --  -10.26318 -10.26130 -10.25980 -10.25973 -10.25919
 Alpha  occ. eigenvalues --  -10.25901 -10.25731 -10.25500 -10.25368 -10.25319
 Alpha  occ. eigenvalues --  -10.25261 -10.25252 -10.25208 -10.25132 -10.24753
 Alpha  occ. eigenvalues --  -10.24641 -10.24569 -10.24296 -10.24096 -10.24095
 Alpha  occ. eigenvalues --  -10.24071 -10.23304  -1.10874  -1.09151  -0.93947
 Alpha  occ. eigenvalues --   -0.93339  -0.93015  -0.92302  -0.90682  -0.90291
 Alpha  occ. eigenvalues --   -0.87797  -0.87597  -0.86423  -0.85784  -0.85488
 Alpha  occ. eigenvalues --   -0.83274  -0.82475  -0.80758  -0.80006  -0.77933
 Alpha  occ. eigenvalues --   -0.77083  -0.76955  -0.76359  -0.76261  -0.76123
 Alpha  occ. eigenvalues --   -0.75741  -0.75282  -0.74794  -0.74301  -0.70578
 Alpha  occ. eigenvalues --   -0.69381  -0.67690  -0.66513  -0.65442  -0.65190
 Alpha  occ. eigenvalues --   -0.63320  -0.62269  -0.61766  -0.60587  -0.60096
 Alpha  occ. eigenvalues --   -0.60020  -0.59392  -0.58370  -0.57722  -0.56426
 Alpha  occ. eigenvalues --   -0.55691  -0.55213  -0.55167  -0.54760  -0.54214
 Alpha  occ. eigenvalues --   -0.53467  -0.52652  -0.52276  -0.52027  -0.51142
 Alpha  occ. eigenvalues --   -0.50623  -0.50315  -0.49986  -0.49462  -0.49408
 Alpha  occ. eigenvalues --   -0.49255  -0.48983  -0.48909  -0.48418  -0.48127
 Alpha  occ. eigenvalues --   -0.47910  -0.47311  -0.46962  -0.46764  -0.46603
 Alpha  occ. eigenvalues --   -0.46054  -0.45917  -0.45792  -0.45299  -0.45194
 Alpha  occ. eigenvalues --   -0.44733  -0.44717  -0.44648  -0.44375  -0.43835
 Alpha  occ. eigenvalues --   -0.42969  -0.42362  -0.42242  -0.42172  -0.41926
 Alpha  occ. eigenvalues --   -0.41767  -0.41680  -0.41353  -0.40914  -0.40761
 Alpha  occ. eigenvalues --   -0.40442  -0.40195  -0.40102  -0.39556  -0.39360
 Alpha  occ. eigenvalues --   -0.39013  -0.38701  -0.38618  -0.38423  -0.38372
 Alpha  occ. eigenvalues --   -0.37625  -0.37464  -0.37293  -0.36915  -0.35362
 Alpha  occ. eigenvalues --   -0.34909  -0.34319  -0.34141  -0.32507  -0.31573
 Alpha  occ. eigenvalues --   -0.31532  -0.29944  -0.28429  -0.26969  -0.24185
 Alpha  occ. eigenvalues --   -0.21264
 Alpha virt. eigenvalues --   -0.04256  -0.00411   0.02917   0.05733   0.08009
 Alpha virt. eigenvalues --    0.09421   0.11202   0.11583   0.11903   0.12057
 Alpha virt. eigenvalues --    0.12176   0.12524   0.12860   0.13494   0.13608

 Mulliken charges:
               1
     1  O   -0.558318
     2  O   -0.554796
     3  C   -0.064725
     4  C   -0.043624
     5  C   -0.196045
     6  C   -0.176180
     7  C    0.172487
     8  C    0.175005
     9  C    0.099594
    10  C    0.039176
    11  C   -0.253089
    12  C   -0.172731
    13  C    0.083601
    14  C    0.009099
    15  C   -0.295481
    16  C   -0.289993
    17  C   -0.269751
    18  C   -0.287621
    19  C   -0.124003
    20  C   -0.139167
    21  C   -0.390209
    22  C   -0.377505
    23  C   -0.099125
    24  C   -0.071118
    25  C    0.052708
    26  C    0.080031
    27  C   -0.374291
    28  C   -0.360607
    29  C   -0.110469
    30  C   -0.115921
    31  C   -0.062584
    32  C   -0.114769
    33  C   -0.126348
    34  C   -0.087035
    35  C    0.132800
    36  C    0.163577
    37  C   -0.374579
    38  C   -0.359199
    39  C   -0.142369
    40  C   -0.159545
    41  C   -0.075174
    42  C   -0.054764
    43  H    0.090689
    44  H    0.090884
    45  H    0.062766
    46  H    0.088963
    47  H    0.077497
    48  H    0.083014
    49  H    0.128035
    50  H    0.104013
    51  H    0.125586
    52  H    0.094109
    53  H    0.108809
    54  H    0.091955
    55  H    0.100918
    56  H    0.097549
    57  H    0.105920
    58  H    0.089458
    59  H    0.105897
    60  H    0.111274
    61  H    0.073039
    62  H    0.109476
    63  H    0.099076
    64  H    0.090021
    65  H    0.094473
    66  H    0.086196
    67  H    0.114981
    68  H    0.125118
    69  H    0.107880
    70  H    0.113430
    71  H    0.098346
    72  H    0.118628
    73  H    0.306747
    74  H    0.288831
    75  H    0.075847
    76  H    0.083273
    77  H    0.110359
    78  H    0.119559
    79  H    0.123327
    80  H    0.109330
    81  H    0.135500
    82  H    0.104388
    83  H    0.083791
    84  H    0.081195
    85  H    0.082171
    86  H    0.091855
    87  H    0.075768
    88  H    0.077475
    89  H    0.114897
    90  H    0.115867
    91  H    0.119953
    92  H    0.093984
    93  H    0.084357
    94  H    0.088100
    95  H    0.088124
    96  H    0.067107
    97  H    0.083400
    98  H    0.079851
 Sum of Mulliken charges =  -0.00000

 Dipole moment (field-independent basis, Debye):
    X=              0.8045    Y=             -0.8443    Z=              1.4097  Tot=              1.8296
 Quadrupole moment (field-independent basis, Debye-Ang):
   XX=           -297.2282   YY=           -242.8112   ZZ=           -257.9461
   XY=             10.2394   XZ=             -4.9091   YZ=              0.6991

 Normal termination of Gaussian 16 at Sat Jul  6 06:33:31 2019.
