 Gaussian 16, Revision A.03,
 Gaussian 16:  ES64L-G16RevA.03 25-Dec-2016

 -------------------------------------
 # td=(NStates=1) CAM-B3LYP/6-31G(d,p)
 -------------------------------------

 --
 TD
 --
 Symbolic Z-matrix:
 Charge =  0 Multiplicity = 1

                         Standard orientation:
 ---------------------------------------------------------------------
 Center     Atomic      Atomic             Coordinates (Angstroms)
 Number     Number       Type             X           Y           Z
 ---------------------------------------------------------------------
      1          8           0       14.724899   -2.179938   -0.470535
      2          8           0      -14.791923    1.883673    0.803644
      3          6           0       11.463981   -1.144576    1.275811
      4          6           0      -12.271506   -1.037914    0.792179
      5          6           0       12.904091   -1.394619    1.036905
      6          6           0      -13.744661   -0.264339    0.604738
      7          6           0       13.297560   -1.969868   -0.241836
      8          6           0      -13.517591    1.239702    0.721159
      9          6           0       10.948091   -0.255511    0.043960
     10          6           0      -11.340584   -0.282889   -0.204240
     11          6           0       12.934641   -1.048001   -1.427242
     12          6           0      -12.674977    1.819334   -0.386519
     13          6           0       11.548899   -0.385322   -1.169565
     14          6           0      -11.534623    0.990289   -0.733530
     15          6           0       11.314252   -0.223817    2.501837
     16          6           0       10.586773   -2.433541    1.516145
     17          6           0      -11.693258   -1.009193    2.141110
     18          6           0      -12.509539   -2.483927    0.255966
     19          6           0        9.668140    0.405176    0.383783
     20          6           0      -10.040727   -1.095657   -0.495941
     21          6           0       10.940021    0.192244   -2.386878
     22          6           0      -10.602577    1.585870   -1.772081
     23          6           0        9.316451    1.610119   -0.100668
     24          6           0       -8.808088   -0.650464   -0.234967
     25          6           0        7.998377    2.271084   -0.020559
     26          6           0       -7.523920   -1.359012   -0.436876
     27          6           0        8.257031    3.765949    0.219844
     28          6           0       -7.689637   -2.698576   -0.723934
     29          6           0        6.921250    1.590232   -0.078837
     30          6           0       -6.427011   -0.577654   -0.173630
     31          6           0        5.624736    2.106303    0.265201
     32          6           0       -5.149751   -1.157999   -0.411869
     33          6           0        4.492893    1.392963    0.041532
     34          6           0       -4.015659   -0.339027   -0.339378
     35          6           0        3.039210    1.774829    0.162986
     36          6           0       -2.543476   -0.721716   -0.567511
     37          6           0        2.674172    3.202839    0.526375
     38          6           0       -2.343052   -2.071643   -1.047151
     39          6           0        2.162116    0.824303   -0.009643
     40          6           0       -1.586876    0.224580   -0.199448
     41          6           0        0.664896    0.937772   -0.024607
     42          6           0       -0.183958   -0.028906   -0.257592
     43          1           0       13.420829   -0.526077    1.259495
     44          1           0       13.275241   -2.027625    1.792632
     45          1           0      -14.553682   -0.696873    1.408018
     46          1           0      -14.158908   -0.357646   -0.325841
     47          1           0       12.758416   -2.965806   -0.198056
     48          1           0      -12.938154    1.611351    1.732211
     49          1           0       13.843162   -0.334555   -1.468277
     50          1           0       12.707180   -1.546691   -2.419889
     51          1           0      -13.246728    1.855380   -1.190883
     52          1           0      -12.390023    2.931907   -0.292376
     53          1           0       11.714780   -0.849193    3.363651
     54          1           0       10.403745   -0.166153    2.700530
     55          1           0       11.792900    0.648632    2.314266
     56          1           0       10.716560   -3.173108    0.576167
     57          1           0       10.917733   -2.758257    2.449296
     58          1           0        9.574085   -2.137144    1.693292
     59          1           0      -11.720476   -0.043592    2.461743
     60          1           0      -10.679890   -1.487817    2.304514
     61          1           0      -12.550448   -1.423933    2.752158
     62          1           0      -13.106550   -3.012308    1.066067
     63          1           0      -11.606530   -3.132096    0.277899
     64          1           0      -12.815605   -2.610193   -0.820387
     65          1           0        8.997674   -0.285864    0.863556
     66          1           0      -10.089682   -2.018339   -1.040550
     67          1           0        9.954611    0.585299   -2.284824
     68          1           0       11.524610    1.005580   -2.866531
     69          1           0       10.714490   -0.632579   -3.140127
     70          1           0      -11.225610    1.641865   -2.726660
     71          1           0       -9.653216    1.065307   -1.951394
     72          1           0      -10.244553    2.602284   -1.419779
     73          1           0       15.055192   -2.743439    0.237917
     74          1           0      -15.380485    1.621125    1.488512
     75          1           0       10.213885    2.141035   -0.656997
     76          1           0       -8.787692    0.439086    0.353299
     77          1           0        8.850011    4.103022   -0.638405
     78          1           0        7.193610    4.355805    0.306352
     79          1           0        8.561896    4.085912    1.251474
     80          1           0       -8.012491   -3.444485    0.176662
     81          1           0       -8.301543   -3.026857   -1.684071
     82          1           0       -6.727658   -3.145234   -1.064142
     83          1           0        6.970905    0.724903   -0.667264
     84          1           0       -6.694840    0.406113    0.257469
     85          1           0        5.432581    3.110594    0.615391
     86          1           0       -5.208068   -2.295361   -0.611469
     87          1           0        4.798921    0.382222   -0.394422
     88          1           0       -4.149191    0.722323   -0.060472
     89          1           0        3.089891    3.589508    1.456444
     90          1           0        1.627486    3.335283    0.536148
     91          1           0        2.895439    3.864847   -0.316932
     92          1           0       -2.816025   -2.934978   -0.261701
     93          1           0       -2.918292   -2.192467   -1.970353
     94          1           0       -1.178785   -2.309129   -1.221881
     95          1           0        2.657189   -0.064105   -0.545920
     96          1           0       -1.867433    1.311328    0.058797
     97          1           0        0.407075    1.847151    0.211203
     98          1           0        0.151981   -1.072312   -0.660625
 ---------------------------------------------------------------------

 SCF Done:  E(RCAM-B3LYP) =  -1707.00613025     A.U. after   13 cycles

 Excitation energies and oscillator strengths:

 Excited State   1:      Singlet-A      3.1453 eV  394.19 nm  f=3.4918  <S**2>=0.000
     155 ->158        -0.18734
     156 ->157         0.67264
 This state for optimization and/or second-order correction.
 Total Energy, E(TD-HF/TD-DFT) =  -1706.89054431
 Copying the excited state density for this state as the 1-particle RhoCI density.

 The electronic state is 1-A.
 Alpha  occ. eigenvalues --  -19.20930 -19.19808 -10.31482 -10.30222 -10.28134
 Alpha  occ. eigenvalues --  -10.28003 -10.27935 -10.27436 -10.27393 -10.27362
 Alpha  occ. eigenvalues --  -10.27324 -10.27273 -10.26945 -10.26664 -10.26661
 Alpha  occ. eigenvalues --  -10.26631 -10.26549 -10.26495 -10.26381 -10.26327
 Alpha  occ. eigenvalues --  -10.26314 -10.26274 -10.26237 -10.26194 -10.26171
 Alpha  occ. eigenvalues --  -10.26146 -10.25979 -10.25581 -10.25514 -10.25503
 Alpha  occ. eigenvalues --  -10.25454 -10.25369 -10.25267 -10.25255 -10.25171
 Alpha  occ. eigenvalues --  -10.25114 -10.24672 -10.24404 -10.24240 -10.24042
 Alpha  occ. eigenvalues --  -10.22866 -10.22153  -1.08495  -1.08196  -0.93429
 Alpha  occ. eigenvalues --   -0.92829  -0.92173  -0.91947  -0.91310  -0.89913
 Alpha  occ. eigenvalues --   -0.87298  -0.87205  -0.86766  -0.85520  -0.84574
 Alpha  occ. eigenvalues --   -0.83222  -0.82350  -0.80271  -0.79755  -0.78260
 Alpha  occ. eigenvalues --   -0.76837  -0.76698  -0.76535  -0.76145  -0.76064
 Alpha  occ. eigenvalues --   -0.75435  -0.75183  -0.74473  -0.73935  -0.69957
 Alpha  occ. eigenvalues --   -0.68310  -0.67084  -0.65690  -0.64665  -0.63316
 Alpha  occ. eigenvalues --   -0.63057  -0.62065  -0.61343  -0.60599  -0.59778
 Alpha  occ. eigenvalues --   -0.58992  -0.58776  -0.57540  -0.57436  -0.55981
 Alpha  occ. eigenvalues --   -0.55381  -0.55049  -0.54209  -0.54102  -0.53760
 Alpha  occ. eigenvalues --   -0.53094  -0.52265  -0.52116  -0.51807  -0.51200
 Alpha  occ. eigenvalues --   -0.50852  -0.50560  -0.49986  -0.49776  -0.49454
 Alpha  occ. eigenvalues --   -0.49369  -0.48804  -0.48635  -0.48433  -0.47990
 Alpha  occ. eigenvalues --   -0.47827  -0.47384  -0.47358  -0.46489  -0.45723
 Alpha  occ. eigenvalues --   -0.45653  -0.45500  -0.45273  -0.45161  -0.44384
 Alpha  occ. eigenvalues --   -0.44274  -0.44177  -0.43728  -0.43342  -0.43230
 Alpha  occ. eigenvalues --   -0.43073  -0.42958  -0.42735  -0.42462  -0.42147
 Alpha  occ. eigenvalues --   -0.42075  -0.41623  -0.41313  -0.41182  -0.41095
 Alpha  occ. eigenvalues --   -0.40862  -0.40789  -0.40084  -0.39467  -0.39194
 Alpha  occ. eigenvalues --   -0.38920  -0.38725  -0.38227  -0.38078  -0.37813
 Alpha  occ. eigenvalues --   -0.37364  -0.37216  -0.37032  -0.35527  -0.35069
 Alpha  occ. eigenvalues --   -0.34219  -0.33805  -0.33073  -0.32375  -0.32117
 Alpha  occ. eigenvalues --   -0.30920  -0.29111  -0.27505  -0.26501  -0.24470
 Alpha  occ. eigenvalues --   -0.21788
 Alpha virt. eigenvalues --   -0.03248   0.00097   0.03229   0.06193   0.07372
 Alpha virt. eigenvalues --    0.09679   0.11472   0.11583   0.11953   0.12147
 Alpha virt. eigenvalues --    0.12557   0.12755   0.13012   0.13451   0.13728

 Mulliken charges:
               1
     1  O   -0.565864
     2  O   -0.582823
     3  C   -0.046657
     4  C   -0.002408
     5  C   -0.170730
     6  C   -0.186522
     7  C    0.163967
     8  C    0.185540
     9  C    0.038158
    10  C    0.006442
    11  C   -0.195202
    12  C   -0.209575
    13  C    0.039117
    14  C    0.065598
    15  C   -0.271857
    16  C   -0.302549
    17  C   -0.287709
    18  C   -0.308079
    19  C   -0.096715
    20  C   -0.153442
    21  C   -0.372958
    22  C   -0.352816
    23  C   -0.131047
    24  C   -0.096316
    25  C    0.088120
    26  C    0.152680
    27  C   -0.352391
    28  C   -0.402747
    29  C   -0.121750
    30  C   -0.088298
    31  C   -0.076825
    32  C   -0.106269
    33  C   -0.126492
    34  C   -0.129778
    35  C    0.117572
    36  C    0.116089
    37  C   -0.382868
    38  C   -0.362646
    39  C   -0.135733
    40  C   -0.129508
    41  C   -0.072276
    42  C   -0.056247
    43  H    0.100507
    44  H    0.071660
    45  H    0.059464
    46  H    0.119772
    47  H    0.067735
    48  H    0.049531
    49  H    0.126533
    50  H    0.101985
    51  H    0.128291
    52  H    0.105625
    53  H    0.071730
    54  H    0.107669
    55  H    0.116057
    56  H    0.096263
    57  H    0.110405
    58  H    0.106670
    59  H    0.115530
    60  H    0.117959
    61  H    0.084173
    62  H    0.090074
    63  H    0.094475
    64  H    0.105294
    65  H    0.092404
    66  H    0.083706
    67  H    0.120383
    68  H    0.109485
    69  H    0.094793
    70  H    0.105146
    71  H    0.125419
    72  H    0.098715
    73  H    0.297813
    74  H    0.303918
    75  H    0.079861
    76  H    0.060758
    77  H    0.129537
    78  H    0.075235
    79  H    0.128278
    80  H    0.120684
    81  H    0.114203
    82  H    0.097445
    83  H    0.096097
    84  H    0.097177
    85  H    0.077103
    86  H    0.093190
    87  H    0.069618
    88  H    0.083804
    89  H    0.125103
    90  H    0.114739
    91  H    0.126210
    92  H    0.097569
    93  H    0.134698
    94  H    0.092597
    95  H    0.075075
    96  H    0.088452
    97  H    0.064269
    98  H    0.082922
 Sum of Mulliken charges =  -0.00000

 Dipole moment (field-independent basis, Debye):
    X=             -0.7529    Y=             -1.0912    Z=              1.2918  Tot=              1.8510
 Quadrupole moment (field-independent basis, Debye-Ang):
   XX=           -288.5551   YY=           -245.8149   ZZ=           -259.3644
   XY=             13.6908   XZ=              7.9952   YZ=              0.7866

 Normal termination of Gaussian 16 at Tue Jul  9 06:08:22 2019.
