 Gaussian 16, Revision A.03,
 Gaussian 16:  ES64L-G16RevA.03 25-Dec-2016

 -------------------------------------
 # td=(NStates=1) CAM-B3LYP/6-31G(d,p)
 -------------------------------------

 --
 TD
 --
 Symbolic Z-matrix:
 Charge =  0 Multiplicity = 1

                         Standard orientation:
 ---------------------------------------------------------------------
 Center     Atomic      Atomic             Coordinates (Angstroms)
 Number     Number       Type             X           Y           Z
 ---------------------------------------------------------------------
      1          8           0       14.776466   -2.196319   -0.172028
      2          8           0      -14.820701    1.929977    0.815324
      3          6           0       11.296681   -1.041306    1.275230
      4          6           0      -12.286469   -0.863972    0.824569
      5          6           0       12.800449   -1.437577    1.200339
      6          6           0      -13.726221   -0.249601    0.740852
      7          6           0       13.341095   -1.846043   -0.235901
      8          6           0      -13.574278    1.273381    0.938352
      9          6           0       10.940199   -0.332372    0.050645
     10          6           0      -11.291495   -0.213984   -0.208108
     11          6           0       13.076779   -0.838212   -1.277808
     12          6           0      -12.768041    1.762981   -0.250765
     13          6           0       11.638046   -0.312463   -1.145725
     14          6           0      -11.579923    1.003714   -0.703642
     15          6           0       11.059335   -0.051290    2.528452
     16          6           0       10.622340   -2.434463    1.339007
     17          6           0      -11.694431   -1.060559    2.291327
     18          6           0      -12.530973   -2.337630    0.316716
     19          6           0        9.673998    0.363147    0.036645
     20          6           0      -10.077080   -1.016635   -0.568491
     21          6           0       11.306936    0.471887   -2.367716
     22          6           0      -10.677865    1.662878   -1.651766
     23          6           0        9.464609    1.671770   -0.121557
     24          6           0       -8.838667   -0.522488   -0.389349
     25          6           0        8.074959    2.274389    0.053016
     26          6           0       -7.650400   -1.240689   -0.623371
     27          6           0        8.069040    3.716520    0.439663
     28          6           0       -7.639836   -2.758185   -0.814674
     29          6           0        6.952615    1.534329   -0.069765
     30          6           0       -6.411393   -0.580776   -0.476494
     31          6           0        5.522555    1.909160    0.066880
     32          6           0       -5.075535   -1.116054   -0.688180
     33          6           0        4.493544    1.172025   -0.160064
     34          6           0       -3.996321   -0.302539   -0.495926
     35          6           0        3.080311    1.600196    0.057336
     36          6           0       -2.635588   -0.839525   -0.462013
     37          6           0        2.821281    3.013539    0.606933
     38          6           0       -2.395633   -2.262882   -0.933359
     39          6           0        2.105867    0.737012   -0.165264
     40          6           0       -1.618015    0.001179   -0.148524
     41          6           0        0.716254    0.826623   -0.100451
     42          6           0       -0.158952   -0.109026   -0.321622
     43          1           0       13.479637   -0.671350    1.560978
     44          1           0       13.029808   -2.323832    1.979987
     45          1           0      -14.479967   -0.807620    1.409285
     46          1           0      -13.884922   -0.564412   -0.305639
     47          1           0       12.853796   -2.514457   -0.606441
     48          1           0      -13.027868    1.556407    1.719522
     49          1           0       13.776394   -0.152721   -1.153056
     50          1           0       13.138439   -1.044406   -2.311697
     51          1           0      -13.706684    1.738484   -0.966260
     52          1           0      -12.547917    2.951068   -0.064443
     53          1           0       11.347524   -0.618092    3.402765
     54          1           0       10.039704    0.345438    2.747511
     55          1           0       11.865634    0.699790    2.456490
     56          1           0       10.862518   -3.173702    0.608588
     57          1           0       11.011931   -3.048904    2.276917
     58          1           0        9.455177   -2.190960    1.404717
     59          1           0      -11.571326    0.093671    2.713066
     60          1           0      -10.649224   -1.398171    2.298428
     61          1           0      -12.594015   -1.438640    2.881735
     62          1           0      -13.370616   -2.731244    0.870086
     63          1           0      -11.789399   -3.123829    0.241323
     64          1           0      -12.861248   -2.249771   -0.775917
     65          1           0        8.729645   -0.134438    0.300399
     66          1           0      -10.385353   -2.007345   -0.896026
     67          1           0       10.128165    0.672892   -2.545707
     68          1           0       11.763024    1.390645   -2.525189
     69          1           0       11.654964   -0.048687   -3.291713
     70          1           0      -11.057370    2.230200   -2.566025
     71          1           0       -9.928913    1.064330   -2.290646
     72          1           0      -10.189071    2.534902   -1.154634
     73          1           0       14.933726   -2.995547    0.616153
     74          1           0      -15.381565    1.457044    1.598746
     75          1           0       10.341003    2.126055   -0.483835
     76          1           0       -8.779865    0.477583    0.014845
     77          1           0        8.575451    4.434866   -0.330829
     78          1           0        7.179103    4.058384    0.370386
     79          1           0        8.878132    3.690746    1.294188
     80          1           0       -8.010530   -3.413377    0.034477
     81          1           0       -8.305662   -3.231305   -1.616135
     82          1           0       -6.650380   -3.156345   -0.870777
     83          1           0        6.849173    0.380170   -0.525020
     84          1           0       -6.429271    0.365330   -0.357114
     85          1           0        5.484750    2.835399    0.440434
     86          1           0       -4.925465   -2.256739   -0.825473
     87          1           0        4.474101    0.119826   -0.413887
     88          1           0       -4.072275    0.738905   -0.263598
     89          1           0        3.238671    3.246140    1.716265
     90          1           0        1.747207    3.284603    0.473249
     91          1           0        3.463647    3.861563    0.096394
     92          1           0       -2.678683   -2.848542   -0.047868
     93          1           0       -2.907616   -2.574571   -1.799529
     94          1           0       -1.403052   -2.535118   -1.107290
     95          1           0        2.298207   -0.259997   -0.527453
     96          1           0       -1.675967    1.116849    0.225743
     97          1           0        0.302449    1.904687    0.108780
     98          1           0        0.137471   -1.089882   -0.698178
 ---------------------------------------------------------------------

 SCF Done:  E(RCAM-B3LYP) =  -1706.93378715     A.U. after   13 cycles

 Excitation energies and oscillator strengths:

 Excited State   1:      Singlet-A      2.9939 eV  414.13 nm  f=3.6082  <S**2>=0.000
     155 ->158        -0.17380
     156 ->157         0.67870
 This state for optimization and/or second-order correction.
 Total Energy, E(TD-HF/TD-DFT) =  -1706.82376516
 Copying the excited state density for this state as the 1-particle RhoCI density.

 The electronic state is 1-A.
 Alpha  occ. eigenvalues --  -19.22252 -19.21862 -10.29235 -10.28482 -10.28261
 Alpha  occ. eigenvalues --  -10.28072 -10.28054 -10.27815 -10.27659 -10.27654
 Alpha  occ. eigenvalues --  -10.27474 -10.27161 -10.27021 -10.26966 -10.26904
 Alpha  occ. eigenvalues --  -10.26696 -10.26558 -10.26507 -10.26339 -10.26217
 Alpha  occ. eigenvalues --  -10.26201 -10.26147 -10.26132 -10.26056 -10.26048
 Alpha  occ. eigenvalues --  -10.25996 -10.25991 -10.25982 -10.25777 -10.25727
 Alpha  occ. eigenvalues --  -10.25647 -10.25494 -10.25400 -10.25302 -10.25301
 Alpha  occ. eigenvalues --  -10.25236 -10.25208 -10.25166 -10.24940 -10.24899
 Alpha  occ. eigenvalues --  -10.24608 -10.23358  -1.08721  -1.04918  -0.93959
 Alpha  occ. eigenvalues --   -0.93098  -0.92400  -0.91526  -0.90611  -0.89866
 Alpha  occ. eigenvalues --   -0.87926  -0.87341  -0.86441  -0.85756  -0.85037
 Alpha  occ. eigenvalues --   -0.83409  -0.82246  -0.80643  -0.79658  -0.78191
 Alpha  occ. eigenvalues --   -0.76721  -0.76591  -0.76387  -0.75648  -0.75430
 Alpha  occ. eigenvalues --   -0.75220  -0.74814  -0.74371  -0.74085  -0.70803
 Alpha  occ. eigenvalues --   -0.69083  -0.68137  -0.66276  -0.65559  -0.64806
 Alpha  occ. eigenvalues --   -0.63599  -0.62895  -0.61741  -0.61314  -0.60912
 Alpha  occ. eigenvalues --   -0.59786  -0.59007  -0.58745  -0.58315  -0.56346
 Alpha  occ. eigenvalues --   -0.55647  -0.55222  -0.54980  -0.54446  -0.53915
 Alpha  occ. eigenvalues --   -0.53257  -0.52072  -0.51990  -0.51723  -0.51374
 Alpha  occ. eigenvalues --   -0.50750  -0.50690  -0.50312  -0.49544  -0.49163
 Alpha  occ. eigenvalues --   -0.48842  -0.48670  -0.47857  -0.47781  -0.47355
 Alpha  occ. eigenvalues --   -0.46929  -0.46744  -0.46474  -0.46309  -0.46117
 Alpha  occ. eigenvalues --   -0.45908  -0.45673  -0.45483  -0.45368  -0.45116
 Alpha  occ. eigenvalues --   -0.44752  -0.44605  -0.44461  -0.44187  -0.43545
 Alpha  occ. eigenvalues --   -0.43103  -0.42691  -0.42516  -0.42227  -0.42101
 Alpha  occ. eigenvalues --   -0.41733  -0.41512  -0.41042  -0.40919  -0.40664
 Alpha  occ. eigenvalues --   -0.40521  -0.40345  -0.39711  -0.39220  -0.39049
 Alpha  occ. eigenvalues --   -0.38586  -0.38342  -0.38135  -0.37917  -0.37531
 Alpha  occ. eigenvalues --   -0.37193  -0.37087  -0.36464  -0.36423  -0.36037
 Alpha  occ. eigenvalues --   -0.35803  -0.34912  -0.33809  -0.32510  -0.32188
 Alpha  occ. eigenvalues --   -0.31955  -0.29161  -0.27968  -0.26840  -0.24451
 Alpha  occ. eigenvalues --   -0.21460
 Alpha virt. eigenvalues --   -0.03711   0.00078   0.03098   0.06022   0.07468
 Alpha virt. eigenvalues --    0.08828   0.09349   0.10536   0.10802   0.12171
 Alpha virt. eigenvalues --    0.12249   0.12278   0.12736   0.13491   0.13987

 Mulliken charges:
               1
     1  O   -0.587984
     2  O   -0.559735
     3  C   -0.016945
     4  C   -0.028830
     5  C   -0.211899
     6  C   -0.199483
     7  C    0.206884
     8  C    0.190801
     9  C    0.078819
    10  C    0.011907
    11  C   -0.210347
    12  C   -0.258951
    13  C    0.032572
    14  C    0.129243
    15  C   -0.319350
    16  C   -0.289278
    17  C   -0.285211
    18  C   -0.321844
    19  C   -0.113783
    20  C   -0.125241
    21  C   -0.377586
    22  C   -0.389534
    23  C   -0.095311
    24  C   -0.088590
    25  C    0.047048
    26  C    0.119623
    27  C   -0.333760
    28  C   -0.377577
    29  C   -0.115385
    30  C   -0.107462
    31  C   -0.067500
    32  C   -0.096710
    33  C   -0.097451
    34  C   -0.092451
    35  C    0.131632
    36  C    0.086738
    37  C   -0.370765
    38  C   -0.375432
    39  C   -0.134235
    40  C   -0.139101
    41  C   -0.070936
    42  C   -0.078425
    43  H    0.101768
    44  H    0.055184
    45  H    0.074494
    46  H    0.115353
    47  H    0.088326
    48  H    0.097233
    49  H    0.126768
    50  H    0.101714
    51  H    0.119347
    52  H    0.082049
    53  H    0.103017
    54  H    0.119465
    55  H    0.112412
    56  H    0.120966
    57  H    0.082349
    58  H    0.087839
    59  H    0.060456
    60  H    0.126654
    61  H    0.102703
    62  H    0.097172
    63  H    0.104628
    64  H    0.087996
    65  H    0.082104
    66  H    0.095006
    67  H    0.104475
    68  H    0.133145
    69  H    0.098367
    70  H    0.099227
    71  H    0.118072
    72  H    0.109300
    73  H    0.299514
    74  H    0.304155
    75  H    0.086171
    76  H    0.099316
    77  H    0.103851
    78  H    0.114113
    79  H    0.124289
    80  H    0.110443
    81  H    0.108503
    82  H    0.110133
    83  H    0.065873
    84  H    0.063939
    85  H    0.066093
    86  H    0.090245
    87  H    0.081353
    88  H    0.093667
    89  H    0.108222
    90  H    0.111298
    91  H    0.102006
    92  H    0.127862
    93  H    0.129876
    94  H    0.115959
    95  H    0.073410
    96  H    0.066757
    97  H    0.065347
    98  H    0.071837
 Sum of Mulliken charges =  -0.00000

 Dipole moment (field-independent basis, Debye):
    X=              0.0622    Y=             -1.6693    Z=              1.7211  Tot=              2.3985
 Quadrupole moment (field-independent basis, Debye-Ang):
   XX=           -282.6050   YY=           -244.0832   ZZ=           -260.3421
   XY=             20.5262   XZ=             -4.3186   YZ=              0.6242

 Normal termination of Gaussian 16 at Fri Jul  5 05:40:13 2019.
