 Gaussian 16, Revision A.03,
 Gaussian 16:  ES64L-G16RevA.03 25-Dec-2016

 -------------------------------------
 # td=(NStates=1) CAM-B3LYP/6-31G(d,p)
 -------------------------------------

 --
 TD
 --
 Symbolic Z-matrix:
 Charge =  0 Multiplicity = 1

                         Standard orientation:
 ---------------------------------------------------------------------
 Center     Atomic      Atomic             Coordinates (Angstroms)
 Number     Number       Type             X           Y           Z
 ---------------------------------------------------------------------
      1          8           0      -14.691132   -2.113797    0.569677
      2          8           0       14.893149    2.075952   -0.369510
      3          6           0      -11.582879   -1.012158   -1.073973
      4          6           0       12.322326   -0.900746   -0.699676
      5          6           0      -13.037129   -1.261523   -0.830346
      6          6           0       13.722877   -0.093020   -0.612803
      7          6           0      -13.365813   -1.858161    0.453083
      8          6           0       13.638075    1.360059   -0.465350
      9          6           0      -10.920181   -0.332784    0.123721
     10          6           0       11.395001   -0.276012    0.200054
     11          6           0      -12.936036   -0.854055    1.567704
     12          6           0       12.862595    1.644856    0.884400
     13          6           0      -11.542091   -0.307936    1.435935
     14          6           0       11.634014    0.866197    0.996941
     15          6           0      -11.371218   -0.128903   -2.311007
     16          6           0      -10.901688   -2.425222   -1.443281
     17          6           0       11.878168   -0.764083   -2.046064
     18          6           0       12.634042   -2.341309   -0.345738
     19          6           0       -9.677296    0.270801   -0.112336
     20          6           0       10.099952   -1.014835    0.442593
     21          6           0      -11.019520    0.449974    2.610115
     22          6           0       10.641481    1.353634    2.024384
     23          6           0       -9.253509    1.473972    0.238524
     24          6           0        8.836884   -0.530602    0.268149
     25          6           0       -8.072609    2.206455   -0.095458
     26          6           0        7.594557   -1.278188    0.423040
     27          6           0       -8.220081    3.689824   -0.301765
     28          6           0        7.753418   -2.773105    0.626671
     29          6           0       -6.930783    1.429410   -0.121061
     30          6           0        6.438187   -0.646960    0.328692
     31          6           0       -5.706445    2.086797   -0.428337
     32          6           0        5.058633   -1.192136    0.180684
     33          6           0       -4.518103    1.287934   -0.248565
     34          6           0        4.085561   -0.375704   -0.103713
     35          6           0       -3.115725    1.616159   -0.463468
     36          6           0        2.615395   -0.857227    0.101411
     37          6           0       -2.802301    3.116790   -0.751954
     38          6           0        2.298889   -2.218139    0.504327
     39          6           0       -2.129879    0.668529   -0.182719
     40          6           0        1.630596    0.018300   -0.104000
     41          6           0       -0.669094    0.835234   -0.294368
     42          6           0        0.170011   -0.173312   -0.130228
     43          1           0      -13.552577   -0.306454   -0.889575
     44          1           0      -13.415892   -1.925124   -1.585489
     45          1           0       14.287878   -0.374026   -1.397514
     46          1           0       14.409498   -0.463524    0.335913
     47          1           0      -12.688246   -2.841305    0.552776
     48          1           0       13.055751    1.917919   -1.347116
     49          1           0      -13.756482   -0.012198    1.940277
     50          1           0      -12.892609   -1.510184    2.645762
     51          1           0       13.554367    1.484219    1.713781
     52          1           0       12.536434    2.641563    0.819525
     53          1           0      -12.265059   -0.514561   -3.107665
     54          1           0      -10.270455    0.028484   -2.586603
     55          1           0      -11.707789    0.979213   -2.268465
     56          1           0      -11.058700   -3.055194   -0.573806
     57          1           0      -11.561438   -2.850466   -2.400243
     58          1           0       -9.847927   -2.304318   -1.622837
     59          1           0       11.480878    0.231564   -2.430697
     60          1           0       10.941070   -1.468378   -2.146719
     61          1           0       12.511982   -1.183722   -2.803162
     62          1           0       13.509100   -2.610957   -1.053190
     63          1           0       11.930124   -3.129865   -0.272942
     64          1           0       13.002328   -2.434913    0.547190
     65          1           0       -8.867205   -0.339107   -0.445559
     66          1           0       10.198457   -2.165882    0.556239
     67          1           0       -9.804034    0.445725    2.643197
     68          1           0      -11.432096    1.490920    2.688924
     69          1           0      -11.416776   -0.042378    3.674057
     70          1           0       11.174883    1.663485    2.909790
     71          1           0        9.881387    0.787448    2.416858
     72          1           0       10.094480    2.117094    1.443061
     73          1           0      -15.057785   -2.665543   -0.168972
     74          1           0       15.646297    1.827485   -0.912920
     75          1           0      -10.176848    2.076016    0.750492
     76          1           0        8.752220    0.525674    0.104211
     77          1           0       -8.871987    4.347833    0.486228
     78          1           0       -7.319211    4.167626   -0.303332
     79          1           0       -8.597543    3.992610   -1.362548
     80          1           0        8.099652   -3.425256   -0.406387
     81          1           0        8.606900   -2.938224    1.434088
     82          1           0        6.817892   -3.116450    0.852779
     83          1           0       -7.018557    0.391190    0.152212
     84          1           0        6.373359    0.390974    0.294925
     85          1           0       -5.576865    3.059406   -0.642799
     86          1           0        4.840801   -2.190519    0.275547
     87          1           0       -4.870882    0.118498    0.062281
     88          1           0        4.159549    0.842398   -0.314668
     89          1           0       -3.194666    3.364124   -1.663960
     90          1           0       -1.756954    3.286648   -0.901252
     91          1           0       -3.163513    3.705811    0.010691
     92          1           0        2.796975   -2.776412   -0.097413
     93          1           0        2.738371   -2.530869    1.404246
     94          1           0        1.159101   -2.458829    0.457602
     95          1           0       -2.547216   -0.284172    0.263485
     96          1           0        1.970671    0.979392   -0.488634
     97          1           0       -0.402908    1.961527   -0.663981
     98          1           0       -0.284028   -1.156096    0.355668
 ---------------------------------------------------------------------

 SCF Done:  E(RCAM-B3LYP) =  -1706.94762666     A.U. after   14 cycles

 Excitation energies and oscillator strengths:

 Excited State   1:      Singlet-A      2.8510 eV  434.87 nm  f=3.1852  <S**2>=0.000
     155 ->158         0.15379
     156 ->157         0.68023
 This state for optimization and/or second-order correction.
 Total Energy, E(TD-HF/TD-DFT) =  -1706.84285309
 Copying the excited state density for this state as the 1-particle RhoCI density.

 The electronic state is 1-A.
 Alpha  occ. eigenvalues --  -19.21569 -19.20365 -10.31459 -10.30823 -10.28330
 Alpha  occ. eigenvalues --  -10.28151 -10.27958 -10.27675 -10.27566 -10.27402
 Alpha  occ. eigenvalues --  -10.27379 -10.27296 -10.27280 -10.27221 -10.27157
 Alpha  occ. eigenvalues --  -10.27129 -10.27046 -10.27011 -10.26984 -10.26705
 Alpha  occ. eigenvalues --  -10.26670 -10.26559 -10.26401 -10.26340 -10.26308
 Alpha  occ. eigenvalues --  -10.26151 -10.25826 -10.25801 -10.25776 -10.25524
 Alpha  occ. eigenvalues --  -10.25397 -10.25366 -10.25360 -10.25264 -10.24592
 Alpha  occ. eigenvalues --  -10.24506 -10.24435 -10.24350 -10.24127 -10.23969
 Alpha  occ. eigenvalues --  -10.23829 -10.23553  -1.11231  -1.07668  -0.94500
 Alpha  occ. eigenvalues --   -0.93437  -0.92150  -0.91522  -0.90612  -0.89583
 Alpha  occ. eigenvalues --   -0.88038  -0.87155  -0.86266  -0.85341  -0.84795
 Alpha  occ. eigenvalues --   -0.83447  -0.82255  -0.80180  -0.79912  -0.78908
 Alpha  occ. eigenvalues --   -0.77871  -0.76807  -0.76549  -0.76126  -0.75703
 Alpha  occ. eigenvalues --   -0.75138  -0.74670  -0.74305  -0.73245  -0.69957
 Alpha  occ. eigenvalues --   -0.68603  -0.67356  -0.65870  -0.64715  -0.64341
 Alpha  occ. eigenvalues --   -0.62841  -0.62434  -0.61393  -0.60410  -0.60091
 Alpha  occ. eigenvalues --   -0.59181  -0.58490  -0.57572  -0.57233  -0.56842
 Alpha  occ. eigenvalues --   -0.56171  -0.55987  -0.55083  -0.54518  -0.53508
 Alpha  occ. eigenvalues --   -0.52924  -0.52643  -0.52255  -0.51659  -0.51412
 Alpha  occ. eigenvalues --   -0.50694  -0.50553  -0.50045  -0.49647  -0.49300
 Alpha  occ. eigenvalues --   -0.49262  -0.49113  -0.48377  -0.48100  -0.47489
 Alpha  occ. eigenvalues --   -0.47197  -0.46882  -0.46729  -0.46150  -0.46015
 Alpha  occ. eigenvalues --   -0.45813  -0.45391  -0.44958  -0.44855  -0.44614
 Alpha  occ. eigenvalues --   -0.44547  -0.44499  -0.44178  -0.43994  -0.43514
 Alpha  occ. eigenvalues --   -0.43402  -0.43266  -0.42635  -0.42342  -0.41877
 Alpha  occ. eigenvalues --   -0.41813  -0.41733  -0.41167  -0.40663  -0.40561
 Alpha  occ. eigenvalues --   -0.40330  -0.40107  -0.39508  -0.39440  -0.39056
 Alpha  occ. eigenvalues --   -0.38991  -0.38725  -0.38326  -0.38127  -0.37643
 Alpha  occ. eigenvalues --   -0.37491  -0.36920  -0.36510  -0.36455  -0.35433
 Alpha  occ. eigenvalues --   -0.34897  -0.34343  -0.33713  -0.31958  -0.31900
 Alpha  occ. eigenvalues --   -0.31579  -0.29143  -0.27204  -0.25728  -0.23887
 Alpha  occ. eigenvalues --   -0.21012
 Alpha virt. eigenvalues --   -0.03842  -0.00108   0.02896   0.05520   0.07217
 Alpha virt. eigenvalues --    0.09157   0.10874   0.11249   0.11540   0.11897
 Alpha virt. eigenvalues --    0.12643   0.12719   0.13004   0.13392   0.13404

 Mulliken charges:
               1
     1  O   -0.552620
     2  O   -0.585192
     3  C   -0.008934
     4  C   -0.018201
     5  C   -0.183525
     6  C   -0.185669
     7  C    0.211172
     8  C    0.184230
     9  C    0.052867
    10  C    0.056923
    11  C   -0.220276
    12  C   -0.212538
    13  C    0.091045
    14  C    0.035697
    15  C   -0.289907
    16  C   -0.287947
    17  C   -0.287225
    18  C   -0.299986
    19  C   -0.120683
    20  C   -0.150064
    21  C   -0.356271
    22  C   -0.353531
    23  C   -0.115368
    24  C   -0.073757
    25  C    0.092616
    26  C    0.125929
    27  C   -0.364411
    28  C   -0.346636
    29  C   -0.104921
    30  C   -0.138839
    31  C   -0.073315
    32  C   -0.074050
    33  C   -0.128167
    34  C   -0.100380
    35  C    0.071053
    36  C    0.104278
    37  C   -0.367281
    38  C   -0.373744
    39  C   -0.125221
    40  C   -0.139728
    41  C   -0.062341
    42  C   -0.095072
    43  H    0.105816
    44  H    0.068479
    45  H    0.086379
    46  H    0.068466
    47  H    0.051305
    48  H    0.065345
    49  H    0.100402
    50  H    0.068087
    51  H    0.122280
    52  H    0.115506
    53  H    0.065858
    54  H    0.111055
    55  H    0.093953
    56  H    0.107826
    57  H    0.077547
    58  H    0.109002
    59  H    0.105260
    60  H    0.087911
    61  H    0.099992
    62  H    0.084445
    63  H    0.107602
    64  H    0.120447
    65  H    0.075119
    66  H    0.071488
    67  H    0.110820
    68  H    0.123965
    69  H    0.077071
    70  H    0.106752
    71  H    0.128818
    72  H    0.116222
    73  H    0.309349
    74  H    0.304422
    75  H    0.060038
    76  H    0.073704
    77  H    0.106967
    78  H    0.122166
    79  H    0.115439
    80  H    0.086251
    81  H    0.111442
    82  H    0.112874
    83  H    0.103237
    84  H    0.076435
    85  H    0.085157
    86  H    0.079623
    87  H    0.059294
    88  H    0.083403
    89  H    0.129555
    90  H    0.105002
    91  H    0.136039
    92  H    0.133114
    93  H    0.122388
    94  H    0.103601
    95  H    0.082577
    96  H    0.069717
    97  H    0.079774
    98  H    0.085207
 Sum of Mulliken charges =  -0.00000

 Dipole moment (field-independent basis, Debye):
    X=              1.4929    Y=             -0.7566    Z=             -1.4630  Tot=              2.2230
 Quadrupole moment (field-independent basis, Debye-Ang):
   XX=           -258.8314   YY=           -245.3010   ZZ=           -264.6357
   XY=            -19.0120   XZ=              5.4331   YZ=             -1.3270

 Normal termination of Gaussian 16 at Mon Jul  1 17:42:42 2019.
