 Gaussian 16, Revision A.03,
 Gaussian 16:  ES64L-G16RevA.03 25-Dec-2016

 -------------------------------------
 # td=(NStates=1) CAM-B3LYP/6-31G(d,p)
 -------------------------------------

 --
 TD
 --
 Symbolic Z-matrix:
 Charge =  0 Multiplicity = 1

                         Standard orientation:
 ---------------------------------------------------------------------
 Center     Atomic      Atomic             Coordinates (Angstroms)
 Number     Number       Type             X           Y           Z
 ---------------------------------------------------------------------
      1          8           0       14.831054   -2.034096   -0.374156
      2          8           0      -14.765162    2.036523    0.868427
      3          6           0       11.439652   -1.367224    1.075723
      4          6           0      -12.338840   -1.039963    0.734314
      5          6           0       12.955229   -1.540834    1.063273
      6          6           0      -13.748224   -0.265546    0.801711
      7          6           0       13.429990   -1.925599   -0.325708
      8          6           0      -13.588069    1.202350    0.837086
      9          6           0       11.009811   -0.409358    0.026632
     10          6           0      -11.344437   -0.312993   -0.195788
     11          6           0       13.071135   -0.785452   -1.288034
     12          6           0      -12.796919    1.717631   -0.355896
     13          6           0       11.744463   -0.190815   -1.101160
     14          6           0      -11.602817    0.880118   -0.780878
     15          6           0       11.092774   -0.712857    2.588446
     16          6           0       10.634901   -2.701954    0.920887
     17          6           0      -11.723986   -1.136429    2.078587
     18          6           0      -12.598152   -2.400392    0.323528
     19          6           0        9.700050    0.334708    0.146417
     20          6           0      -10.152524   -1.124486   -0.487989
     21          6           0       11.287743    0.754492   -2.274083
     22          6           0      -10.734020    1.645490   -1.708707
     23          6           0        9.421686    1.598424    0.155127
     24          6           0       -8.944558   -0.657619   -0.366799
     25          6           0        8.018027    2.304886    0.181145
     26          6           0       -7.615302   -1.238393   -0.560541
     27          6           0        8.144287    3.758457    0.594361
     28          6           0       -7.653074   -2.726216   -0.886282
     29          6           0        6.906486    1.566306   -0.016012
     30          6           0       -6.446831   -0.529155   -0.273869
     31          6           0        5.506014    1.997955    0.128225
     32          6           0       -5.125725   -1.018710   -0.591415
     33          6           0        4.492900    1.231324   -0.188372
     34          6           0       -3.993883   -0.241558   -0.317720
     35          6           0        3.078627    1.663687   -0.000832
     36          6           0       -2.671502   -0.730169   -0.441379
     37          6           0        2.872283    2.993442    0.587134
     38          6           0       -2.366550   -2.119535   -0.986990
     39          6           0        2.031407    0.814424   -0.108581
     40          6           0       -1.680850    0.227967   -0.305201
     41          6           0        0.684299    1.133345   -0.081891
     42          6           0       -0.198724    0.096817   -0.275414
     43          1           0       13.238517   -0.594621    1.496969
     44          1           0       13.307057   -2.290655    1.961236
     45          1           0      -14.405812   -0.599091    1.554922
     46          1           0      -14.323907   -0.391468   -0.181043
     47          1           0       12.862023   -2.760139   -0.514716
     48          1           0      -12.912138    1.330829    1.861829
     49          1           0       13.718696    0.231133   -1.161357
     50          1           0       13.260443   -1.100335   -2.373491
     51          1           0      -13.459856    1.705134   -1.349491
     52          1           0      -12.546051    2.766641   -0.050201
     53          1           0       11.712253   -1.197272    3.251791
     54          1           0       10.076174   -0.761401    3.044638
     55          1           0       11.619961    0.360205    2.775500
     56          1           0       10.701608   -3.217223   -0.010131
     57          1           0       10.947680   -3.113780    1.734113
     58          1           0        9.636044   -2.481281    1.360390
     59          1           0      -11.418637   -0.179014    2.651630
     60          1           0      -10.937378   -1.741861    2.106380
     61          1           0      -12.357776   -1.507864    2.929038
     62          1           0      -13.331980   -2.853832    1.047068
     63          1           0      -11.578657   -3.195516    0.165472
     64          1           0      -13.148177   -2.358218   -0.745920
     65          1           0        9.104409   -0.126257    0.904382
     66          1           0      -10.444468   -2.161465   -0.826456
     67          1           0       10.185904    0.772796   -2.321766
     68          1           0       11.710132    1.898470   -2.071274
     69          1           0       11.629816    0.584103   -3.268317
     70          1           0      -11.242586    2.086212   -2.583485
     71          1           0       -9.941988    0.871020   -2.251126
     72          1           0      -10.066796    2.343105   -1.085348
     73          1           0       15.144518   -2.436204    0.460779
     74          1           0      -15.085626    1.919937    1.789043
     75          1           0       10.162841    2.296553   -0.447749
     76          1           0       -9.102314    0.430038   -0.125657
     77          1           0        8.973523    4.262137    0.063442
     78          1           0        7.047535    4.407665    0.468055
     79          1           0        8.538913    3.799010    1.741060
     80          1           0       -8.351480   -3.416612   -0.359733
     81          1           0       -8.025112   -2.764013   -2.020257
     82          1           0       -6.774521   -3.190306   -0.583919
     83          1           0        7.125744    0.588398   -0.457997
     84          1           0       -6.449937    0.626677   -0.058091
     85          1           0        5.224313    2.979035    0.822526
     86          1           0       -4.927686   -2.082444   -0.857591
     87          1           0        4.665866    0.265467   -0.578820
     88          1           0       -4.004229    0.700966    0.125030
     89          1           0        3.462887    3.198511    1.548531
     90          1           0        1.812064    3.157597    0.892571
     91          1           0        3.104670    3.892223   -0.082142
     92          1           0       -2.656400   -2.937176   -0.288119
     93          1           0       -2.869184   -2.381364   -2.025233
     94          1           0       -1.333560   -2.231373   -1.245016
     95          1           0        2.263873   -0.169387   -0.439728
     96          1           0       -2.042592    1.121180    0.041819
     97          1           0        0.489178    2.028088    0.270075
     98          1           0        0.304423   -0.881775   -0.596615
 ---------------------------------------------------------------------

 SCF Done:  E(RCAM-B3LYP) =  -1706.97619138     A.U. after   14 cycles

 Excitation energies and oscillator strengths:

 Excited State   1:      Singlet-A      2.7308 eV  454.02 nm  f=3.6067  <S**2>=0.000
     155 ->158        -0.15097
     156 ->157         0.68706
 This state for optimization and/or second-order correction.
 Total Energy, E(TD-HF/TD-DFT) =  -1706.87583528
 Copying the excited state density for this state as the 1-particle RhoCI density.

 The electronic state is 1-A.
 Alpha  occ. eigenvalues --  -19.21925 -19.21368 -10.31126 -10.30461 -10.28648
 Alpha  occ. eigenvalues --  -10.28200 -10.28018 -10.27686 -10.27673 -10.27548
 Alpha  occ. eigenvalues --  -10.27504 -10.27388 -10.27268 -10.26842 -10.26818
 Alpha  occ. eigenvalues --  -10.26755 -10.26521 -10.26424 -10.26385 -10.26314
 Alpha  occ. eigenvalues --  -10.26310 -10.26302 -10.26207 -10.26171 -10.26168
 Alpha  occ. eigenvalues --  -10.26144 -10.26109 -10.26088 -10.25858 -10.25829
 Alpha  occ. eigenvalues --  -10.25780 -10.25586 -10.25545 -10.25360 -10.25247
 Alpha  occ. eigenvalues --  -10.25246 -10.25160 -10.25093 -10.24896 -10.24840
 Alpha  occ. eigenvalues --  -10.23783 -10.23771  -1.09842  -1.09067  -0.94097
 Alpha  occ. eigenvalues --   -0.93779  -0.92441  -0.91369  -0.89915  -0.89497
 Alpha  occ. eigenvalues --   -0.87625  -0.87333  -0.86386  -0.85671  -0.84665
 Alpha  occ. eigenvalues --   -0.82937  -0.81838  -0.80361  -0.80001  -0.77883
 Alpha  occ. eigenvalues --   -0.77390  -0.76330  -0.76191  -0.75643  -0.75491
 Alpha  occ. eigenvalues --   -0.75337  -0.74900  -0.74624  -0.73748  -0.70348
 Alpha  occ. eigenvalues --   -0.68759  -0.67087  -0.65116  -0.64638  -0.64217
 Alpha  occ. eigenvalues --   -0.63337  -0.62638  -0.61849  -0.60585  -0.59859
 Alpha  occ. eigenvalues --   -0.59433  -0.59126  -0.57828  -0.57632  -0.56188
 Alpha  occ. eigenvalues --   -0.55083  -0.54709  -0.54444  -0.53742  -0.53429
 Alpha  occ. eigenvalues --   -0.52937  -0.52856  -0.52500  -0.52301  -0.51167
 Alpha  occ. eigenvalues --   -0.50489  -0.49976  -0.49546  -0.49207  -0.49007
 Alpha  occ. eigenvalues --   -0.48525  -0.48482  -0.48040  -0.47852  -0.47660
 Alpha  occ. eigenvalues --   -0.47381  -0.47200  -0.46834  -0.45953  -0.45860
 Alpha  occ. eigenvalues --   -0.45675  -0.45141  -0.44934  -0.44685  -0.44304
 Alpha  occ. eigenvalues --   -0.43993  -0.43974  -0.43705  -0.43544  -0.43176
 Alpha  occ. eigenvalues --   -0.43010  -0.42445  -0.42141  -0.42109  -0.41785
 Alpha  occ. eigenvalues --   -0.41759  -0.41661  -0.41294  -0.40944  -0.40691
 Alpha  occ. eigenvalues --   -0.40623  -0.39989  -0.39876  -0.39763  -0.39220
 Alpha  occ. eigenvalues --   -0.38959  -0.38670  -0.38647  -0.38635  -0.38216
 Alpha  occ. eigenvalues --   -0.37959  -0.37437  -0.36260  -0.35809  -0.35316
 Alpha  occ. eigenvalues --   -0.35226  -0.34455  -0.33947  -0.32768  -0.32414
 Alpha  occ. eigenvalues --   -0.32065  -0.29553  -0.27944  -0.26196  -0.24413
 Alpha  occ. eigenvalues --   -0.20770
 Alpha virt. eigenvalues --   -0.04463   0.00086   0.02898   0.06021   0.07896
 Alpha virt. eigenvalues --    0.09535   0.11004   0.11292   0.11869   0.12084
 Alpha virt. eigenvalues --    0.12147   0.12817   0.13016   0.13216   0.13619

 Mulliken charges:
               1
     1  O   -0.563061
     2  O   -0.546987
     3  C   -0.055665
     4  C   -0.005837
     5  C   -0.218658
     6  C   -0.171442
     7  C    0.210020
     8  C    0.146708
     9  C    0.085604
    10  C    0.041405
    11  C   -0.218900
    12  C   -0.199785
    13  C    0.054235
    14  C    0.059940
    15  C   -0.349042
    16  C   -0.287997
    17  C   -0.294159
    18  C   -0.280343
    19  C   -0.121302
    20  C   -0.121309
    21  C   -0.351660
    22  C   -0.363055
    23  C   -0.094513
    24  C   -0.079233
    25  C    0.081624
    26  C    0.086259
    27  C   -0.344304
    28  C   -0.359167
    29  C   -0.129806
    30  C   -0.126248
    31  C   -0.079554
    32  C   -0.102368
    33  C   -0.085508
    34  C   -0.099445
    35  C    0.110544
    36  C    0.128839
    37  C   -0.395588
    38  C   -0.379153
    39  C   -0.124273
    40  C   -0.138760
    41  C   -0.020092
    42  C   -0.112235
    43  H    0.113993
    44  H    0.055449
    45  H    0.087127
    46  H    0.087657
    47  H    0.092657
    48  H    0.040903
    49  H    0.106346
    50  H    0.102385
    51  H    0.098313
    52  H    0.114754
    53  H    0.112665
    54  H    0.110096
    55  H    0.092683
    56  H    0.119429
    57  H    0.112690
    58  H    0.099917
    59  H    0.088667
    60  H    0.121492
    61  H    0.086037
    62  H    0.102850
    63  H    0.069368
    64  H    0.086412
    65  H    0.078291
    66  H    0.083722
    67  H    0.127700
    68  H    0.085540
    69  H    0.111455
    70  H    0.115614
    71  H    0.092442
    72  H    0.118988
    73  H    0.305477
    74  H    0.307873
    75  H    0.063898
    76  H    0.075319
    77  H    0.123155
    78  H    0.084342
    79  H    0.105365
    80  H    0.114323
    81  H    0.112136
    82  H    0.115768
    83  H    0.091613
    84  H    0.088768
    85  H    0.076290
    86  H    0.093850
    87  H    0.081146
    88  H    0.081921
    89  H    0.116827
    90  H    0.101865
    91  H    0.114590
    92  H    0.118429
    93  H    0.108594
    94  H    0.116466
    95  H    0.069530
    96  H    0.075403
    97  H    0.072496
    98  H    0.083185
 Sum of Mulliken charges =  -0.00000

 Dipole moment (field-independent basis, Debye):
    X=              0.6593    Y=             -1.7955    Z=              2.8424  Tot=              3.4260
 Quadrupole moment (field-independent basis, Debye-Ang):
   XX=           -275.7034   YY=           -248.7076   ZZ=           -255.9660
   XY=              6.9844   XZ=              2.2825   YZ=              1.7845

 Normal termination of Gaussian 16 at Sun Jun 30 02:15:00 2019.
