 Gaussian 16, Revision A.03,
 Gaussian 16:  ES64L-G16RevA.03 25-Dec-2016

 -------------------------------------
 # td=(NStates=1) CAM-B3LYP/6-31G(d,p)
 -------------------------------------

 --
 TD
 --
 Symbolic Z-matrix:
 Charge =  0 Multiplicity = 1

                         Standard orientation:
 ---------------------------------------------------------------------
 Center     Atomic      Atomic             Coordinates (Angstroms)
 Number     Number       Type             X           Y           Z
 ---------------------------------------------------------------------
      1          8           0       14.723449   -2.104103   -0.462835
      2          8           0      -14.793692    1.942593    0.884481
      3          6           0       11.339844   -1.197196    1.073434
      4          6           0      -12.416813   -1.040306    0.615310
      5          6           0       12.934708   -1.472442    1.007609
      6          6           0      -13.764800   -0.272437    0.633057
      7          6           0       13.299087   -1.945867   -0.349968
      8          6           0      -13.577912    1.245526    0.759049
      9          6           0       10.977609   -0.304237   -0.044016
     10          6           0      -11.312718   -0.272475   -0.300757
     11          6           0       12.974805   -0.902451   -1.323241
     12          6           0      -12.920811    1.726464   -0.503339
     13          6           0       11.765637   -0.143036   -1.166505
     14          6           0      -11.574174    1.019393   -0.734025
     15          6           0       11.288468   -0.458312    2.517010
     16          6           0       10.711023   -2.533342    1.185704
     17          6           0      -11.876727   -1.229685    1.939622
     18          6           0      -12.697840   -2.433973    0.049893
     19          6           0        9.666250    0.379344    0.125813
     20          6           0      -10.055951   -1.052127   -0.444273
     21          6           0       11.305247    0.775994   -2.289998
     22          6           0      -10.731882    1.648003   -1.679813
     23          6           0        9.344611    1.612991   -0.180330
     24          6           0       -8.902755   -0.451015   -0.210378
     25          6           0        8.112891    2.301717   -0.065425
     26          6           0       -7.598172   -1.139059   -0.424768
     27          6           0        8.078647    3.773207    0.332219
     28          6           0       -7.640398   -2.652586   -0.813310
     29          6           0        7.010722    1.488886   -0.154310
     30          6           0       -6.453960   -0.534238   -0.342227
     31          6           0        5.614610    1.939290    0.179039
     32          6           0       -5.122052   -1.054388   -0.607609
     33          6           0        4.562338    1.132470    0.163436
     34          6           0       -4.048191   -0.231604   -0.127222
     35          6           0        3.120729    1.542819    0.292886
     36          6           0       -2.653071   -0.690114   -0.328110
     37          6           0        2.899770    2.993701    0.781484
     38          6           0       -2.400134   -2.051120   -0.940790
     39          6           0        2.132647    0.682255    0.063447
     40          6           0       -1.636511    0.210292    0.044706
     41          6           0        0.763007    0.908247    0.166336
     42          6           0       -0.223937   -0.026635   -0.009550
     43          1           0       13.471495   -0.685057    1.224217
     44          1           0       13.413205   -2.316042    1.696677
     45          1           0      -14.332130   -0.836111    1.560021
     46          1           0      -14.362166   -0.449351   -0.256463
     47          1           0       12.788027   -3.103899   -0.348547
     48          1           0      -12.926223    1.550872    1.776567
     49          1           0       13.582054   -0.054028   -1.174543
     50          1           0       13.169102   -1.106341   -2.297423
     51          1           0      -13.626380    1.424903   -1.411875
     52          1           0      -12.814795    2.960863   -0.359389
     53          1           0       11.728509   -1.042685    3.356663
     54          1           0       10.253514   -0.314899    2.679346
     55          1           0       11.813831    0.583756    2.696273
     56          1           0       10.838486   -3.083430    0.024803
     57          1           0       11.105158   -3.223954    1.852917
     58          1           0        9.704996   -2.376971    1.384487
     59          1           0      -12.267574   -0.255690    2.574674
     60          1           0      -10.772087   -1.546003    2.045746
     61          1           0      -12.608127   -2.066031    2.550113
     62          1           0      -13.515342   -2.895362    0.485790
     63          1           0      -11.803143   -2.980574    0.262730
     64          1           0      -12.699273   -2.408732   -1.102640
     65          1           0        8.993401   -0.294888    0.673719
     66          1           0      -10.034229   -2.115422   -0.563498
     67          1           0       10.164952    0.759196   -2.164418
     68          1           0       11.926001    1.660551   -2.197816
     69          1           0       11.830251    0.343924   -3.279995
     70          1           0      -11.336514    1.932065   -2.404801
     71          1           0       -9.856807    0.976091   -2.028301
     72          1           0      -10.472738    2.575045   -1.278954
     73          1           0       14.857425   -2.868539    0.053872
     74          1           0      -15.476669    1.672973    1.360818
     75          1           0       10.110735    2.265720   -0.617227
     76          1           0       -8.746618    0.641987   -0.247340
     77          1           0        8.862797    4.136504   -0.417817
     78          1           0        6.893849    4.128157    0.217458
     79          1           0        8.593544    3.954011    1.274977
     80          1           0       -8.109268   -3.352284   -0.009582
     81          1           0       -7.987634   -2.782899   -1.911290
     82          1           0       -6.676166   -3.085089   -0.967947
     83          1           0        7.211001    0.418215   -0.498271
     84          1           0       -6.367947    0.599023   -0.349103
     85          1           0        5.503966    2.925324    0.825329
     86          1           0       -4.937252   -2.055538   -1.103506
     87          1           0        4.658012    0.054062   -0.343188
     88          1           0       -4.224036    0.699033    0.409569
     89          1           0        3.733868    3.349687    1.600130
     90          1           0        1.969579    2.927114    1.179327
     91          1           0        2.980330    3.859994   -0.115946
     92          1           0       -2.735335   -2.777727   -0.331072
     93          1           0       -2.693460   -2.185267   -2.025180
     94          1           0       -1.377346   -2.307509   -0.804216
     95          1           0        2.669246   -0.244530   -0.293154
     96          1           0       -1.914493    1.086722    0.338362
     97          1           0        0.527499    1.822398    0.466657
     98          1           0        0.117822   -0.952977   -0.381454
 ---------------------------------------------------------------------

 SCF Done:  E(RCAM-B3LYP) =  -1706.91142205     A.U. after   14 cycles

 Excitation energies and oscillator strengths:

 Excited State   1:      Singlet-A      2.7951 eV  443.58 nm  f=3.6240  <S**2>=0.000
     155 ->158        -0.16886
     156 ->157         0.68060
 This state for optimization and/or second-order correction.
 Total Energy, E(TD-HF/TD-DFT) =  -1706.80870573
 Copying the excited state density for this state as the 1-particle RhoCI density.

 The electronic state is 1-A.
 Alpha  occ. eigenvalues --  -19.20736 -19.19432 -10.31948 -10.31052 -10.28061
 Alpha  occ. eigenvalues --  -10.27800 -10.27788 -10.27702 -10.27477 -10.27295
 Alpha  occ. eigenvalues --  -10.27202 -10.27184 -10.27012 -10.26837 -10.26782
 Alpha  occ. eigenvalues --  -10.26652 -10.26612 -10.26609 -10.26603 -10.26579
 Alpha  occ. eigenvalues --  -10.26569 -10.26359 -10.26290 -10.26238 -10.26149
 Alpha  occ. eigenvalues --  -10.25959 -10.25819 -10.25812 -10.25720 -10.25539
 Alpha  occ. eigenvalues --  -10.25509 -10.25315 -10.25309 -10.25296 -10.25291
 Alpha  occ. eigenvalues --  -10.25188 -10.25065 -10.24933 -10.23980 -10.23767
 Alpha  occ. eigenvalues --  -10.23714 -10.22912  -1.10362  -1.10208  -0.94532
 Alpha  occ. eigenvalues --   -0.93365  -0.91943  -0.91228  -0.90893  -0.89732
 Alpha  occ. eigenvalues --   -0.88324  -0.88025  -0.86953  -0.85817  -0.85002
 Alpha  occ. eigenvalues --   -0.83206  -0.82382  -0.80590  -0.80218  -0.78508
 Alpha  occ. eigenvalues --   -0.76921  -0.76336  -0.76070  -0.75702  -0.75491
 Alpha  occ. eigenvalues --   -0.75275  -0.75114  -0.74231  -0.73755  -0.70736
 Alpha  occ. eigenvalues --   -0.68882  -0.67903  -0.65942  -0.65265  -0.64496
 Alpha  occ. eigenvalues --   -0.63434  -0.62409  -0.61385  -0.60717  -0.59282
 Alpha  occ. eigenvalues --   -0.59228  -0.58099  -0.57799  -0.57412  -0.56935
 Alpha  occ. eigenvalues --   -0.56044  -0.55403  -0.55023  -0.54055  -0.53263
 Alpha  occ. eigenvalues --   -0.52920  -0.52430  -0.52076  -0.51206  -0.51053
 Alpha  occ. eigenvalues --   -0.50677  -0.50201  -0.49900  -0.49885  -0.49858
 Alpha  occ. eigenvalues --   -0.49100  -0.48837  -0.48374  -0.48105  -0.48090
 Alpha  occ. eigenvalues --   -0.47906  -0.47286  -0.47092  -0.46969  -0.46278
 Alpha  occ. eigenvalues --   -0.46028  -0.45656  -0.45462  -0.45001  -0.44959
 Alpha  occ. eigenvalues --   -0.44752  -0.44595  -0.44491  -0.44224  -0.43659
 Alpha  occ. eigenvalues --   -0.43323  -0.42706  -0.42426  -0.42309  -0.41717
 Alpha  occ. eigenvalues --   -0.41526  -0.41318  -0.41255  -0.41107  -0.40735
 Alpha  occ. eigenvalues --   -0.40455  -0.40340  -0.39905  -0.39739  -0.39562
 Alpha  occ. eigenvalues --   -0.39493  -0.38704  -0.37788  -0.37716  -0.37429
 Alpha  occ. eigenvalues --   -0.37176  -0.36779  -0.36431  -0.35878  -0.35389
 Alpha  occ. eigenvalues --   -0.35292  -0.34717  -0.33999  -0.32416  -0.31419
 Alpha  occ. eigenvalues --   -0.30690  -0.29704  -0.27895  -0.25875  -0.24057
 Alpha  occ. eigenvalues --   -0.20878
 Alpha virt. eigenvalues --   -0.04119   0.00115   0.02799   0.05747   0.07989
 Alpha virt. eigenvalues --    0.09688   0.10445   0.11018   0.11590   0.11725
 Alpha virt. eigenvalues --    0.12352   0.12862   0.13255   0.13669   0.13697

 Mulliken charges:
               1
     1  O   -0.545768
     2  O   -0.561118
     3  C   -0.053872
     4  C    0.019300
     5  C   -0.153540
     6  C   -0.205232
     7  C    0.139237
     8  C    0.212535
     9  C    0.067344
    10  C    0.041934
    11  C   -0.195437
    12  C   -0.212515
    13  C    0.041824
    14  C    0.054643
    15  C   -0.306131
    16  C   -0.274517
    17  C   -0.271950
    18  C   -0.296259
    19  C   -0.119392
    20  C   -0.143884
    21  C   -0.364487
    22  C   -0.353788
    23  C   -0.119068
    24  C   -0.078751
    25  C    0.087352
    26  C    0.105376
    27  C   -0.347069
    28  C   -0.376450
    29  C   -0.124622
    30  C   -0.137097
    31  C   -0.095838
    32  C   -0.105007
    33  C   -0.117459
    34  C   -0.115277
    35  C    0.092955
    36  C    0.083351
    37  C   -0.346489
    38  C   -0.376118
    39  C   -0.093923
    40  C   -0.093449
    41  C   -0.083454
    42  C   -0.081886
    43  H    0.105680
    44  H    0.045568
    45  H    0.059375
    46  H    0.104017
    47  H    0.049126
    48  H    0.059204
    49  H    0.139465
    50  H    0.115597
    51  H    0.110129
    52  H    0.094254
    53  H    0.100244
    54  H    0.100059
    55  H    0.093214
    56  H    0.067279
    57  H    0.119436
    58  H    0.102969
    59  H    0.079022
    60  H    0.115278
    61  H    0.050626
    62  H    0.107343
    63  H    0.097742
    64  H    0.087282
    65  H    0.086687
    66  H    0.103965
    67  H    0.145852
    68  H    0.127825
    69  H    0.082842
    70  H    0.119270
    71  H    0.110590
    72  H    0.111789
    73  H    0.297634
    74  H    0.287320
    75  H    0.081048
    76  H    0.091573
    77  H    0.108116
    78  H    0.106826
    79  H    0.135075
    80  H    0.109944
    81  H    0.112919
    82  H    0.106314
    83  H    0.087582
    84  H    0.083403
    85  H    0.079772
    86  H    0.101238
    87  H    0.065985
    88  H    0.095887
    89  H    0.094111
    90  H    0.119314
    91  H    0.098288
    92  H    0.134404
    93  H    0.123985
    94  H    0.108762
    95  H    0.071444
    96  H    0.061694
    97  H    0.072091
    98  H    0.077537
 Sum of Mulliken charges =  -0.00000

 Dipole moment (field-independent basis, Debye):
    X=             -0.0349    Y=             -1.5264    Z=              0.5285  Tot=              1.6157
 Quadrupole moment (field-independent basis, Debye-Ang):
   XX=           -260.4997   YY=           -246.5298   ZZ=           -262.6572
   XY=             10.0973   XZ=             10.0368   YZ=              1.1602

 Normal termination of Gaussian 16 at Sun Jun 30 16:43:05 2019.
